    -----------------------------------------------------------------------
          Psi4: An Open-Source Ab Initio Electronic Structure Package
                              Psi4 (no tag) Driver

                          Git: Rev {detached?}  

    J. M. Turney, A. C. Simmonett, R. M. Parrish, E. G. Hohenstein,
    F. A. Evangelista, J. T. Fermann, B. J. Mintz, L. A. Burns, J. J. Wilke,
    M. L. Abrams, N. J. Russ, M. L. Leininger, C. L. Janssen, E. T. Seidl,
    W. D. Allen, H. F. Schaefer, R. A. King, E. F. Valeev, C. D. Sherrill,
    and T. D. Crawford, WIREs Comput. Mol. Sci. 2, 556-565 (2012)
    (doi: 10.1002/wcms.93)

                         Additional Contributions by
    A. E. DePrince, M. Saitow, U. Bozkaya, A. Yu. Sokolov
    -----------------------------------------------------------------------


    Psi4 started on: Fri Sep  2 14:05:06 2016

    Process ID:  27742
    PSI4DATADIR: /export131/home/mjharvey/miniconda3/share
    Memory level set to 256.000 MB

  ==> Input File <==

--------------------------------------------------------------------------
set {
	reference rhf
	basis 6-31G*
}


set_num_threads( 4 )
memory 2 gb

molecule MOL {
0 1

H	 -2.646374	 -0.642757	 1.268656
C	 -2.083525	 -0.384536	 0.393091
O	 -0.807605	 -0.127164	 0.768327
F	 -2.118945	 -1.383102	 -0.486752
F	 -2.621877	 0.670592	 -0.209486
C	 0.084052	 0.273579	 -0.209957
C	 1.353033	 -0.546803	 -0.018071
Cl	 0.433844	 2.004619	 -0.074457
H	 -0.288836	 0.092657	 -1.202930
F	 2.409113	 0.147786	 -0.384650
F	 1.284033	 -1.619737	 -0.780625
F	 1.510795	 -0.930556	 1.225238

	symmetry c1
}
set optking {
	frozen_dihedral = ("
		10 7 6 9
	")
}

ee = optimize('scf')
oeprop('DIPOLE', 'QUADRUPOLE', 'MULLIKEN_CHARGES')
f=open( 'psi4out.xyz', 'w' )
f.write( "12  " )
f.write( str(ee) + "\n" )
f.write( MOL.save_string_xyz() )
f.close()
--------------------------------------------------------------------------

  Memory set to   2.000 GiB by Python script.
gradient() will perform analytic gradient computation.

*** tstart() called on cx1-1-3-2.cx1.hpc.ic.ac.uk
*** at Fri Sep  2 14:05:06 2016


         ---------------------------------------------------------
                                   SCF
            by Justin Turney, Rob Parrish, and Andy Simmonett
                              RHF Reference
                        4 Threads,   2000 MiB Core
         ---------------------------------------------------------

  ==> Geometry <==

    Molecular point group: c1
    Full point group: C1

    Geometry (in Angstrom), charge = 0, multiplicity = 1:

       Center              X                  Y                   Z               Mass       
    ------------   -----------------  -----------------  -----------------  -----------------
           H         -2.648203182311    -0.645134410437     1.270588712029     1.007825032070
           C         -2.085354182311    -0.386913410437     0.395023712029    12.000000000000
           O         -0.809434182312    -0.129541410437     0.770259712029    15.994914619560
           F         -2.120774182312    -1.385479410437    -0.484819287971    18.998403224000
           F         -2.623706182311     0.668214589563    -0.207553287971    18.998403224000
           C          0.082222817688     0.271201589563    -0.208024287971    12.000000000000
           C          1.351203817688    -0.549180410437    -0.016138287971    12.000000000000
          CL          0.432014817688     2.002241589563    -0.072524287971    34.968852682000
           H         -0.290665182312     0.090279589563    -1.200997287971     1.007825032070
           F          2.407283817689     0.145408589563    -0.382717287971    18.998403224000
           F          1.282203817689    -1.622114410437    -0.778692287971    18.998403224000
           F          1.508965817689    -0.932933410437     1.227170712029    18.998403224000

  Running in c1 symmetry.

  Rotational constants: A =      0.05230  B =      0.02997  C =      0.02223 [cm^-1]
  Rotational constants: A =   1567.82057  B =    898.42679  C =    666.49534 [MHz]
  Nuclear repulsion =  738.351141230073836

  Charge       = 0
  Multiplicity = 1
  Electrons    = 90
  Nalpha       = 45
  Nbeta        = 45

  ==> Algorithm <==

  SCF Algorithm Type is DF.
  DIIS enabled.
  MOM disabled.
  Fractional occupation disabled.
  Guess Type is CORE.
  Energy threshold   = 1.00e-08
  Density threshold  = 1.00e-08
  Integral threshold = 0.00e+00

  ==> Primary Basis <==

  Basis Set: 6-31G*
    Number of shells: 66
    Number of basis function: 158
    Number of Cartesian functions: 158
    Spherical Harmonics?: false
    Max angular momentum: 2

  ==> Pre-Iterations <==

   -------------------------------------------------------
    Irrep   Nso     Nmo     Nalpha   Nbeta   Ndocc  Nsocc
   -------------------------------------------------------
     A        158     158       0       0       0       0
   -------------------------------------------------------
    Total     158     158      45      45      45       0
   -------------------------------------------------------

 OEINTS: Overlap, kinetic, potential, dipole, and quadrupole integrals
         stored in file 35.

  ==> Integral Setup <==

  ==> DFJK: Density-Fitted J/K Matrices <==

    J tasked:                  Yes
    K tasked:                  Yes
    wK tasked:                  No
    OpenMP threads:              4
    Integrals threads:           4
    Memory (MB):              1430
    Algorithm:                Core
    Integral Cache:           NONE
    Schwarz Cutoff:          1E-12
    Fitting Condition:       1E-12

   => Auxiliary Basis Set <=

  Basis Set: 
    Number of shells: 270
    Number of basis function: 909
    Number of Cartesian functions: 909
    Spherical Harmonics?: false
    Max angular momentum: 3

  Minimum eigenvalue in the overlap matrix is 1.6807226127E-03.
  Using Symmetric Orthogonalization.
  SCF Guess: Core (One-Electron) Hamiltonian.

  ==> Iterations <==

                           Total Energy        Delta E     RMS |[F,P]|

   @DF-RHF iter   1: -1037.10664507336764   -1.03711e+03   6.84092e-02 
   @DF-RHF iter   2:  -708.45575713290123    3.28651e+02   7.85081e-02 DIIS
   @DF-RHF iter   3:  -979.13270136545611   -2.70677e+02   6.60148e-02 DIIS
   @DF-RHF iter   4: -1118.23017049390955   -1.39097e+02   3.51745e-02 DIIS
   @DF-RHF iter   5: -1124.28653503949636   -6.05636e+00   3.47100e-02 DIIS
   @DF-RHF iter   6: -1140.89566396676673   -1.66091e+01   1.82494e-02 DIIS
   @DF-RHF iter   7: -1145.91133945401907   -5.01568e+00   6.35341e-03 DIIS
   @DF-RHF iter   8: -1146.28049838449920   -3.69159e-01   1.39201e-03 DIIS
   @DF-RHF iter   9: -1146.30107478835953   -2.05764e-02   7.66262e-04 DIIS
   @DF-RHF iter  10: -1146.30755106506172   -6.47628e-03   1.67374e-04 DIIS
   @DF-RHF iter  11: -1146.30794567882617   -3.94614e-04   5.88660e-05 DIIS
   @DF-RHF iter  12: -1146.30800985646761   -6.41776e-05   1.98393e-05 DIIS
   @DF-RHF iter  13: -1146.30801726831692   -7.41185e-06   5.02756e-06 DIIS
   @DF-RHF iter  14: -1146.30801782305707   -5.54740e-07   1.71801e-06 DIIS
   @DF-RHF iter  15: -1146.30801788292024   -5.98632e-08   6.08733e-07 DIIS
   @DF-RHF iter  16: -1146.30801788883309   -5.91285e-09   1.52079e-07 DIIS
   @DF-RHF iter  17: -1146.30801788952863   -6.95536e-10   3.94974e-08 DIIS
   @DF-RHF iter  18: -1146.30801788957660   -4.79758e-11   1.06416e-08 DIIS
   @DF-RHF iter  19: -1146.30801788958024   -3.63798e-12   3.59276e-09 DIIS

  ==> Post-Iterations <==

    Orbital Energies (a.u.)
    -----------------------

    Doubly Occupied:                                                      

       1A   -104.840897     2A    -26.359895     3A    -26.357778  
       4A    -26.356542     5A    -26.346479     6A    -26.345935  
       7A    -20.649078     8A    -11.527154     9A    -11.489188  
      10A    -11.399441    11A    -10.575726    12A     -8.045073  
      13A     -8.041510    14A     -8.041476    15A     -1.760974  
      16A     -1.717769    17A     -1.657352    18A     -1.656211  
      19A     -1.638454    20A     -1.485719    21A     -1.178522  
      22A     -1.051470    23A     -0.986519    24A     -0.918557  
      25A     -0.859243    26A     -0.852376    27A     -0.845924  
      28A     -0.824302    29A     -0.811500    30A     -0.790926  
      31A     -0.726489    32A     -0.723457    33A     -0.705932  
      34A     -0.702629    35A     -0.678480    36A     -0.674708  
      37A     -0.658587    38A     -0.657387    39A     -0.645088  
      40A     -0.631525    41A     -0.596141    42A     -0.581554  
      43A     -0.522074    44A     -0.473244    45A     -0.467368  

    Virtual:                                                              

      46A      0.175211    47A      0.238969    48A      0.258787  
      49A      0.275581    50A      0.349415    51A      0.360322  
      52A      0.408963    53A      0.420571    54A      0.451099  
      55A      0.475623    56A      0.484143    57A      0.551103  
      58A      0.621957    59A      0.630499    60A      0.642503  
      61A      0.668325    62A      0.700884    63A      0.710493  
      64A      0.743271    65A      0.756560    66A      0.764295  
      67A      0.796516    68A      0.845970    69A      0.926084  
      70A      0.966146    71A      0.978076    72A      1.059306  
      73A      1.063565    74A      1.106227    75A      1.133984  
      76A      1.172571    77A      1.212176    78A      1.251325  
      79A      1.283122    80A      1.292608    81A      1.314009  
      82A      1.319307    83A      1.368324    84A      1.398331  
      85A      1.423361    86A      1.433112    87A      1.471243  
      88A      1.514261    89A      1.591586    90A      1.597131  
      91A      1.612463    92A      1.617560    93A      1.636366  
      94A      1.643180    95A      1.654473    96A      1.662433  
      97A      1.666423    98A      1.680648    99A      1.688196  
     100A      1.726806   101A      1.765934   102A      1.797053  
     103A      1.915202   104A      1.947797   105A      1.966393  
     106A      1.984558   107A      1.994669   108A      2.037291  
     109A      2.090503   110A      2.091376   111A      2.100487  
     112A      2.124445   113A      2.125420   114A      2.149689  
     115A      2.158368   116A      2.256379   117A      2.296776  
     118A      2.303165   119A      2.315581   120A      2.326496  
     121A      2.333334   122A      2.364549   123A      2.395022  
     124A      2.396139   125A      2.399976   126A      2.416029  
     127A      2.438417   128A      2.498293   129A      2.568248  
     130A      2.604688   131A      2.645819   132A      2.703765  
     133A      2.727117   134A      2.771063   135A      2.874409  
     136A      2.898648   137A      2.994099   138A      3.040479  
     139A      3.119468   140A      3.172502   141A      3.181845  
     142A      3.277641   143A      3.312306   144A      3.398987  
     145A      3.411925   146A      3.424045   147A      3.441607  
     148A      3.468615   149A      4.324311   150A      4.524885  
     151A      4.595394   152A      4.699799   153A      4.716619  
     154A      4.920249   155A      4.961565   156A      5.193199  
     157A      5.654924   158A      5.850873  

    Final Occupation by Irrep:
              A 
    DOCC [    45 ]

  Energy converged.

  @DF-RHF Final Energy: -1146.30801788958024

   => Energetics <=

    Nuclear Repulsion Energy =            738.3511412300738357
    One-Electron Energy =               -3059.6050067536366441
    Two-Electron Energy =                1174.9458476339830213
    DFT Exchange-Correlation Energy =       0.0000000000000000
    Empirical Dispersion Energy =           0.0000000000000000
    PCM Polarization Energy =               0.0000000000000000
    EFP Energy =                            0.0000000000000000
    Total Energy =                      -1146.3080178895800145

    Alert: EFP and PCM quantities not currently incorporated into SCF psivars.

Properties will be evaluated at   0.000000,   0.000000,   0.000000 Bohr
  ==> Properties <==


Properties computed using the SCF density matrix

  Nuclear Dipole Moment: (a.u.)
     X:    -3.5827      Y:     0.5961      Z:     0.7264

  Electronic Dipole Moment: (a.u.)
     X:     2.9798      Y:    -0.8294      Z:    -0.6725

  Dipole Moment: (a.u.)
     X:    -0.6029      Y:    -0.2333      Z:     0.0540     Total:     0.6488

  Dipole Moment: (Debye)
     X:    -1.5325      Y:    -0.5931      Z:     0.1372     Total:     1.6490


  Saving occupied orbitals to File 180.

*** tstop() called on cx1-1-3-2.cx1.hpc.ic.ac.uk at Fri Sep  2 14:05:14 2016
Module time:
	user time   =      26.72 seconds =       0.45 minutes
	system time =       0.41 seconds =       0.01 minutes
	total time  =          8 seconds =       0.13 minutes
Total time:
	user time   =      26.72 seconds =       0.45 minutes
	system time =       0.41 seconds =       0.01 minutes
	total time  =          8 seconds =       0.13 minutes

*** tstart() called on cx1-1-3-2.cx1.hpc.ic.ac.uk
*** at Fri Sep  2 14:05:14 2016


         ------------------------------------------------------------
                                   SCF GRAD                          
                          Rob Parrish, Justin Turney,                
                       Andy Simmonett, and Alex Sokolov              
         ------------------------------------------------------------

  ==> Geometry <==

    Molecular point group: c1
    Full point group: C1

    Geometry (in Angstrom), charge = 0, multiplicity = 1:

       Center              X                  Y                   Z               Mass       
    ------------   -----------------  -----------------  -----------------  -----------------
           H         -2.648203182311    -0.645134410437     1.270588712029     1.007825032070
           C         -2.085354182311    -0.386913410437     0.395023712029    12.000000000000
           O         -0.809434182312    -0.129541410437     0.770259712029    15.994914619560
           F         -2.120774182312    -1.385479410437    -0.484819287971    18.998403224000
           F         -2.623706182311     0.668214589563    -0.207553287971    18.998403224000
           C          0.082222817688     0.271201589563    -0.208024287971    12.000000000000
           C          1.351203817688    -0.549180410437    -0.016138287971    12.000000000000
          CL          0.432014817688     2.002241589563    -0.072524287971    34.968852682000
           H         -0.290665182312     0.090279589563    -1.200997287971     1.007825032070
           F          2.407283817689     0.145408589563    -0.382717287971    18.998403224000
           F          1.282203817689    -1.622114410437    -0.778692287971    18.998403224000
           F          1.508965817689    -0.932933410437     1.227170712029    18.998403224000

  Nuclear repulsion =  738.351141230073836

  ==> Basis Set <==

  Basis Set: 6-31G*
    Number of shells: 66
    Number of basis function: 158
    Number of Cartesian functions: 158
    Spherical Harmonics?: false
    Max angular momentum: 2

  ==> DFJKGrad: Density-Fitted SCF Gradients <==

    Gradient:                    1
    J tasked:                  Yes
    K tasked:                  Yes
    wK tasked:                  No
    OpenMP threads:              4
    Integrals threads:           4
    Memory (MB):              1430
    Schwarz Cutoff:          0E+00
    Fitting Condition:       1E-12

   => Auxiliary Basis Set <=

  Basis Set: 
    Number of shells: 270
    Number of basis function: 909
    Number of Cartesian functions: 909
    Spherical Harmonics?: false
    Max angular momentum: 3


  -Total Gradient:
     Atom            X                  Y                   Z
    ------   -----------------  -----------------  -----------------
       1        0.000029273221     0.000068211428     0.000036272498
       2       -0.000060163649    -0.001566543335    -0.000203016704
       3        0.003973280511     0.001254461927     0.002796602689
       4       -0.000189931797     0.000401885445     0.000126725693
       5        0.000325980072     0.000111541069     0.000040652054
       6        0.004050751759    -0.003155906796    -0.002432126482
       7       -0.007139519614    -0.003747694196     0.001098230637
       8        0.005135192696    -0.002939824939    -0.001763200772
       9        0.000113108584    -0.001166647300    -0.000495180929
      10       -0.003380242838     0.008406841905     0.000408385831
      11       -0.000222909527     0.003616841143    -0.000774222445
      12       -0.002634819425    -0.001283166446     0.001160877927


*** tstop() called on cx1-1-3-2.cx1.hpc.ic.ac.uk at Fri Sep  2 14:05:21 2016
Module time:
	user time   =      26.62 seconds =       0.44 minutes
	system time =       0.31 seconds =       0.01 minutes
	total time  =          7 seconds =       0.12 minutes
Total time:
	user time   =      53.35 seconds =       0.89 minutes
	system time =       0.72 seconds =       0.01 minutes
	total time  =         15 seconds =       0.25 minutes
CURRENT ENERGY: -1146.3080178896

			-----------------------------------------
			 OPTKING 2.0: for geometry optimizations 
			  - R.A. King,  Bethel University        
			-----------------------------------------

	Internal coordinates to be generated automatically.
	Detected frag with atoms:  1 2 3 4 5 6 7 8 9 10 11 12
	---Fragment 1 Bond Connectivity---
	 1 : 2
	 2 : 1 3 4 5
	 3 : 2 6
	 4 : 2
	 5 : 2
	 6 : 3 7 8 9
	 7 : 6 10 11 12
	 8 : 6
	 9 : 6
	 10 : 7
	 11 : 7
	 12 : 7

	Assuming in current code that numbering for constraints corresponds to unified fragment.
	Frozen dihedral atom list: 
	    10     7     6     9
	---Fragment 1 Geometry and Gradient---
	 H          -5.0043787588       -1.2191273546        2.4010646933
	 C          -3.9407482946       -0.7311603829        0.7464866317
	 O          -1.5296089272       -0.2447977886        1.4555799069
	 F          -4.0076823943       -2.6181766485       -0.9161756782
	 F          -4.9580861377        1.2627425723       -0.3922188722
	 C           0.1553786073        0.5124967311       -0.3931089333
	 C           2.5534051651       -1.0378005733       -0.0304969445
	 CL          0.8163896908        3.7836882561       -0.1370510422
	 H          -0.5492775909        0.1706036997       -2.2695559606
	 F           4.5491071396        0.2747824116       -0.7232308606
	 F           2.4230140620       -3.0653519919       -1.4715151661
	 F           2.8515321393       -1.7629886459        2.3190165640
	             0.0000292732        0.0000682114        0.0000362725
	            -0.0000601636       -0.0015665433       -0.0002030167
	             0.0039732805        0.0012544619        0.0027966027
	            -0.0001899318        0.0004018854        0.0001267257
	             0.0003259801        0.0001115411        0.0000406521
	             0.0040507518       -0.0031559068       -0.0024321265
	            -0.0071395196       -0.0037476942        0.0010982306
	             0.0051351927       -0.0029398249       -0.0017632008
	             0.0001131086       -0.0011666473       -0.0004951809
	            -0.0033802428        0.0084068419        0.0004083858
	            -0.0002229095        0.0036168411       -0.0007742224
	            -0.0026348194       -0.0012831664        0.0011608779

	Previous optimization step data not found.  Starting new optimization.

	---Fragment 1 Intrafragment Coordinates---
	 - Coordinate -           - BOHR/RAD -       - ANG/DEG -
	 R(1,2)           =         2.026586	       1.072423
	 R(2,3)           =         2.559874	       1.354627
	 R(2,4)           =         2.515901	       1.331357
	 R(2,5)           =         2.511429	       1.328991
	 R(3,6)           =         2.613490	       1.382999
	 R(6,7)           =         2.878444	       1.523207
	 R(6,8)           =         3.347117	       1.771218
	 R(6,9)           =         2.033343	       1.075999
	 R(7,10)          =         2.487083	       1.316108
	 R(7,11)          =         2.490883	       1.318119
	 R(7,12)          =         2.476891	       1.310715
	 B(1,2,3)         =         1.890132	     108.296610
	 B(1,2,4)         =         1.923027	     110.181343
	 B(1,2,5)         =         1.927024	     110.410365
	 B(2,3,6)         =         2.055989	     117.799465
	 B(3,2,4)         =         1.929032	     110.525385
	 B(3,2,5)         =         1.935101	     110.873139
	 B(3,6,7)         =         1.867059	     106.974574
	 B(3,6,8)         =         1.935210	     110.879373
	 B(3,6,9)         =         1.961274	     112.372735
	 B(4,2,5)         =         1.859865	     106.562404
	 B(6,7,10)        =         1.927478	     110.436349
	 B(6,7,11)        =         1.898549	     108.778838
	 B(6,7,12)        =         1.957848	     112.176428
	 B(7,6,8)         =         1.930726	     110.622445
	 B(7,6,9)         =         1.890626	     108.324905
	 B(8,6,9)         =         1.879020	     107.659905
	 B(10,7,11)       =         1.886473	     108.086945
	 B(10,7,12)       =         1.898790	     108.792656
	 B(11,7,12)       =         1.893093	     108.466226
	 D(1,2,3,6)       =        -3.103417	    -177.812700
	 D(2,3,6,7)       =        -2.327932	    -133.380699
	 D(2,3,6,8)       =         1.848610	     105.917562
	 D(2,3,6,9)       =        -0.255195	     -14.621614
	 D(3,6,7,10)      =        -2.594361	    -148.645917
	 D(3,6,7,11)      =         1.621203	      92.888115
	 D(3,6,7,12)      =        -0.473047	     -27.103585
	 D(4,2,3,6)       =         1.071709	      61.404382
	 D(5,2,3,6)       =        -0.986710	     -56.534297
	 D(8,6,7,10)      =        -0.484866	     -27.780771
	 D(8,6,7,11)      =        -2.552487	    -146.246739
	 D(8,6,7,12)      =         1.636448	      93.761561
	*D(9,6,7,10)      =         1.570797	      90.000023
	 D(9,6,7,11)      =        -0.496824	     -28.465945
	 D(9,6,7,12)      =        -2.591075	    -148.457645
	 R(5,8)           =         6.305938	       3.336959

	Current energy   :     -1146.3080178896

	Generating empirical Hessian (Schlegel '84) for each fragment.
	Taking RFO optimization step.
	Going to follow RFO solution 1.
	Using RFO vector 1.
	Norm of target step-size    0.27178
	Projected energy change by RFO approximation:         0.0038869834

	Back-transformation to cartesian coordinates...
	Successfully converged to displaced geometry.

	Back-transformation to cartesian coordinates to adjust frozen coordinates...
	Successfully converged to displaced geometry.

	--- Internal Coordinate Step in ANG or DEG, aJ/ANG or AJ/DEG ---
	 ---------------------------------------------------------------------------
	   Coordinate                Previous        Force       Change         New 
	   ----------                --------       ------       ------       ------
	    1 R(1,2)          =      1.072423     0.000018     0.000003     1.072426
	    2 R(2,3)          =      1.354627     0.008034     0.000540     1.355167
	    3 R(2,4)          =      1.331357     0.003132     0.000337     1.331695
	    4 R(2,5)          =      1.328991     0.001173     0.000098     1.329089
	    5 R(3,6)          =      1.382999     0.012255     0.001281     1.384280
	    6 R(6,7)          =      1.523207     0.120883     0.025444     1.548652
	    7 R(6,8)          =      1.771218     0.021727     0.004335     1.775554
	    8 R(6,9)          =      1.075999    -0.005058    -0.000880     1.075119
	    9 R(7,10)         =      1.316108    -0.013270    -0.001345     1.314763
	   10 R(7,11)         =      1.318119     0.020469     0.002092     1.320210
	   11 R(7,12)         =      1.310715    -0.009555    -0.000948     1.309767
	   12 B(1,2,3)        =    108.296610    -0.000035    -0.095636   108.200973
	   13 B(1,2,4)        =    110.181343    -0.000019    -0.141672   110.039671
	   14 B(1,2,5)        =    110.410365    -0.000065    -0.114145   110.296220
	   15 B(2,3,6)        =    117.799465     0.000163     0.259490   118.058955
	   16 B(3,2,4)        =    110.525385    -0.000069    -0.168764   110.356621
	   17 B(3,2,5)        =    110.873139     0.000225     0.521463   111.394602
	   18 B(3,6,7)        =    106.974574     0.000187     0.334753   107.309327
	   19 B(3,6,8)        =    110.879373    -0.000336    -0.835435   110.043938
	   20 B(3,6,9)        =    112.372735    -0.000222    -3.975378   108.397356
	   21 B(4,2,5)        =    106.562404    -0.000037    -0.003729   106.558674
	   22 B(6,7,10)       =    110.436349     0.001082     3.466205   113.902554
	   23 B(6,7,11)       =    108.778838    -0.000015     0.254549   109.033387
	   24 B(6,7,12)       =    112.176428     0.000011    -0.604347   111.572082
	   25 B(7,6,8)        =    110.622445     0.000596     3.545430   114.167875
	   26 B(7,6,9)        =    108.324905    -0.000131    -0.575688   107.749217
	   27 B(8,6,9)        =    107.659905    -0.000071     1.345981   109.005886
	   28 B(10,7,11)      =    108.086945    -0.000446    -0.061913   108.025032
	   29 B(10,7,12)      =    108.792656    -0.000522    -2.161714   106.630942
	   30 B(11,7,12)      =    108.466226    -0.000148    -1.044961   107.421265
	   31 D(1,2,3,6)      =   -177.812700    -0.000011    -0.198156  -178.010856
	   32 D(2,3,6,7)      =   -133.380699     0.000070     2.742103  -130.638596
	   33 D(2,3,6,8)      =    105.917562    -0.000079    -1.319022   104.598540
	   34 D(2,3,6,9)      =    -14.621614     0.000031     0.097441   -14.524173
	   35 D(3,6,7,10)     =   -148.645917    -0.000053    -4.812205  -153.458122
	   36 D(3,6,7,11)     =     92.888115    -0.000072    -7.071814    85.816301
	   37 D(3,6,7,12)     =    -27.103585    -0.000029    -5.566968   -32.670553
	   38 D(4,2,3,6)      =     61.404382     0.000010     0.137510    61.541892
	   39 D(5,2,3,6)      =    -56.534297    -0.000002    -0.078035   -56.612332
	   40 D(8,6,7,10)     =    -27.780771    -0.000040    -3.446183   -31.226954
	   41 D(8,6,7,11)     =   -146.246739    -0.000060    -5.705792  -151.952531
	   42 D(8,6,7,12)     =     93.761561    -0.000017    -4.200946    89.560616
	   43 *D(9,6,7,10)    =     90.000023     0.000000     0.000000    90.000023
	   44 D(9,6,7,11)     =    -28.465945    -0.000019    -2.259609   -30.725555
	   45 D(9,6,7,12)     =   -148.457645     0.000024    -0.754763  -149.212408
	   46 R(5,8)          =      3.336959    -0.009222    -0.016727     3.320232
	 ---------------------------------------------------------------------------

  ==> Convergence Check <==

  Measures of convergence in internal coordinates in au.
  Criteria marked as inactive (o), active & met (*), and active & unmet ( ).
  --------------------------------------------------------------------------------------------- ~
   Step     Total Energy     Delta E     MAX Force     RMS Force      MAX Disp      RMS Disp    ~
  --------------------------------------------------------------------------------------------- ~
    Convergence Criteria    1.00e-06 *    3.00e-04 *             o    1.20e-03 *             o  ~
  --------------------------------------------------------------------------------------------- ~
      1   -1146.30801789   -1.15e+03      1.47e-02      3.98e-03 o    1.23e-01      4.01e-02 o  ~
  ---------------------------------------------------------------------------------------------

	Writing optimization data to binary file.
	Structure for next step:
	Cartesian Geometry (in Angstrom)
	    H    -2.6498285414  -0.6681343407   1.2412087762
	    C    -2.0813661128  -0.3882018581   0.3760000160
	    O    -0.8143939194  -0.1154009652   0.7720281432
	    F    -2.0854790081  -1.3796188053  -0.5130929466
	    F    -2.6384945811   0.6596110252  -0.2224753099
	    C     0.0896389462   0.3109065144  -0.1856863688
	    C     1.3670159267  -0.5506045459  -0.0293907883
	   CL     0.3667532443   2.0574418655  -0.0262735749
	    H    -0.3247870664   0.1093736845  -1.1570346002
	    F     2.4646202711   0.0444708706  -0.4413987491
	    F     1.2220068686  -1.6652004700  -0.7219251968
	    F     1.5700715162  -0.8885940890   1.2196171673
			--------------------------
			 OPTKING Finished Execution 
			--------------------------

    Structure for next step:
    Molecular point group: c1
    Full point group: C1

    Geometry (in Angstrom), charge = 0, multiplicity = 1:

    H           -2.646704363161    -0.671670055002     1.238270542876
    C           -2.078241978035    -0.391737593821     0.373061848754
    O           -0.811269881316    -0.118936721763     0.769089945711
    F           -2.082354872944    -1.383154465347    -0.516031045944
    F           -2.635370403785     0.656075209439    -0.225413431396
    C            0.092762915240     0.307370725281    -0.188624493126
    C            1.370139798151    -0.554140269232    -0.032328924558
    CL           0.369877192173     2.053905943005    -0.029211711377
    H           -0.321663065733     0.105837910759    -1.159972650415
    F            2.467744058803     0.040935101787    -0.444336853929
    F            1.225130751098    -1.668736108236    -0.724863280194
    F            1.573195372117    -0.892129786560     1.216678935608

gradient() will perform analytic gradient computation.

*** tstart() called on cx1-1-3-2.cx1.hpc.ic.ac.uk
*** at Fri Sep  2 14:05:22 2016


         ---------------------------------------------------------
                                   SCF
            by Justin Turney, Rob Parrish, and Andy Simmonett
                              RHF Reference
                        4 Threads,   2000 MiB Core
         ---------------------------------------------------------

  ==> Geometry <==

    Molecular point group: c1
    Full point group: C1

    Geometry (in Angstrom), charge = 0, multiplicity = 1:

       Center              X                  Y                   Z               Mass       
    ------------   -----------------  -----------------  -----------------  -----------------
           H         -2.646704363161    -0.671670055002     1.238270542876     1.007825032070
           C         -2.078241978035    -0.391737593821     0.373061848754    12.000000000000
           O         -0.811269881316    -0.118936721763     0.769089945711    15.994914619560
           F         -2.082354872944    -1.383154465347    -0.516031045944    18.998403224000
           F         -2.635370403785     0.656075209439    -0.225413431396    18.998403224000
           C          0.092762915240     0.307370725281    -0.188624493126    12.000000000000
           C          1.370139798151    -0.554140269232    -0.032328924558    12.000000000000
          CL          0.369877192173     2.053905943005    -0.029211711377    34.968852682000
           H         -0.321663065733     0.105837910759    -1.159972650415     1.007825032070
           F          2.467744058803     0.040935101787    -0.444336853929    18.998403224000
           F          1.225130751098    -1.668736108236    -0.724863280194    18.998403224000
           F          1.573195372117    -0.892129786560     1.216678935608    18.998403224000

  Running in c1 symmetry.

  Rotational constants: A =      0.05120  B =      0.02983  C =      0.02189 [cm^-1]
  Rotational constants: A =   1535.03243  B =    894.18820  C =    656.12908 [MHz]
  Nuclear repulsion =  734.335205799190817

  Charge       = 0
  Multiplicity = 1
  Electrons    = 90
  Nalpha       = 45
  Nbeta        = 45

  ==> Algorithm <==

  SCF Algorithm Type is DF.
  DIIS enabled.
  MOM disabled.
  Fractional occupation disabled.
  Guess Type is READ.
  Energy threshold   = 1.00e-08
  Density threshold  = 1.00e-08
  Integral threshold = 0.00e+00

  ==> Primary Basis <==

  Basis Set: 6-31G*
    Number of shells: 66
    Number of basis function: 158
    Number of Cartesian functions: 158
    Spherical Harmonics?: false
    Max angular momentum: 2

  ==> Pre-Iterations <==

   -------------------------------------------------------
    Irrep   Nso     Nmo     Nalpha   Nbeta   Ndocc  Nsocc
   -------------------------------------------------------
     A        158     158       0       0       0       0
   -------------------------------------------------------
    Total     158     158      45      45      45       0
   -------------------------------------------------------

 OEINTS: Overlap, kinetic, potential, dipole, and quadrupole integrals
         stored in file 35.

  ==> Integral Setup <==

  ==> DFJK: Density-Fitted J/K Matrices <==

    J tasked:                  Yes
    K tasked:                  Yes
    wK tasked:                  No
    OpenMP threads:              4
    Integrals threads:           4
    Memory (MB):              1430
    Algorithm:                Core
    Integral Cache:           NONE
    Schwarz Cutoff:          1E-12
    Fitting Condition:       1E-12

   => Auxiliary Basis Set <=

  Basis Set: 
    Number of shells: 270
    Number of basis function: 909
    Number of Cartesian functions: 909
    Spherical Harmonics?: false
    Max angular momentum: 3

  Minimum eigenvalue in the overlap matrix is 1.7994962721E-03.
  Using Symmetric Orthogonalization.
  SCF Guess: Reading in previously saved MOs, projecting if necessary.

  Using orbitals from previous SCF, no projection.
  Recomputing DOCC and SOCC from number of alpha and beta electrons from previous calculation.
              A 
    DOCC [    45 ]

  ==> Iterations <==

                           Total Energy        Delta E     RMS |[F,P]|

   @DF-RHF iter   0: -1146.28290366598480   -1.14628e+03   1.42952e-03 
   @DF-RHF iter   1: -1146.30730168463970   -2.43980e-02   2.07691e-04 
   @DF-RHF iter   2: -1146.30818747029844   -8.85786e-04   7.93571e-05 DIIS
   @DF-RHF iter   3: -1146.30831643819215   -1.28968e-04   3.68261e-05 DIIS
   @DF-RHF iter   4: -1146.30833987177061   -2.34336e-05   8.69558e-06 DIIS
   @DF-RHF iter   5: -1146.30834158962375   -1.71785e-06   3.43876e-06 DIIS
   @DF-RHF iter   6: -1146.30834194307067   -3.53447e-07   6.54279e-07 DIIS
   @DF-RHF iter   7: -1146.30834195785019   -1.47795e-08   2.47817e-07 DIIS
   @DF-RHF iter   8: -1146.30834195927218   -1.42199e-09   7.96732e-08 DIIS
   @DF-RHF iter   9: -1146.30834195951297   -2.40789e-10   2.11221e-08 DIIS
   @DF-RHF iter  10: -1146.30834195952912   -1.61435e-11   7.61864e-09 DIIS

  ==> Post-Iterations <==

    Orbital Energies (a.u.)
    -----------------------

    Doubly Occupied:                                                      

       1A   -104.846425     2A    -26.359363     3A    -26.358554  
       4A    -26.353645     5A    -26.346683     6A    -26.346158  
       7A    -20.648139     8A    -11.530202     9A    -11.489394  
      10A    -11.404141    11A    -10.580750    12A     -8.050105  
      13A     -8.046542    14A     -8.046491    15A     -1.761724  
      16A     -1.717738    17A     -1.656348    18A     -1.653022  
      19A     -1.638555    20A     -1.485084    21A     -1.175875  
      22A     -1.050476    23A     -0.986014    24A     -0.919536  
      25A     -0.857860    26A     -0.849559    27A     -0.845805  
      28A     -0.825043    29A     -0.811151    30A     -0.790699  
      31A     -0.725548    32A     -0.722044    33A     -0.704745  
      34A     -0.702590    35A     -0.676865    36A     -0.671260  
      37A     -0.658409    38A     -0.655190    39A     -0.647021  
      40A     -0.633666    41A     -0.597139    42A     -0.578155  
      43A     -0.524166    44A     -0.477143    45A     -0.470114  

    Virtual:                                                              

      46A      0.171042    47A      0.239451    48A      0.257739  
      49A      0.273964    50A      0.347521    51A      0.357344  
      52A      0.400399    53A      0.408746    54A      0.460107  
      55A      0.475383    56A      0.483399    57A      0.545379  
      58A      0.616196    59A      0.625685    60A      0.630720  
      61A      0.669145    62A      0.700884    63A      0.709964  
      64A      0.742518    65A      0.752535    66A      0.765020  
      67A      0.802678    68A      0.847149    69A      0.929426  
      70A      0.963477    71A      0.981925    72A      1.060119  
      73A      1.065046    74A      1.106157    75A      1.130930  
      76A      1.169281    77A      1.212126    78A      1.247808  
      79A      1.283872    80A      1.292820    81A      1.313914  
      82A      1.318452    83A      1.358795    84A      1.401215  
      85A      1.416149    86A      1.428065    87A      1.469541  
      88A      1.516026    89A      1.574176    90A      1.602119  
      91A      1.607401    92A      1.615111    93A      1.636008  
      94A      1.642152    95A      1.657387    96A      1.666985  
      97A      1.667616    98A      1.679132    99A      1.685489  
     100A      1.703210   101A      1.767934   102A      1.794043  
     103A      1.900435   104A      1.936449   105A      1.948241  
     106A      1.973588   107A      1.991856   108A      2.026408  
     109A      2.074204   110A      2.091039   111A      2.096175  
     112A      2.124279   113A      2.130726   114A      2.144014  
     115A      2.151484   116A      2.250788   117A      2.277135  
     118A      2.300920   119A      2.320777   120A      2.323911  
     121A      2.329243   122A      2.371366   123A      2.395241  
     124A      2.414963   125A      2.424467   126A      2.439103  
     127A      2.458838   128A      2.494776   129A      2.560065  
     130A      2.595788   131A      2.639877   132A      2.693081  
     133A      2.720161   134A      2.767110   135A      2.844585  
     136A      2.899691   137A      2.984248   138A      3.032522  
     139A      3.123859   140A      3.157303   141A      3.164436  
     142A      3.277657   143A      3.306739   144A      3.399333  
     145A      3.417860   146A      3.419892   147A      3.437701  
     148A      3.465457   149A      4.325374   150A      4.511198  
     151A      4.591982   152A      4.690260   153A      4.708606  
     154A      4.898064   155A      4.947198   156A      5.188683  
     157A      5.646489   158A      5.830958  

    Final Occupation by Irrep:
              A 
    DOCC [    45 ]

  Energy converged.

  @DF-RHF Final Energy: -1146.30834195952912

   => Energetics <=

    Nuclear Repulsion Energy =            734.3352057991908168
    One-Electron Energy =               -3051.5368255764278729
    Two-Electron Energy =                1170.8932778177086220
    DFT Exchange-Correlation Energy =       0.0000000000000000
    Empirical Dispersion Energy =           0.0000000000000000
    PCM Polarization Energy =               0.0000000000000000
    EFP Energy =                            0.0000000000000000
    Total Energy =                      -1146.3083419595286614

    Alert: EFP and PCM quantities not currently incorporated into SCF psivars.

Properties will be evaluated at   0.000000,   0.000000,   0.000000 Bohr
  ==> Properties <==


Properties computed using the SCF density matrix

  Nuclear Dipole Moment: (a.u.)
     X:    -3.6425      Y:     0.6518      Z:     0.7585

  Electronic Dipole Moment: (a.u.)
     X:     3.0333      Y:    -0.8168      Z:    -0.7246

  Dipole Moment: (a.u.)
     X:    -0.6092      Y:    -0.1650      Z:     0.0339     Total:     0.6320

  Dipole Moment: (Debye)
     X:    -1.5484      Y:    -0.4193      Z:     0.0861     Total:     1.6065


  Saving occupied orbitals to File 180.

*** tstop() called on cx1-1-3-2.cx1.hpc.ic.ac.uk at Fri Sep  2 14:05:28 2016
Module time:
	user time   =      20.70 seconds =       0.35 minutes
	system time =       0.31 seconds =       0.01 minutes
	total time  =          6 seconds =       0.10 minutes
Total time:
	user time   =      75.04 seconds =       1.25 minutes
	system time =       1.07 seconds =       0.02 minutes
	total time  =         22 seconds =       0.37 minutes

*** tstart() called on cx1-1-3-2.cx1.hpc.ic.ac.uk
*** at Fri Sep  2 14:05:28 2016


         ------------------------------------------------------------
                                   SCF GRAD                          
                          Rob Parrish, Justin Turney,                
                       Andy Simmonett, and Alex Sokolov              
         ------------------------------------------------------------

  ==> Geometry <==

    Molecular point group: c1
    Full point group: C1

    Geometry (in Angstrom), charge = 0, multiplicity = 1:

       Center              X                  Y                   Z               Mass       
    ------------   -----------------  -----------------  -----------------  -----------------
           H         -2.646704363161    -0.671670055002     1.238270542876     1.007825032070
           C         -2.078241978035    -0.391737593821     0.373061848754    12.000000000000
           O         -0.811269881316    -0.118936721763     0.769089945711    15.994914619560
           F         -2.082354872944    -1.383154465347    -0.516031045944    18.998403224000
           F         -2.635370403785     0.656075209439    -0.225413431396    18.998403224000
           C          0.092762915240     0.307370725281    -0.188624493126    12.000000000000
           C          1.370139798151    -0.554140269232    -0.032328924558    12.000000000000
          CL          0.369877192173     2.053905943005    -0.029211711377    34.968852682000
           H         -0.321663065733     0.105837910759    -1.159972650415     1.007825032070
           F          2.467744058803     0.040935101787    -0.444336853929    18.998403224000
           F          1.225130751098    -1.668736108236    -0.724863280194    18.998403224000
           F          1.573195372117    -0.892129786560     1.216678935608    18.998403224000

  Nuclear repulsion =  734.335205799190817

  ==> Basis Set <==

  Basis Set: 6-31G*
    Number of shells: 66
    Number of basis function: 158
    Number of Cartesian functions: 158
    Spherical Harmonics?: false
    Max angular momentum: 2

  ==> DFJKGrad: Density-Fitted SCF Gradients <==

    Gradient:                    1
    J tasked:                  Yes
    K tasked:                  Yes
    wK tasked:                  No
    OpenMP threads:              4
    Integrals threads:           4
    Memory (MB):              1430
    Schwarz Cutoff:          0E+00
    Fitting Condition:       1E-12

   => Auxiliary Basis Set <=

  Basis Set: 
    Number of shells: 270
    Number of basis function: 909
    Number of Cartesian functions: 909
    Spherical Harmonics?: false
    Max angular momentum: 3


  -Total Gradient:
     Atom            X                  Y                   Z
    ------   -----------------  -----------------  -----------------
       1       -0.000188524972    -0.000227584770    -0.000127467421
       2       -0.000115732804     0.000717730190    -0.000531806499
       3       -0.001256789878     0.001501157068    -0.004787056671
       4        0.000125658576     0.000187152813     0.000621632972
       5       -0.001269587463    -0.000031523131    -0.000208055907
       6        0.004857051064     0.006306707263     0.004303356784
       7       -0.005301136301    -0.001690757573    -0.007909173506
       8       -0.003607940869     0.006599784614     0.000381067463
       9       -0.006626414847    -0.006213082656     0.004804718907
      10        0.006606911249    -0.003377446399     0.007464085957
      11        0.003698667024    -0.002759964867     0.001992861137
      12        0.003077839228    -0.001012172594    -0.006004163211


*** tstop() called on cx1-1-3-2.cx1.hpc.ic.ac.uk at Fri Sep  2 14:05:36 2016
Module time:
	user time   =      26.89 seconds =       0.45 minutes
	system time =       0.29 seconds =       0.00 minutes
	total time  =          8 seconds =       0.13 minutes
Total time:
	user time   =     101.95 seconds =       1.70 minutes
	system time =       1.36 seconds =       0.02 minutes
	total time  =         30 seconds =       0.50 minutes
CURRENT ENERGY: -1146.3083419595

			-----------------------------------------
			 OPTKING 2.0: for geometry optimizations 
			  - R.A. King,  Bethel University        
			-----------------------------------------

	Previous internal coordinate definitions found.
	---Fragment 1 Geometry and Gradient---
	 H          -5.0015464011       -1.2692724556        2.3399922045
	 C          -3.9273081764       -0.7402767683        0.7049847248
	 O          -1.5330778955       -0.2247578313        1.4533693689
	 F          -3.9350804213       -2.6137831390       -0.9751573529
	 F          -4.9801283219        1.2398024684       -0.4259696520
	 C           0.1752965051        0.5808464920       -0.3564486340
	 C           2.5891889823       -1.0471733481       -0.0610928136
	 CL          0.6989665960        3.8813197350       -0.0552021344
	 H          -0.6078551013        0.2000046658       -2.1920306309
	 F           4.6633604372        0.0773561316       -0.8396749647
	 F           2.3151615966       -3.1534542326       -1.3697930834
	 F           2.9729084068       -1.6858809716        2.2991899799
	            -0.0001885250       -0.0002275848       -0.0001274674
	            -0.0001157328        0.0007177302       -0.0005318065
	            -0.0012567899        0.0015011571       -0.0047870567
	             0.0001256586        0.0001871528        0.0006216330
	            -0.0012695875       -0.0000315231       -0.0002080559
	             0.0048570511        0.0063067073        0.0043033568
	            -0.0053011363       -0.0016907576       -0.0079091735
	            -0.0036079409        0.0065997846        0.0003810675
	            -0.0066264148       -0.0062130827        0.0048047189
	             0.0066069112       -0.0033774464        0.0074640860
	             0.0036986670       -0.0027599649        0.0019928611
	             0.0030778392       -0.0010121726       -0.0060041632

	---Fragment 1 Intrafragment Coordinates---
	 - Coordinate -           - BOHR/RAD -       - ANG/DEG -
	 R(1,2)           =         2.026592	       1.072426
	 R(2,3)           =         2.560894	       1.355167
	 R(2,4)           =         2.516538	       1.331695
	 R(2,5)           =         2.511613	       1.329089
	 R(3,6)           =         2.615910	       1.384280
	 R(6,7)           =         2.926527	       1.548652
	 R(6,8)           =         3.355310	       1.775554
	 R(6,9)           =         2.031681	       1.075119
	 R(7,10)          =         2.484541	       1.314763
	 R(7,11)          =         2.494836	       1.320210
	 R(7,12)          =         2.475101	       1.309767
	 B(1,2,3)         =         1.888463	     108.200973
	 B(1,2,4)         =         1.920555	     110.039671
	 B(1,2,5)         =         1.925032	     110.296220
	 B(2,3,6)         =         2.060517	     118.058955
	 B(3,2,4)         =         1.926086	     110.356621
	 B(3,2,5)         =         1.944203	     111.394602
	 B(3,6,7)         =         1.872901	     107.309327
	 B(3,6,8)         =         1.920629	     110.043938
	 B(3,6,9)         =         1.891891	     108.397356
	 B(4,2,5)         =         1.859800	     106.558674
	 B(6,7,10)        =         1.987975	     113.902554
	 B(6,7,11)        =         1.902992	     109.033387
	 B(6,7,12)        =         1.947300	     111.572082
	 B(7,6,8)         =         1.992605	     114.167875
	 B(7,6,9)         =         1.880579	     107.749217
	 B(8,6,9)         =         1.902512	     109.005886
	 B(10,7,11)       =         1.885392	     108.025032
	 B(10,7,12)       =         1.861061	     106.630942
	 B(11,7,12)       =         1.874855	     107.421265
	 D(1,2,3,6)       =        -3.106876	    -178.010856
	 D(2,3,6,7)       =        -2.280074	    -130.638596
	 D(2,3,6,8)       =         1.825589	     104.598540
	 D(2,3,6,9)       =        -0.253495	     -14.524173
	 D(3,6,7,10)      =        -2.678349	    -153.458122
	 D(3,6,7,11)      =         1.497777	      85.816301
	 D(3,6,7,12)      =        -0.570209	     -32.670553
	 D(4,2,3,6)       =         1.074109	      61.541892
	 D(5,2,3,6)       =        -0.988072	     -56.612332
	 D(8,6,7,10)      =        -0.545013	     -31.226954
	 D(8,6,7,11)      =        -2.652072	    -151.952531
	 D(8,6,7,12)      =         1.563128	      89.560616
	*D(9,6,7,10)      =         1.570797	      90.000023
	 D(9,6,7,11)      =        -0.536262	     -30.725555
	 D(9,6,7,12)      =        -2.604248	    -149.212408
	 R(5,8)           =         6.274329	       3.320232

	Current energy   :     -1146.3083419595

	Energy change for the previous step:
		Projected    :         0.0038869834
		Actual       :        -0.0003240699

	Performing BFGS update.
	Previous computed or guess Hessian on step 1.
	Steps to be used in Hessian update: 1
	Taking RFO optimization step.
	Going to follow RFO solution 1.
	Using RFO vector 1.
	Norm of target step-size    0.08026
	Projected energy change by RFO approximation:        -0.0018126331

	Back-transformation to cartesian coordinates...
	Successfully converged to displaced geometry.

	Back-transformation to cartesian coordinates to adjust frozen coordinates...
	Successfully converged to displaced geometry.

	--- Internal Coordinate Step in ANG or DEG, aJ/ANG or AJ/DEG ---
	 ---------------------------------------------------------------------------
	   Coordinate                Previous        Force       Change         New 
	   ----------                --------       ------       ------       ------
	    1 R(1,2)          =      1.072426    -0.000465    -0.000046     1.072380
	    2 R(2,3)          =      1.355167    -0.014651    -0.000817     1.354350
	    3 R(2,4)          =      1.331695     0.004570     0.000297     1.331992
	    4 R(2,5)          =      1.329089    -0.005262    -0.000307     1.328782
	    5 R(3,6)          =      1.384280     0.016729     0.001434     1.385713
	    6 R(6,7)          =      1.548652    -0.091735    -0.009850     1.538801
	    7 R(6,8)          =      1.775554    -0.051479    -0.006160     1.769393
	    8 R(6,9)          =      1.075119     0.005125     0.000469     1.075589
	    9 R(7,10)         =      1.314763    -0.013577    -0.000848     1.313914
	   10 R(7,11)         =      1.320210    -0.007238    -0.000327     1.319883
	   11 R(7,12)         =      1.309767     0.041089     0.002287     1.312054
	   12 B(1,2,3)        =    108.200973     0.000025     0.035376   108.236349
	   13 B(1,2,4)        =    110.039671     0.000043     0.158259   110.197930
	   14 B(1,2,5)        =    110.296220     0.000081     0.104735   110.400955
	   15 B(2,3,6)        =    118.058955    -0.000173    -0.194553   117.864402
	   16 B(3,2,4)        =    110.356621     0.000069     0.087827   110.444448
	   17 B(3,2,5)        =    111.394602    -0.000250    -0.368835   111.025767
	   18 B(3,6,7)        =    107.309327    -0.000347    -0.780223   106.529103
	   19 B(3,6,8)        =    110.043938     0.000357     0.352271   110.396209
	   20 B(3,6,9)        =    108.397356     0.000261     1.367560   109.764916
	   21 B(4,2,5)        =    106.558674     0.000035    -0.013562   106.545113
	   22 B(6,7,10)       =    113.902554    -0.000888    -1.479065   112.423490
	   23 B(6,7,11)       =    109.033387    -0.000328    -0.528166   108.505221
	   24 B(6,7,12)       =    111.572082    -0.000319    -0.461656   111.110425
	   25 B(7,6,8)        =    114.167875    -0.000486    -1.430618   112.737257
	   26 B(7,6,9)        =    107.749217     0.000098     0.174402   107.923619
	   27 B(8,6,9)        =    109.005886     0.000143     0.401714   109.407600
	   28 B(10,7,11)      =    108.025032     0.000614     0.797324   108.822356
	   29 B(10,7,12)      =    106.630942     0.000591     0.858644   107.489586
	   30 B(11,7,12)      =    107.421265     0.000447     0.972957   108.394222
	   31 D(1,2,3,6)      =   -178.010856     0.000013     0.287027  -177.723828
	   32 D(2,3,6,7)      =   -130.638596    -0.000059    -1.464273  -132.102869
	   33 D(2,3,6,8)      =    104.598540     0.000080     0.582424   105.180963
	   34 D(2,3,6,9)      =    -14.524173    -0.000044    -0.979450   -15.503624
	   35 D(3,6,7,10)     =   -153.458122     0.000040     1.279670  -152.178452
	   36 D(3,6,7,11)     =     85.816301     0.000050     1.596339    87.412640
	   37 D(3,6,7,12)     =    -32.670553     0.000016     1.010685   -31.659868
	   38 D(4,2,3,6)      =     61.541892    -0.000012     0.018100    61.559992
	   39 D(5,2,3,6)      =    -56.612332     0.000004     0.210662   -56.401670
	   40 D(8,6,7,10)     =    -31.226954     0.000014     0.282293   -30.944661
	   41 D(8,6,7,11)     =   -151.952531     0.000024     0.598961  -151.353570
	   42 D(8,6,7,12)     =     89.560616    -0.000011     0.013308    89.573923
	   43 *D(9,6,7,10)    =     90.000023    -0.000000     0.000000    90.000023
	   44 D(9,6,7,11)     =    -30.725555     0.000009     0.316669   -30.408886
	   45 D(9,6,7,12)     =   -149.212408    -0.000025    -0.268985  -149.481393
	   46 R(5,8)          =      3.320232     0.004193     0.000343     3.320575
	 ---------------------------------------------------------------------------

  ==> Convergence Check <==

  Measures of convergence in internal coordinates in au.
  Criteria marked as inactive (o), active & met (*), and active & unmet ( ).
  ---------------------------------------------------------------------------------------------
   Step     Total Energy     Delta E     MAX Force     RMS Force      MAX Disp      RMS Disp   
  ---------------------------------------------------------------------------------------------
    Convergence Criteria    1.00e-06 *    3.00e-04 *             o    1.20e-03 *             o
  ---------------------------------------------------------------------------------------------
      2   -1146.30834196   -3.24e-04      1.17e-02      3.93e-03 o    2.79e-02      1.18e-02 o  ~
  ---------------------------------------------------------------------------------------------

	Writing optimization data to binary file.
	Structure for next step:
	Cartesian Geometry (in Angstrom)
	    H    -2.6386977225  -0.6723684531   1.2480109788
	    C    -2.0751145217  -0.3948753519   0.3788899305
	    O    -0.8036281233  -0.1321486347   0.7643248527
	    F    -2.0955427714  -1.3807453752  -0.5165679656
	    F    -2.6229079755   0.6627597520  -0.2101696466
	    C     0.0912621726   0.2953872722  -0.2034488684
	    C     1.3630816692  -0.5531381166  -0.0291222026
	   CL     0.3981592057   2.0299316516  -0.0363466400
	    H    -0.3083034028   0.0957623154  -1.1819109255
	    F     2.4444928455   0.0765468023  -0.4296435485
	    F     1.2284213182  -1.6598376883  -0.7356446331
	    F     1.5420225632  -0.8836544755   1.2279475715
			--------------------------
			 OPTKING Finished Execution 
			--------------------------

    Structure for next step:
    Molecular point group: c1
    Full point group: C1

    Geometry (in Angstrom), charge = 0, multiplicity = 1:

    H           -2.639145082700    -0.672093572193     1.247139399216
    C           -2.075561924917    -0.394600492130     0.378018417256
    O           -0.804075623598    -0.131873795065     0.763453310108
    F           -2.095990173032    -1.380470440211    -0.517439410443
    F           -2.623355336909     0.663034530994    -0.211041114813
    C            0.090814603963     0.295662079200    -0.204320337184
    C            1.362634003396    -0.552863244801    -0.029993684610
    CL           0.397711613579     2.030206326132    -0.037218121490
    H           -0.308750940901     0.096037137672    -1.182782319553
    F            2.444045097144     0.076821625988    -0.430514999987
    F            1.227973662719    -1.659562731958    -0.736516061236
    F            1.541574883802    -0.883379578461     1.227075993479

gradient() will perform analytic gradient computation.

*** tstart() called on cx1-1-3-2.cx1.hpc.ic.ac.uk
*** at Fri Sep  2 14:05:36 2016


         ---------------------------------------------------------
                                   SCF
            by Justin Turney, Rob Parrish, and Andy Simmonett
                              RHF Reference
                        4 Threads,   2000 MiB Core
         ---------------------------------------------------------

  ==> Geometry <==

    Molecular point group: c1
    Full point group: C1

    Geometry (in Angstrom), charge = 0, multiplicity = 1:

       Center              X                  Y                   Z               Mass       
    ------------   -----------------  -----------------  -----------------  -----------------
           H         -2.639145082700    -0.672093572193     1.247139399216     1.007825032070
           C         -2.075561924917    -0.394600492130     0.378018417256    12.000000000000
           O         -0.804075623598    -0.131873795065     0.763453310108    15.994914619560
           F         -2.095990173032    -1.380470440211    -0.517439410443    18.998403224000
           F         -2.623355336909     0.663034530994    -0.211041114813    18.998403224000
           C          0.090814603963     0.295662079200    -0.204320337184    12.000000000000
           C          1.362634003396    -0.552863244801    -0.029993684610    12.000000000000
          CL          0.397711613579     2.030206326132    -0.037218121490    34.968852682000
           H         -0.308750940901     0.096037137672    -1.182782319553     1.007825032070
           F          2.444045097144     0.076821625988    -0.430514999987    18.998403224000
           F          1.227973662719    -1.659562731958    -0.736516061236    18.998403224000
           F          1.541574883802    -0.883379578461     1.227075993479    18.998403224000

  Running in c1 symmetry.

  Rotational constants: A =      0.05172  B =      0.03002  C =      0.02212 [cm^-1]
  Rotational constants: A =   1550.42845  B =    900.03410  C =    663.15666 [MHz]
  Nuclear repulsion =  736.718728518066541

  Charge       = 0
  Multiplicity = 1
  Electrons    = 90
  Nalpha       = 45
  Nbeta        = 45

  ==> Algorithm <==

  SCF Algorithm Type is DF.
  DIIS enabled.
  MOM disabled.
  Fractional occupation disabled.
  Guess Type is READ.
  Energy threshold   = 1.00e-08
  Density threshold  = 1.00e-08
  Integral threshold = 0.00e+00

  ==> Primary Basis <==

  Basis Set: 6-31G*
    Number of shells: 66
    Number of basis function: 158
    Number of Cartesian functions: 158
    Spherical Harmonics?: false
    Max angular momentum: 2

  ==> Pre-Iterations <==

   -------------------------------------------------------
    Irrep   Nso     Nmo     Nalpha   Nbeta   Ndocc  Nsocc
   -------------------------------------------------------
     A        158     158       0       0       0       0
   -------------------------------------------------------
    Total     158     158      45      45      45       0
   -------------------------------------------------------

 OEINTS: Overlap, kinetic, potential, dipole, and quadrupole integrals
         stored in file 35.

  ==> Integral Setup <==

  ==> DFJK: Density-Fitted J/K Matrices <==

    J tasked:                  Yes
    K tasked:                  Yes
    wK tasked:                  No
    OpenMP threads:              4
    Integrals threads:           4
    Memory (MB):              1430
    Algorithm:                Core
    Integral Cache:           NONE
    Schwarz Cutoff:          1E-12
    Fitting Condition:       1E-12

   => Auxiliary Basis Set <=

  Basis Set: 
    Number of shells: 270
    Number of basis function: 909
    Number of Cartesian functions: 909
    Spherical Harmonics?: false
    Max angular momentum: 3

  Minimum eigenvalue in the overlap matrix is 1.7603382013E-03.
  Using Symmetric Orthogonalization.
  SCF Guess: Reading in previously saved MOs, projecting if necessary.

  Using orbitals from previous SCF, no projection.
  Recomputing DOCC and SOCC from number of alpha and beta electrons from previous calculation.
              A 
    DOCC [    45 ]

  ==> Iterations <==

                           Total Energy        Delta E     RMS |[F,P]|

   @DF-RHF iter   0: -1146.31606000242891   -1.14632e+03   5.24396e-04 
   @DF-RHF iter   1: -1146.30913369495329    6.92631e-03   7.13242e-05 
   @DF-RHF iter   2: -1146.30924728586206   -1.13591e-04   2.83683e-05 DIIS
   @DF-RHF iter   3: -1146.30926686563089   -1.95798e-05   1.34337e-05 DIIS
   @DF-RHF iter   4: -1146.30926967284358   -2.80721e-06   2.61748e-06 DIIS
   @DF-RHF iter   5: -1146.30926988618285   -2.13339e-07   7.78475e-07 DIIS
   @DF-RHF iter   6: -1146.30926990510670   -1.89239e-08   2.49616e-07 DIIS
   @DF-RHF iter   7: -1146.30926990697662   -1.86992e-09   8.67844e-08 DIIS
   @DF-RHF iter   8: -1146.30926990724856   -2.71939e-10   2.71834e-08 DIIS
   @DF-RHF iter   9: -1146.30926990727494   -2.63753e-11   8.42964e-09 DIIS

  ==> Post-Iterations <==

    Orbital Energies (a.u.)
    -----------------------

    Doubly Occupied:                                                      

       1A   -104.844508     2A    -26.360900     3A    -26.359146  
       4A    -26.354639     5A    -26.345724     6A    -26.345651  
       7A    -20.647179     8A    -11.528871     9A    -11.488467  
      10A    -11.400959    11A    -10.579073    12A     -8.048436  
      13A     -8.044866    14A     -8.044822    15A     -1.760771  
      16A     -1.717151    17A     -1.658255    18A     -1.654226  
      19A     -1.637891    20A     -1.483986    21A     -1.177491  
      22A     -1.050695    23A     -0.985505    24A     -0.918512  
      25A     -0.858065    26A     -0.850134    27A     -0.846629  
      28A     -0.823797    29A     -0.810586    30A     -0.790316  
      31A     -0.726428    32A     -0.722406    33A     -0.704741  
      34A     -0.701995    35A     -0.679148    36A     -0.673134  
      37A     -0.658107    38A     -0.656833    39A     -0.645885  
      40A     -0.631119    41A     -0.596399    42A     -0.578853  
      43A     -0.523277    44A     -0.475807    45A     -0.469072  

    Virtual:                                                              

      46A      0.175102    47A      0.241070    48A      0.258803  
      49A      0.275062    50A      0.349220    51A      0.358742  
      52A      0.405886    53A      0.413221    54A      0.451656  
      55A      0.473688    56A      0.483428    57A      0.547960  
      58A      0.618305    59A      0.627607    60A      0.635272  
      61A      0.668639    62A      0.701305    63A      0.710144  
      64A      0.743588    65A      0.754829    66A      0.764734  
      67A      0.801488    68A      0.847749    69A      0.929008  
      70A      0.964653    71A      0.980996    72A      1.060210  
      73A      1.065650    74A      1.106079    75A      1.131587  
      76A      1.170847    77A      1.211309    78A      1.250853  
      79A      1.284224    80A      1.293424    81A      1.313877  
      82A      1.318393    83A      1.362630    84A      1.401112  
      85A      1.418371    86A      1.429745    87A      1.469967  
      88A      1.516750    89A      1.579724    90A      1.600338  
      91A      1.609534    92A      1.615590    93A      1.635726  
      94A      1.643343    95A      1.654899    96A      1.664769  
      97A      1.668325    98A      1.679859    99A      1.687464  
     100A      1.712753   101A      1.770387   102A      1.796181  
     103A      1.910205   104A      1.946519   105A      1.956376  
     106A      1.979538   107A      1.994579   108A      2.031548  
     109A      2.080456   110A      2.091821   111A      2.096702  
     112A      2.125203   113A      2.126933   114A      2.148452  
     115A      2.156081   116A      2.255707   117A      2.294124  
     118A      2.300982   119A      2.315342   120A      2.329244  
     121A      2.329811   122A      2.370322   123A      2.395360  
     124A      2.397436   125A      2.410180   126A      2.429079  
     127A      2.453332   128A      2.496557   129A      2.564041  
     130A      2.596927   131A      2.643177   132A      2.698232  
     133A      2.726779   134A      2.772423   135A      2.860335  
     136A      2.903348   137A      2.989334   138A      3.036452  
     139A      3.124833   140A      3.166604   141A      3.170320  
     142A      3.280762   143A      3.308544   144A      3.399992  
     145A      3.415154   146A      3.421573   147A      3.440325  
     148A      3.467819   149A      4.329511   150A      4.518924  
     151A      4.595050   152A      4.696193   153A      4.711002  
     154A      4.908374   155A      4.960315   156A      5.211001  
     157A      5.657874   158A      5.820282  

    Final Occupation by Irrep:
              A 
    DOCC [    45 ]

  Energy converged.

  @DF-RHF Final Energy: -1146.30926990727494

   => Energetics <=

    Nuclear Repulsion Energy =            736.7187285180665413
    One-Electron Energy =               -3056.3350853302308678
    Two-Electron Energy =                1173.3070869048890472
    DFT Exchange-Correlation Energy =       0.0000000000000000
    Empirical Dispersion Energy =           0.0000000000000000
    PCM Polarization Energy =               0.0000000000000000
    EFP Energy =                            0.0000000000000000
    Total Energy =                      -1146.3092699072751657

    Alert: EFP and PCM quantities not currently incorporated into SCF psivars.

Properties will be evaluated at   0.000000,   0.000000,   0.000000 Bohr
  ==> Properties <==


Properties computed using the SCF density matrix

  Nuclear Dipole Moment: (a.u.)
     X:    -3.5978      Y:     0.6040      Z:     0.7286

  Electronic Dipole Moment: (a.u.)
     X:     3.0128      Y:    -0.7987      Z:    -0.7015

  Dipole Moment: (a.u.)
     X:    -0.5850      Y:    -0.1947      Z:     0.0272     Total:     0.6171

  Dipole Moment: (Debye)
     X:    -1.4869      Y:    -0.4949      Z:     0.0691     Total:     1.5686


  Saving occupied orbitals to File 180.

*** tstop() called on cx1-1-3-2.cx1.hpc.ic.ac.uk at Fri Sep  2 14:05:42 2016
Module time:
	user time   =      20.09 seconds =       0.33 minutes
	system time =       0.30 seconds =       0.01 minutes
	total time  =          6 seconds =       0.10 minutes
Total time:
	user time   =     122.58 seconds =       2.04 minutes
	system time =       1.68 seconds =       0.03 minutes
	total time  =         36 seconds =       0.60 minutes

*** tstart() called on cx1-1-3-2.cx1.hpc.ic.ac.uk
*** at Fri Sep  2 14:05:42 2016


         ------------------------------------------------------------
                                   SCF GRAD                          
                          Rob Parrish, Justin Turney,                
                       Andy Simmonett, and Alex Sokolov              
         ------------------------------------------------------------

  ==> Geometry <==

    Molecular point group: c1
    Full point group: C1

    Geometry (in Angstrom), charge = 0, multiplicity = 1:

       Center              X                  Y                   Z               Mass       
    ------------   -----------------  -----------------  -----------------  -----------------
           H         -2.639145082700    -0.672093572193     1.247139399216     1.007825032070
           C         -2.075561924917    -0.394600492130     0.378018417256    12.000000000000
           O         -0.804075623598    -0.131873795065     0.763453310108    15.994914619560
           F         -2.095990173032    -1.380470440211    -0.517439410443    18.998403224000
           F         -2.623355336909     0.663034530994    -0.211041114813    18.998403224000
           C          0.090814603963     0.295662079200    -0.204320337184    12.000000000000
           C          1.362634003396    -0.552863244801    -0.029993684610    12.000000000000
          CL          0.397711613579     2.030206326132    -0.037218121490    34.968852682000
           H         -0.308750940901     0.096037137672    -1.182782319553     1.007825032070
           F          2.444045097144     0.076821625988    -0.430514999987    18.998403224000
           F          1.227973662719    -1.659562731958    -0.736516061236    18.998403224000
           F          1.541574883802    -0.883379578461     1.227075993479    18.998403224000

  Nuclear repulsion =  736.718728518066541

  ==> Basis Set <==

  Basis Set: 6-31G*
    Number of shells: 66
    Number of basis function: 158
    Number of Cartesian functions: 158
    Spherical Harmonics?: false
    Max angular momentum: 2

  ==> DFJKGrad: Density-Fitted SCF Gradients <==

    Gradient:                    1
    J tasked:                  Yes
    K tasked:                  Yes
    wK tasked:                  No
    OpenMP threads:              4
    Integrals threads:           4
    Memory (MB):              1430
    Schwarz Cutoff:          0E+00
    Fitting Condition:       1E-12

   => Auxiliary Basis Set <=

  Basis Set: 
    Number of shells: 270
    Number of basis function: 909
    Number of Cartesian functions: 909
    Spherical Harmonics?: false
    Max angular momentum: 3


  -Total Gradient:
     Atom            X                  Y                   Z
    ------   -----------------  -----------------  -----------------
       1        0.000124806485     0.000123943697     0.000092317479
       2       -0.000800669558    -0.000560809379    -0.000211932284
       3        0.001281986471     0.000899133319    -0.001037895339
       4        0.000212701947     0.000224373208     0.000053133265
       5        0.000215069950    -0.000169959121     0.000134736009
       6        0.003978664304     0.006088960943    -0.000252677021
       7       -0.000830627072    -0.005709126631    -0.006596742388
       8       -0.000372712230     0.001965439485     0.000324040933
       9       -0.003990425498    -0.005791096269     0.002875517175
      10        0.002072863519     0.003058178917     0.005818108698
      11       -0.001036993248    -0.001067396294    -0.000884804309
      12       -0.000854665051     0.000938358056    -0.000313802217


*** tstop() called on cx1-1-3-2.cx1.hpc.ic.ac.uk at Fri Sep  2 14:05:49 2016
Module time:
	user time   =      26.62 seconds =       0.44 minutes
	system time =       0.28 seconds =       0.00 minutes
	total time  =          7 seconds =       0.12 minutes
Total time:
	user time   =     149.21 seconds =       2.49 minutes
	system time =       1.96 seconds =       0.03 minutes
	total time  =         43 seconds =       0.72 minutes
CURRENT ENERGY: -1146.3092699073

			-----------------------------------------
			 OPTKING 2.0: for geometry optimizations 
			  - R.A. King,  Bethel University        
			-----------------------------------------

	Previous internal coordinate definitions found.
	---Fragment 1 Geometry and Gradient---
	 H          -4.9872614313       -1.2700727871        2.3567519140
	 C          -3.9222436099       -0.7456868620        0.7143512818
	 O          -1.5194827187       -0.2492053568        1.4427176713
	 F          -3.9608474043       -2.6087110665       -0.9778187761
	 F          -4.9574231360        1.2529536802       -0.3988099098
	 C           0.1716147304        0.5587203576       -0.3861094807
	 C           2.5750050858       -1.0447601216       -0.0566798496
	 CL          0.7515660295        3.8365339496       -0.0703320568
	 H          -0.5834547216        0.1814838888       -2.2351346588
	 F           4.6185758900        0.1451718342       -0.8135554461
	 F           2.3205339209       -3.1361190637       -1.3918136482
	 F           2.9131543437       -1.6693454747        2.3188375719
	             0.0001248065        0.0001239437        0.0000923175
	            -0.0008006696       -0.0005608094       -0.0002119323
	             0.0012819865        0.0008991333       -0.0010378953
	             0.0002127019        0.0002243732        0.0000531333
	             0.0002150699       -0.0001699591        0.0001347360
	             0.0039786643        0.0060889609       -0.0002526770
	            -0.0008306271       -0.0057091266       -0.0065967424
	            -0.0003727122        0.0019654395        0.0003240409
	            -0.0039904255       -0.0057910963        0.0028755172
	             0.0020728635        0.0030581789        0.0058181087
	            -0.0010369932       -0.0010673963       -0.0008848043
	            -0.0008546651        0.0009383581       -0.0003138022

	---Fragment 1 Intrafragment Coordinates---
	 - Coordinate -           - BOHR/RAD -       - ANG/DEG -
	 R(1,2)           =         2.026505	       1.072380
	 R(2,3)           =         2.559350	       1.354350
	 R(2,4)           =         2.517099	       1.331992
	 R(2,5)           =         2.511033	       1.328782
	 R(3,6)           =         2.618619	       1.385713
	 R(6,7)           =         2.907913	       1.538801
	 R(6,8)           =         3.343669	       1.769393
	 R(6,9)           =         2.032568	       1.075589
	 R(7,10)          =         2.482938	       1.313914
	 R(7,11)          =         2.494217	       1.319883
	 R(7,12)          =         2.479422	       1.312054
	 B(1,2,3)         =         1.889081	     108.236349
	 B(1,2,4)         =         1.923317	     110.197930
	 B(1,2,5)         =         1.926860	     110.400955
	 B(2,3,6)         =         2.057122	     117.864402
	 B(3,2,4)         =         1.927619	     110.444448
	 B(3,2,5)         =         1.937765	     111.025767
	 B(3,6,7)         =         1.859284	     106.529103
	 B(3,6,8)         =         1.926777	     110.396209
	 B(3,6,9)         =         1.915759	     109.764916
	 B(4,2,5)         =         1.859563	     106.545113
	 B(6,7,10)        =         1.962160	     112.423490
	 B(6,7,11)        =         1.893773	     108.505221
	 B(6,7,12)        =         1.939243	     111.110425
	 B(7,6,8)         =         1.967636	     112.737257
	 B(7,6,9)         =         1.883622	     107.923619
	 B(8,6,9)         =         1.909523	     109.407600
	 B(10,7,11)       =         1.899308	     108.822356
	 B(10,7,12)       =         1.876047	     107.489586
	 B(11,7,12)       =         1.891836	     108.394222
	 D(1,2,3,6)       =        -3.101866	    -177.723828
	 D(2,3,6,7)       =        -2.305630	    -132.102869
	 D(2,3,6,8)       =         1.835754	     105.180963
	 D(2,3,6,9)       =        -0.270589	     -15.503624
	 D(3,6,7,10)      =        -2.656015	    -152.178452
	 D(3,6,7,11)      =         1.525638	      87.412640
	 D(3,6,7,12)      =        -0.552569	     -31.659868
	 D(4,2,3,6)       =         1.074425	      61.559992
	 D(5,2,3,6)       =        -0.984395	     -56.401670
	 D(8,6,7,10)      =        -0.540086	     -30.944661
	 D(8,6,7,11)      =        -2.641618	    -151.353570
	 D(8,6,7,12)      =         1.563360	      89.573923
	*D(9,6,7,10)      =         1.570797	      90.000023
	 D(9,6,7,11)      =        -0.530735	     -30.408886
	 D(9,6,7,12)      =        -2.608942	    -149.481393
	 R(5,8)           =         6.274977	       3.320575

	Current energy   :     -1146.3092699073

	Energy change for the previous step:
		Projected    :        -0.0018126331
		Actual       :        -0.0009279477

	Performing BFGS update.
	Previous computed or guess Hessian on step 1.
	Steps to be used in Hessian update: 2 1
	Taking RFO optimization step.
	Going to follow RFO solution 1.
	Using RFO vector 1.
	Norm of target step-size    0.03100
	Projected energy change by RFO approximation:        -0.0000346291

	Back-transformation to cartesian coordinates...
	Successfully converged to displaced geometry.

	Back-transformation to cartesian coordinates to adjust frozen coordinates...
	Successfully converged to displaced geometry.

	--- Internal Coordinate Step in ANG or DEG, aJ/ANG or AJ/DEG ---
	 ---------------------------------------------------------------------------
	   Coordinate                Previous        Force       Change         New 
	   ----------                --------       ------       ------       ------
	    1 R(1,2)          =      1.072380     0.000188     0.000027     1.072408
	    2 R(2,3)          =      1.354350    -0.002674    -0.000106     1.354244
	    3 R(2,4)          =      1.331992     0.001689     0.000188     1.332180
	    4 R(2,5)          =      1.328782     0.002314     0.000226     1.329008
	    5 R(3,6)          =      1.385713     0.012176     0.001681     1.387394
	    6 R(6,7)          =      1.538801    -0.006362    -0.000468     1.538334
	    7 R(6,8)          =      1.769393    -0.015775    -0.002980     1.766413
	    8 R(6,9)          =      1.075589     0.000483     0.000055     1.075643
	    9 R(7,10)         =      1.313914    -0.011519    -0.001132     1.312782
	   10 R(7,11)         =      1.319883    -0.012147    -0.001032     1.318851
	   11 R(7,12)         =      1.312054     0.005385     0.000520     1.312574
	   12 B(1,2,3)        =    108.236349     0.000010     0.011503   108.247852
	   13 B(1,2,4)        =    110.197930    -0.000024    -0.130091   110.067839
	   14 B(1,2,5)        =    110.400955    -0.000008    -0.053796   110.347160
	   15 B(2,3,6)        =    117.864402    -0.000036     0.003698   117.868100
	   16 B(3,2,4)        =    110.444448     0.000022     0.049689   110.494137
	   17 B(3,2,5)        =    111.025767     0.000007     0.134667   111.160434
	   18 B(3,6,7)        =    106.529103     0.000064     0.167845   106.696948
	   19 B(3,6,8)        =    110.396209     0.000033     0.133678   110.529887
	   20 B(3,6,9)        =    109.764916    -0.000043    -0.096149   109.668768
	   21 B(4,2,5)        =    106.545113    -0.000007    -0.014735   106.530378
	   22 B(6,7,10)       =    112.423490    -0.000072    -0.137052   112.286437
	   23 B(6,7,11)       =    108.505221     0.000099     0.221122   108.726343
	   24 B(6,7,12)       =    111.110425     0.000138     0.408944   111.519369
	   25 B(7,6,8)        =    112.737257    -0.000118    -0.403563   112.333693
	   26 B(7,6,9)        =    107.923619     0.000037     0.158276   108.081896
	   27 B(8,6,9)        =    109.407600     0.000027     0.043491   109.451091
	   28 B(10,7,11)      =    108.822356    -0.000036    -0.238509   108.583847
	   29 B(10,7,12)      =    107.489586    -0.000041    -0.101285   107.388301
	   30 B(11,7,12)      =    108.394222    -0.000095    -0.174528   108.219694
	   31 D(1,2,3,6)      =   -177.723828    -0.000000     0.010562  -177.713267
	   32 D(2,3,6,7)      =   -132.102869    -0.000015    -0.891328  -132.994197
	   33 D(2,3,6,8)      =    105.180963     0.000004    -0.584176   104.596787
	   34 D(2,3,6,9)      =    -15.503624    -0.000002    -0.661433   -16.165056
	   35 D(3,6,7,10)     =   -152.178452     0.000001     0.056408  -152.122044
	   36 D(3,6,7,11)     =     87.412640     0.000006     0.292485    87.705125
	   37 D(3,6,7,12)     =    -31.659868    -0.000001     0.120281   -31.539586
	   38 D(4,2,3,6)      =     61.559992     0.000002     0.132866    61.692858
	   39 D(5,2,3,6)      =    -56.401670    -0.000000     0.035025   -56.366645
	   40 D(8,6,7,10)     =    -30.944661     0.000003     0.091322   -30.853339
	   41 D(8,6,7,11)     =   -151.353570     0.000009     0.327399  -151.026170
	   42 D(8,6,7,12)     =     89.573923     0.000002     0.155195    89.729118
	   43 *D(9,6,7,10)    =     90.000023    -0.000000    -0.000000    90.000023
	   44 D(9,6,7,11)     =    -30.408886     0.000005     0.236078   -30.172808
	   45 D(9,6,7,12)     =   -149.481393    -0.000001     0.063873  -149.417520
	   46 R(5,8)          =      3.320575     0.000320    -0.006334     3.314242
	 ---------------------------------------------------------------------------

  ==> Convergence Check <==

  Measures of convergence in internal coordinates in au.
[...]
           O         -0.802456443354    -0.159178650863     0.758123295029    15.994914619560
           F         -2.127565032194    -1.358926385817    -0.536563918496    18.998403224000
           F         -2.616373328186     0.686981070994    -0.184336178162    18.998403224000
           C          0.091252716679     0.279535567296    -0.209409364238    12.000000000000
           C          1.371303171116    -0.552054274629    -0.027576310444    12.000000000000
          CL          0.384714261720     2.012624171090    -0.045503973773    34.968852682000
           H         -0.305062165272     0.071623782058    -1.187636645151     1.007825032070
           F          2.442482896415     0.092369173588    -0.429615193669    18.998403224000
           F          1.259370768772    -1.663446745814    -0.727714317641    18.998403224000
           F          1.556549291740    -0.875992481105     1.231332254674    18.998403224000

  Nuclear repulsion =  736.779477103062618

  ==> Basis Set <==

  Basis Set: 6-31G*
    Number of shells: 66
    Number of basis function: 158
    Number of Cartesian functions: 158
    Spherical Harmonics?: false
    Max angular momentum: 2

  ==> DFJKGrad: Density-Fitted SCF Gradients <==

    Gradient:                    1
    J tasked:                  Yes
    K tasked:                  Yes
    wK tasked:                  No
    OpenMP threads:              4
    Integrals threads:           4
    Memory (MB):              1430
    Schwarz Cutoff:          0E+00
    Fitting Condition:       1E-12

   => Auxiliary Basis Set <=

  Basis Set: 
    Number of shells: 270
    Number of basis function: 909
    Number of Cartesian functions: 909
    Spherical Harmonics?: false
    Max angular momentum: 3


  -Total Gradient:
     Atom            X                  Y                   Z
    ------   -----------------  -----------------  -----------------
       1       -0.000012667750    -0.000011056433    -0.000019115593
       2        0.000092959055    -0.000056861417    -0.000142614886
       3        0.000033121069    -0.000007439564     0.000055890001
       4       -0.000061658223     0.000008156823     0.000071354751
       5        0.000003946567    -0.000018635131     0.000057399183
       6        0.005461783521     0.008099780815    -0.001697816758
       7       -0.002291000090    -0.004815181118    -0.007607554801
       8       -0.000027085917    -0.000041558750     0.000095343340
       9       -0.004141332600    -0.005807694333     0.002911293916
      10        0.000802330231     0.002490335557     0.006023311873
      11        0.000062128332     0.000039802495     0.000152037863
      12        0.000077475824     0.000120351126     0.000100471108


*** tstop() called on cx1-1-3-2.cx1.hpc.ic.ac.uk at Fri Sep  2 14:08:31 2016
Module time:
	user time   =      26.43 seconds =       0.44 minutes
	system time =       0.26 seconds =       0.00 minutes
	total time  =          7 seconds =       0.12 minutes
Total time:
	user time   =     705.63 seconds =      11.76 minutes
	system time =       8.74 seconds =       0.15 minutes
	total time  =        205 seconds =       3.42 minutes
CURRENT ENERGY: -1146.3093205603

			-----------------------------------------
			 OPTKING 2.0: for geometry optimizations 
			  - R.A. King,  Bethel University        
			-----------------------------------------

	Previous internal coordinate definitions found.
	---Fragment 1 Geometry and Gradient---
	 H          -4.9942936392       -1.2807730626        2.3541250963
	 C          -3.9324373096       -0.7394652629        0.7150065122
	 O          -1.5164229115       -0.3008040563        1.4326454026
	 F          -4.0205152408       -2.5679987039       -1.0139588587
	 F          -4.9442290517        1.2982060827       -0.3483448931
	 C           0.1724426434        0.5282456666       -0.3957263481
	 C           2.5913874386       -1.0432313895       -0.0521116745
	 CL          0.7270045941        3.8033084918       -0.0859900484
	 H          -0.5764839459        0.1353493327       -2.2443080047
	 F           4.6156237585        0.1745524412       -0.8118550586
	 F           2.3798658527       -3.1434587862       -1.3751807633
	 F           2.9414518737       -1.6553858838        2.3268807399
	            -0.0000126677       -0.0000110564       -0.0000191156
	             0.0000929591       -0.0000568614       -0.0001426149
	             0.0000331211       -0.0000074396        0.0000558900
	            -0.0000616582        0.0000081568        0.0000713548
	             0.0000039466       -0.0000186351        0.0000573992
	             0.0054617835        0.0080997808       -0.0016978168
	            -0.0022910001       -0.0048151811       -0.0076075548
	            -0.0000270859       -0.0000415588        0.0000953433
	            -0.0041413326       -0.0058076943        0.0029112939
	             0.0008023302        0.0024903356        0.0060233119
	             0.0000621283        0.0000398025        0.0001520379
	             0.0000774758        0.0001203511        0.0001004711

	---Fragment 1 Intrafragment Coordinates---
	 - Coordinate -           - BOHR/RAD -       - ANG/DEG -
	 R(1,2)           =         2.026638	       1.072451
	 R(2,3)           =         2.558233	       1.353759
	 R(2,4)           =         2.518057	       1.332499
	 R(2,5)           =         2.511283	       1.328914
	 R(3,6)           =         2.623458	       1.388274
	 R(6,7)           =         2.904979	       1.537249
	 R(6,8)           =         3.336092	       1.765384
	 R(6,9)           =         2.032858	       1.075742
	 R(7,10)          =         2.481479	       1.313142
	 R(7,11)          =         2.491226	       1.318300
	 R(7,12)          =         2.481307	       1.313051
	 B(1,2,3)         =         1.889925	     108.284712
	 B(1,2,4)         =         1.920959	     110.062852
	 B(1,2,5)         =         1.926329	     110.370510
	 B(2,3,6)         =         2.056296	     117.817079
	 B(3,2,4)         =         1.928542	     110.497333
	 B(3,2,5)         =         1.939224	     111.109349
	 B(3,6,7)         =         1.857363	     106.419078
	 B(3,6,8)         =         1.931079	     110.642698
	 B(3,6,9)         =         1.912945	     109.603700
	 B(4,2,5)         =         1.859163	     106.522200
	 B(6,7,10)        =         1.957962	     112.182977
	 B(6,7,11)        =         1.899203	     108.816309
	 B(6,7,12)        =         1.943722	     111.367094
	 B(7,6,8)         =         1.962391	     112.436722
	 B(7,6,9)         =         1.885759	     108.046034
	 B(8,6,9)         =         1.912833	     109.597245
	 B(10,7,11)       =         1.896933	     108.686240
	 B(10,7,12)       =         1.874993	     107.429209
	 B(11,7,12)       =         1.889342	     108.251297
	 D(1,2,3,6)       =        -3.097366	    -177.466008
	 D(2,3,6,7)       =        -2.347937	    -134.526856
	 D(2,3,6,8)       =         1.798524	     103.047824
	 D(2,3,6,9)       =        -0.312866	     -17.925905
	 D(3,6,7,10)      =        -2.659221	    -152.362138
	 D(3,6,7,11)      =         1.524403	      87.341854
	 D(3,6,7,12)      =        -0.556877	     -31.906709
	 D(4,2,3,6)       =         1.080727	      61.921099
	 D(5,2,3,6)       =        -0.979097	     -56.098122
	 D(8,6,7,10)      =        -0.542387	     -31.076491
	 D(8,6,7,11)      =        -2.641948	    -151.372498
	 D(8,6,7,12)      =         1.559957	      89.378939
	*D(9,6,7,10)      =         1.570797	      90.000023
	 D(9,6,7,11)      =        -0.528765	     -30.295985
	 D(9,6,7,12)      =        -2.610045	    -149.544548
	 R(5,8)           =         6.205422	       3.283768

	Current energy   :     -1146.3093205603

	Energy change for the previous step:
		Projected    :        -0.0000004274
		Actual       :        -0.0000003957
	Energy ratio indicates good step: Trust radius increased to 7.500e-01.


	Performing BFGS update.
	Previous computed or guess Hessian on step 1.
	Steps to be used in Hessian update: 14 13
	Taking RFO optimization step.
	Going to follow RFO solution 1.
	Rejecting RFO root 1 because normalization gives large value.
	Rejecting RFO root 2 because normalization gives large value.
	Using RFO vector 3.

	Determining step-restricting scale parameter for RS-RFO.
	Maximum step size allowed    0.75000

	 Iter      |step|        alpha        rfo_root  
	------------------------------------------------
	    0    10.02272       1.00000           3
	    1     5.22745       1.93389           3
	    2     2.83480       3.61995           3
	    3     1.64889       6.36856           3
	    4     1.07722      10.02917           3
	    5     0.83041      13.32136           3
	    6     0.75768      14.74278           3
	    7     0.75008      14.90881           3
	    8     0.75000      14.91068           3
	------------------------------------------------
	Norm of target step-size    0.75000
	Projected energy change by RFO approximation:         0.0003804712

	Back-transformation to cartesian coordinates...
	Successfully converged to displaced geometry.

	Back-transformation to cartesian coordinates to adjust frozen coordinates...
	Successfully converged to displaced geometry.

	--- Internal Coordinate Step in ANG or DEG, aJ/ANG or AJ/DEG ---
	 ---------------------------------------------------------------------------
	   Coordinate                Previous        Force       Change         New 
	   ----------                --------       ------       ------       ------
	    1 R(1,2)          =      1.072451     0.000048     0.000273     1.072724
	    2 R(2,3)          =      1.353759     0.000123    -0.028011     1.325748
	    3 R(2,4)          =      1.332499     0.000435     0.000905     1.333404
	    4 R(2,5)          =      1.328914     0.000346    -0.000732     1.328182
	    5 R(3,6)          =      1.388274     0.000038     0.019109     1.407384
	    6 R(6,7)          =      1.537249     0.000905    -0.015818     1.521431
	    7 R(6,8)          =      1.765384     0.000379    -0.034949     1.730435
	    8 R(6,9)          =      1.075742    -0.000007    -0.001569     1.074174
	    9 R(7,10)         =      1.313142    -0.000268    -0.012179     1.300964
	   10 R(7,11)         =      1.318300     0.000985    -0.009360     1.308940
	   11 R(7,12)         =      1.313051    -0.000639     0.033936     1.346987
	   12 B(1,2,3)        =    108.284712     0.000001     0.256111   108.540823
	   13 B(1,2,4)        =    110.062852     0.000006    -1.965248   108.097603
	   14 B(1,2,5)        =    110.370510     0.000002     0.401716   110.772226
	   15 B(2,3,6)        =    117.817079    -0.000001     1.376190   119.193269
	   16 B(3,2,4)        =    110.497333    -0.000010    -1.502607   108.994725
	   17 B(3,2,5)        =    111.109349     0.000004     3.371113   114.480462
	   18 B(3,6,7)        =    106.419078     0.000017     6.589383   113.008461
	   19 B(3,6,8)        =    110.642698    -0.000001     5.753770   116.396469
	   20 B(3,6,9)        =    109.603700    -0.000009   -10.200000    99.403700
	   21 B(4,2,5)        =    106.522200    -0.000002    -0.773706   105.748494
	   22 B(6,7,10)       =    112.182977    -0.000000    -0.580615   111.602362
	   23 B(6,7,11)       =    108.816309    -0.000014    -5.138683   103.677625
	   24 B(6,7,12)       =    111.367094     0.000006     4.167803   115.534897
	   25 B(7,6,8)        =    112.436722    -0.000008    -2.078065   110.358657
	   26 B(7,6,9)        =    108.046034     0.000000    -5.895724   102.150310
	   27 B(8,6,9)        =    109.597245     0.000001     4.656703   114.253948
	   28 B(10,7,11)      =    108.686240     0.000004    -1.226679   107.459560
	   29 B(10,7,12)      =    107.429209     0.000003     2.793684   110.222893
	   30 B(11,7,12)      =    108.251297     0.000002    -0.478247   107.773050
	   31 D(1,2,3,6)      =   -177.466008    -0.000000    -3.702921  -181.168930
	   32 D(2,3,6,7)      =   -134.526856    -0.000001    13.353288  -121.173568
	   33 D(2,3,6,8)      =    103.047824    -0.000001     6.527346   109.575170
	   34 D(2,3,6,9)      =    -17.925905     0.000001     4.336802   -13.589103
	   35 D(3,6,7,10)     =   -152.362138    -0.000000   -11.794634  -164.156772
	   36 D(3,6,7,11)     =     87.341854     0.000001    -6.869857    80.471997
	   37 D(3,6,7,12)     =    -31.906709     0.000002    -5.294171   -37.200880
	   38 D(4,2,3,6)      =     61.921099    -0.000001    -0.603612    61.317487
	   39 D(5,2,3,6)      =    -56.098122     0.000001    -0.756985   -56.855107
	   40 D(8,6,7,10)     =    -31.076491     0.000001    -0.799588   -31.876079
	   41 D(8,6,7,11)     =   -151.372498     0.000002     4.125189  -147.247310
	   42 D(8,6,7,12)     =     89.378939     0.000003     5.700875    95.079814
	   43 *D(9,6,7,10)    =     90.000023    -0.000000     0.000000    90.000023
	   44 D(9,6,7,11)     =    -30.295985     0.000001     4.924777   -25.371208
	   45 D(9,6,7,12)     =   -149.544548     0.000002     6.500463  -143.044085
	   46 R(5,8)          =      3.283768    -0.000143     0.276192     3.559960
	 ---------------------------------------------------------------------------

  ==> Convergence Check <==

  Measures of convergence in internal coordinates in au.
  Criteria marked as inactive (o), active & met (*), and active & unmet ( ).
  ---------------------------------------------------------------------------------------------
   Step     Total Energy     Delta E     MAX Force     RMS Force      MAX Disp      RMS Disp   
  ---------------------------------------------------------------------------------------------
    Convergence Criteria    1.00e-06 *    3.00e-04 *             o    1.20e-03 *             o
  ---------------------------------------------------------------------------------------------
     15   -1146.30932056   -3.96e-07 *    2.27e-04 *    7.52e-05 o    5.22e-01      1.10e-01 o  ~
  ---------------------------------------------------------------------------------------------


  **** Optimization is complete! (in 15 steps) ****

  ==> Optimization Summary <==

  Measures of convergence in internal coordinates in au.
  --------------------------------------------------------------------------------------------------------------- ~
   Step         Total Energy             Delta E       MAX Force       RMS Force        MAX Disp        RMS Disp  ~
  --------------------------------------------------------------------------------------------------------------- ~
      1   -1146.308017889580  -1146.308017889580      0.01467251      0.00398396      0.12342644      0.04006527  ~
      2   -1146.308341959529     -0.000324069949      0.01167287      0.00393043      0.02786137      0.01183169  ~
      3   -1146.309269907275     -0.000927947746      0.00191468      0.00073727      0.01555660      0.00457101  ~
      4   -1146.309308352828     -0.000038445553      0.00086851      0.00030496      0.01271248      0.00258624  ~
      5   -1146.309315939027     -0.000007586199      0.00018015      0.00007756      0.01788765      0.00355969  ~
      6   -1146.309319128503     -0.000003189476      0.00030257      0.00009706      0.00992919      0.00201376  ~
      7   -1146.309317026678      0.000002101825      0.00064370      0.00022706      0.14427288      0.03685610  ~
      8   -1146.306605089397      0.002711937281      0.01272296      0.00506371      0.08376045      0.03683520  ~
      9   -1146.295125829884      0.011479259513      0.04340688      0.01650237      0.08254140      0.03685091  ~
     10   -1146.302247611079     -0.007121781194      0.03060867      0.00930844      0.09712505      0.03684819  ~
     11   -1146.309116108002     -0.006868496923      0.00326449      0.00119171      0.02711231      0.00974552  ~
     12   -1146.309313365356     -0.000197257354      0.00106069      0.00025280      0.00801947      0.00160106  ~
     13   -1146.309318365161     -0.000004999806      0.00037533      0.00015002      0.00228737      0.00078510  ~
     14   -1146.309320164623     -0.000001799462      0.00027623      0.00009205      0.00426984      0.00079652  ~
     15   -1146.309320560325     -0.000000395702      0.00022733      0.00007524      0.52192767      0.11044036  ~
  --------------------------------------------------------------------------------------------------------------- ~

	Writing optimization data to binary file.
	Final energy is  -1146.3093205603250
	Final (previous) structure:
	Cartesian Geometry (in Angstrom)
	    H    -2.6428665687  -0.6777559659   1.2457494422
	    C    -2.0809563573  -0.3913081935   0.3783651792
	    O    -0.8024565046  -0.1591786630   0.7581233529
	    F    -2.1275651947  -1.3589264896  -0.5365639595
	    F    -2.6163735280   0.6869811235  -0.1843361922
	    C     0.0912527236   0.2795355886  -0.2094093802
	    C     1.3713032758  -0.5520543168  -0.0275763125
	   CL     0.3847142911   2.0126243248  -0.0455039772
	    H    -0.3050621886   0.0716237875  -1.1876367358
	    F     2.4424830829   0.0923691806  -0.4296152265
	    F     1.2593708649  -1.6634468728  -0.7277143732
	    F     1.5565494106  -0.8759925480   1.2313323487
	Saving final (previous) structure.
			--------------------------
			 OPTKING Finished Execution 
			--------------------------

    Final optimized geometry and variables:
    Molecular point group: c1
    Full point group: C1

    Geometry (in Angstrom), charge = 0, multiplicity = 1:

    H           -2.642866366890    -0.677755914097     1.245749347111
    C           -2.080956198429    -0.391308163650     0.378365150261
    O           -0.802456443354    -0.159178650863     0.758123295029
    F           -2.127565032194    -1.358926385817    -0.536563918496
    F           -2.616373328186     0.686981070994    -0.184336178162
    C            0.091252716679     0.279535567296    -0.209409364238
    C            1.371303171116    -0.552054274629    -0.027576310444
    CL           0.384714261720     2.012624171090    -0.045503973773
    H           -0.305062165272     0.071623782058    -1.187636645151
    F            2.442482896415     0.092369173588    -0.429615193669
    F            1.259370768772    -1.663446745814    -0.727714317641
    F            1.556549291740    -0.875992481105     1.231332254674

	Cleaning optimization helper files.


Properties will be evaluated at   0.000000,   0.000000,   0.000000 Bohr

Properties computed using the  density matrix

  Nuclear Dipole Moment: (a.u.)
     X:    -3.6050      Y:     0.5309      Z:     0.7100

  Electronic Dipole Moment: (a.u.)
     X:     3.0239      Y:    -0.7263      Z:    -0.6888

  Dipole Moment: (a.u.)
     X:    -0.5811      Y:    -0.1954      Z:     0.0213     Total:     0.6134

  Dipole Moment: (Debye)
     X:    -1.4769      Y:    -0.4965      Z:     0.0540     Total:     1.5591

  Quadrupole Moment: (Debye Ang)
    XX:   -59.8913     YY:   -63.0349     ZZ:   -58.9050
    XY:     1.8405     XZ:    -3.9097     YZ:    -1.1423

  Traceless Quadrupole Moment: (Debye Ang)
    XX:     0.7191     YY:    -2.4245     ZZ:     1.7055
    XY:     1.8405     XZ:    -3.9097     YZ:    -1.1423

  Mulliken Charges: (a.u.)
   Center  Symbol    Alpha    Beta     Spin     Total
       1     H     0.40140  0.40140  0.00000  0.19719
       2     C     2.56646  2.56646  0.00000  0.86708
       3     O     4.29707  4.29707  0.00000 -0.59415
       4     F     4.68712  4.68712  0.00000 -0.37423
       5     F     4.68411  4.68411  0.00000 -0.36823
       6     C     3.05954  3.05954  0.00000 -0.11907
       7     C     2.42953  2.42953  0.00000  1.14095
       8    CL     8.49413  8.49413  0.00000  0.01174
       9     H     0.36603  0.36603  0.00000  0.26793
      10     F     4.67028  4.67028  0.00000 -0.34057
      11     F     4.67539  4.67539  0.00000 -0.35079
      12     F     4.66893  4.66893  0.00000 -0.33786

   Total alpha = 45.00000, Total beta = 45.00000, Total charge =  0.00000


*** PSI4 exiting successfully. Buy a developer a beer!
