    -----------------------------------------------------------------------
          Psi4: An Open-Source Ab Initio Electronic Structure Package
                              Psi4 (no tag) Driver

                          Git: Rev {detached?}  

    J. M. Turney, A. C. Simmonett, R. M. Parrish, E. G. Hohenstein,
    F. A. Evangelista, J. T. Fermann, B. J. Mintz, L. A. Burns, J. J. Wilke,
    M. L. Abrams, N. J. Russ, M. L. Leininger, C. L. Janssen, E. T. Seidl,
    W. D. Allen, H. F. Schaefer, R. A. King, E. F. Valeev, C. D. Sherrill,
    and T. D. Crawford, WIREs Comput. Mol. Sci. 2, 556-565 (2012)
    (doi: 10.1002/wcms.93)

                         Additional Contributions by
    A. E. DePrince, M. Saitow, U. Bozkaya, A. Yu. Sokolov
    -----------------------------------------------------------------------


    Psi4 started on: Fri Sep  2 12:32:51 2016

    Process ID:  18580
    PSI4DATADIR: /export131/home/mjharvey/miniconda3/share
    Memory level set to 256.000 MB

  ==> Input File <==

--------------------------------------------------------------------------
set {
	reference rhf
	basis 6-31G*
}


set_num_threads( 4 )
memory 2 gb

molecule MOL {
0 1

O	 -1.487788	 1.240889	 -0.102860
C	 -1.083277	 0.139568	 0.115197
C	 0.323299	 -0.082943	 0.642902
C	 -1.933017	 -1.084621	 -0.143902
C	 1.355627	 -0.005344	 -0.493127
H	 0.396251	 -1.044647	 1.143147
H	 0.528637	 0.693580	 1.371677
C	 2.477738	 -1.028776	 -0.329715
H	 0.861497	 -0.161492	 -1.449540
H	 1.769526	 0.997307	 -0.515896
H	 3.195691	 -0.949992	 -1.139670
H	 2.089037	 -2.043041	 -0.328382
H	 3.011884	 -0.876709	 0.603350
H	 -1.393885	 -1.806447	 -0.750509
H	 -2.850323	 -0.799888	 -0.640100
H	 -2.169004	 -1.571158	 0.798858

	symmetry c1
}
set optking {
	frozen_dihedral = ("
		9 5 3 2
	")
}

ee = optimize('scf')
oeprop('DIPOLE', 'QUADRUPOLE', 'MULLIKEN_CHARGES')
f=open( 'psi4out.xyz', 'w' )
f.write( "16  " )
f.write( str(ee) + "\n" )
f.write( MOL.save_string_xyz() )
f.close()
--------------------------------------------------------------------------

  Memory set to   2.000 GiB by Python script.
gradient() will perform analytic gradient computation.

*** tstart() called on cx1-1-2-1.cx1.hpc.ic.ac.uk
*** at Fri Sep  2 12:32:51 2016


         ---------------------------------------------------------
                                   SCF
            by Justin Turney, Rob Parrish, and Andy Simmonett
                              RHF Reference
                        4 Threads,   2000 MiB Core
         ---------------------------------------------------------

  ==> Geometry <==

    Molecular point group: c1
    Full point group: C1

    Geometry (in Angstrom), charge = 0, multiplicity = 1:

       Center              X                  Y                   Z               Mass       
    ------------   -----------------  -----------------  -----------------  -----------------
           O         -1.433988093232     1.386336679363    -0.044036326745    15.994914619560
           C         -1.029477093232     0.285015679363     0.174020673255    12.000000000000
           C          0.377098906768     0.062504679363     0.701725673255    12.000000000000
           C         -1.879217093232    -0.939173320637    -0.085078326745    12.000000000000
           C          1.409426906768     0.140103679363    -0.434303326745    12.000000000000
           H          0.450050906768    -0.899199320637     1.201970673255     1.007825032070
           H          0.582436906768     0.839027679363     1.430500673255     1.007825032070
           C          2.531537906768    -0.883328320637    -0.270891326745    12.000000000000
           H          0.915296906768    -0.016044320637    -1.390716326745     1.007825032070
           H          1.823325906768     1.142754679363    -0.457072326745     1.007825032070
           H          3.249490906768    -0.804544320637    -1.080846326745     1.007825032070
           H          2.142836906768    -1.897593320637    -0.269558326745     1.007825032070
           H          3.065683906768    -0.731261320637     0.662173673255     1.007825032070
           H         -1.340085093232    -1.660999320637    -0.691685326745     1.007825032070
           H         -2.796523093232    -0.654440320637    -0.581276326745     1.007825032070
           H         -2.115204093232    -1.425710320637     0.857681673255     1.007825032070

  Running in c1 symmetry.

  Rotational constants: A =      0.22692  B =      0.06466  C =      0.05621 [cm^-1]
  Rotational constants: A =   6803.03738  B =   1938.52960  C =   1685.04885 [MHz]
  Nuclear repulsion =  237.820371960522237

  Charge       = 0
  Multiplicity = 1
  Electrons    = 48
  Nalpha       = 24
  Nbeta        = 24

  ==> Algorithm <==

  SCF Algorithm Type is DF.
  DIIS enabled.
  MOM disabled.
  Fractional occupation disabled.
  Guess Type is CORE.
  Energy threshold   = 1.00e-08
  Density threshold  = 1.00e-08
  Integral threshold = 0.00e+00

  ==> Primary Basis <==

  Basis Set: 6-31G*
    Number of shells: 56
    Number of basis function: 110
    Number of Cartesian functions: 110
    Spherical Harmonics?: false
    Max angular momentum: 2

  ==> Pre-Iterations <==

   -------------------------------------------------------
    Irrep   Nso     Nmo     Nalpha   Nbeta   Ndocc  Nsocc
   -------------------------------------------------------
     A        110     110       0       0       0       0
   -------------------------------------------------------
    Total     110     110      24      24      24       0
   -------------------------------------------------------

 OEINTS: Overlap, kinetic, potential, dipole, and quadrupole integrals
         stored in file 35.

  ==> Integral Setup <==

  ==> DFJK: Density-Fitted J/K Matrices <==

    J tasked:                  Yes
    K tasked:                  Yes
    wK tasked:                  No
    OpenMP threads:              4
    Integrals threads:           4
    Memory (MB):              1430
    Algorithm:                Core
    Integral Cache:           NONE
    Schwarz Cutoff:          1E-12
    Fitting Condition:       1E-12

   => Auxiliary Basis Set <=

  Basis Set: 
    Number of shells: 234
    Number of basis function: 736
    Number of Cartesian functions: 736
    Spherical Harmonics?: false
    Max angular momentum: 3

  Minimum eigenvalue in the overlap matrix is 3.9039499226E-03.
  Using Symmetric Orthogonalization.
  SCF Guess: Core (One-Electron) Hamiltonian.

  ==> Iterations <==

                           Total Energy        Delta E     RMS |[F,P]|

   @DF-RHF iter   1:  -202.50833377308075   -2.02508e+02   8.22039e-02 
   @DF-RHF iter   2:  -159.38017906243104    4.31282e+01   6.79716e-02 DIIS
   @DF-RHF iter   3:  -231.71415673614334   -7.23340e+01   5.03156e-02 DIIS
   @DF-RHF iter   4:  -243.35150441353690   -1.16373e+01   5.00417e-02 DIIS
   @DF-RHF iter   5:  -266.41647621409300   -2.30650e+01   2.04191e-02 DIIS
   @DF-RHF iter   6:  -269.32394788545525   -2.90747e+00   7.95351e-03 DIIS
   @DF-RHF iter   7:  -269.96037939880011   -6.36432e-01   2.41334e-03 DIIS
   @DF-RHF iter   8:  -270.01361724848630   -5.32378e-02   1.41590e-03 DIIS
   @DF-RHF iter   9:  -270.02444321492919   -1.08260e-02   2.80758e-04 DIIS
   @DF-RHF iter  10:  -270.02560000964559   -1.15679e-03   1.10875e-04 DIIS
   @DF-RHF iter  11:  -270.02579974011451   -1.99730e-04   3.32604e-05 DIIS
   @DF-RHF iter  12:  -270.02583249053441   -3.27504e-05   1.43866e-05 DIIS
   @DF-RHF iter  13:  -270.02583979287851   -7.30234e-06   5.41623e-06 DIIS
   @DF-RHF iter  14:  -270.02584090442008   -1.11154e-06   2.05441e-06 DIIS
   @DF-RHF iter  15:  -270.02584102927744   -1.24857e-07   8.19825e-07 DIIS
   @DF-RHF iter  16:  -270.02584104517575   -1.58983e-08   2.65542e-07 DIIS
   @DF-RHF iter  17:  -270.02584104640687   -1.23111e-09   6.99042e-08 DIIS
   @DF-RHF iter  18:  -270.02584104649338   -8.65157e-11   1.88119e-08 DIIS
   @DF-RHF iter  19:  -270.02584104650009   -6.70752e-12   5.55887e-09 DIIS

  ==> Post-Iterations <==

    Orbital Energies (a.u.)
    -----------------------

    Doubly Occupied:                                                      

       1A    -20.546955     2A    -11.324778     3A    -11.232651  
       4A    -11.229004     5A    -11.228629     6A    -11.220399  
       7A     -1.393058     8A     -1.082883     9A     -1.012963  
      10A     -0.950030    11A     -0.829542    12A     -0.735743  
      13A     -0.654533    14A     -0.652306    15A     -0.615045  
      16A     -0.600271    17A     -0.581682    18A     -0.561245  
      19A     -0.537074    20A     -0.519305    21A     -0.498877  
      22A     -0.483692    23A     -0.471366    24A     -0.397304  

    Virtual:                                                              

      25A      0.169742    26A      0.219523    27A      0.255814  
      28A      0.273930    29A      0.282062    30A      0.300724  
      31A      0.307840    32A      0.313407    33A      0.327882  
      34A      0.342725    35A      0.352018    36A      0.402463  
      37A      0.425314    38A      0.427583    39A      0.491908  
      40A      0.505426    41A      0.717084    42A      0.735969  
      43A      0.741715    44A      0.767080    45A      0.775566  
      46A      0.795277    47A      0.820737    48A      0.882178  
      49A      0.901520    50A      0.922121    51A      0.934439  
      52A      0.982653    53A      1.034792    54A      1.047219  
      55A      1.071101    56A      1.108966    57A      1.128465  
      58A      1.129686    59A      1.146712    60A      1.165612  
      61A      1.181290    62A      1.196107    63A      1.205036  
      64A      1.224316    65A      1.238275    66A      1.251053  
      67A      1.316694    68A      1.332036    69A      1.370170  
      70A      1.390456    71A      1.492658    72A      1.637565  
      73A      1.664907    74A      1.729789    75A      1.810187  
      76A      1.878448    77A      1.925768    78A      2.004285  
      79A      2.072839    80A      2.081362    81A      2.126182  
      82A      2.151708    83A      2.183303    84A      2.224928  
      85A      2.239142    86A      2.295887    87A      2.337968  
      88A      2.390836    89A      2.397085    90A      2.503883  
      91A      2.522187    92A      2.615033    93A      2.646275  
      94A      2.673473    95A      2.698792    96A      2.738497  
      97A      2.781293    98A      2.813398    99A      2.966796  
     100A      2.983037   101A      3.059400   102A      3.118059  
     103A      3.374071   104A      3.378557   105A      4.443945  
     106A      4.524492   107A      4.599779   108A      4.744550  
     109A      4.889785   110A      4.985339  

    Final Occupation by Irrep:
              A 
    DOCC [    24 ]

  Energy converged.

  @DF-RHF Final Energy:  -270.02584104650009

   => Energetics <=

    Nuclear Repulsion Energy =            237.8203719605222375
    One-Electron Energy =                -836.9737534857523542
    Two-Electron Energy =                 329.1275404787298839
    DFT Exchange-Correlation Energy =       0.0000000000000000
    Empirical Dispersion Energy =           0.0000000000000000
    PCM Polarization Energy =               0.0000000000000000
    EFP Energy =                            0.0000000000000000
    Total Energy =                       -270.0258410465002044

    Alert: EFP and PCM quantities not currently incorporated into SCF psivars.

Properties will be evaluated at   0.000000,   0.000000,   0.000000 Bohr
  ==> Properties <==


Properties computed using the SCF density matrix

  Nuclear Dipole Moment: (a.u.)
     X:     5.5967      Y:    -5.7194      Z:    -0.2991

  Electronic Dipole Moment: (a.u.)
     X:    -5.0814      Y:     4.6447      Z:     0.4795

  Dipole Moment: (a.u.)
     X:     0.5152      Y:    -1.0747      Z:     0.1804     Total:     1.2054

  Dipole Moment: (Debye)
     X:     1.3096      Y:    -2.7316      Z:     0.4585     Total:     3.0638


  Saving occupied orbitals to File 180.

*** tstop() called on cx1-1-2-1.cx1.hpc.ic.ac.uk at Fri Sep  2 12:32:56 2016
Module time:
	user time   =      11.88 seconds =       0.20 minutes
	system time =       0.14 seconds =       0.00 minutes
	total time  =          5 seconds =       0.08 minutes
Total time:
	user time   =      11.88 seconds =       0.20 minutes
	system time =       0.14 seconds =       0.00 minutes
	total time  =          5 seconds =       0.08 minutes

*** tstart() called on cx1-1-2-1.cx1.hpc.ic.ac.uk
*** at Fri Sep  2 12:32:56 2016


         ------------------------------------------------------------
                                   SCF GRAD                          
                          Rob Parrish, Justin Turney,                
                       Andy Simmonett, and Alex Sokolov              
         ------------------------------------------------------------

  ==> Geometry <==

    Molecular point group: c1
    Full point group: C1

    Geometry (in Angstrom), charge = 0, multiplicity = 1:

       Center              X                  Y                   Z               Mass       
    ------------   -----------------  -----------------  -----------------  -----------------
           O         -1.433988093232     1.386336679363    -0.044036326745    15.994914619560
           C         -1.029477093232     0.285015679363     0.174020673255    12.000000000000
           C          0.377098906768     0.062504679363     0.701725673255    12.000000000000
           C         -1.879217093232    -0.939173320637    -0.085078326745    12.000000000000
           C          1.409426906768     0.140103679363    -0.434303326745    12.000000000000
           H          0.450050906768    -0.899199320637     1.201970673255     1.007825032070
           H          0.582436906768     0.839027679363     1.430500673255     1.007825032070
           C          2.531537906768    -0.883328320637    -0.270891326745    12.000000000000
           H          0.915296906768    -0.016044320637    -1.390716326745     1.007825032070
           H          1.823325906768     1.142754679363    -0.457072326745     1.007825032070
           H          3.249490906768    -0.804544320637    -1.080846326745     1.007825032070
           H          2.142836906768    -1.897593320637    -0.269558326745     1.007825032070
           H          3.065683906768    -0.731261320637     0.662173673255     1.007825032070
           H         -1.340085093232    -1.660999320637    -0.691685326745     1.007825032070
           H         -2.796523093232    -0.654440320637    -0.581276326745     1.007825032070
           H         -2.115204093232    -1.425710320637     0.857681673255     1.007825032070

  Nuclear repulsion =  237.820371960522237

  ==> Basis Set <==

  Basis Set: 6-31G*
    Number of shells: 56
    Number of basis function: 110
    Number of Cartesian functions: 110
    Spherical Harmonics?: false
    Max angular momentum: 2

  ==> DFJKGrad: Density-Fitted SCF Gradients <==

    Gradient:                    1
    J tasked:                  Yes
    K tasked:                  Yes
    wK tasked:                  No
    OpenMP threads:              4
    Integrals threads:           4
    Memory (MB):              1430
    Schwarz Cutoff:          0E+00
    Fitting Condition:       1E-12

   => Auxiliary Basis Set <=

  Basis Set: 
    Number of shells: 234
    Number of basis function: 736
    Number of Cartesian functions: 736
    Spherical Harmonics?: false
    Max angular momentum: 3


  -Total Gradient:
     Atom            X                  Y                   Z
    ------   -----------------  -----------------  -----------------
       1        0.000365081063     0.000098008638     0.000271434528
       2       -0.000133685079    -0.002056606871    -0.002264660009
       3        0.003430406027    -0.000333813648    -0.004618676801
       4       -0.000338317035     0.000082068777     0.000408172255
       5       -0.002141536611     0.001560631826     0.003360522148
       6        0.001780985731    -0.000537599724     0.000063612826
       7        0.000882341534     0.001913182614    -0.001109720407
       8       -0.001867026834    -0.001647470482     0.001077298581
       9       -0.002220712868    -0.000040084301     0.000304345717
      10        0.000778698168     0.000780329528     0.002821338424
      11       -0.000451536612     0.000094230337    -0.000151278672
      12        0.000267900504    -0.000205386669     0.000057758821
      13       -0.000127405325     0.000251223681    -0.000310139676
      14       -0.000054450425     0.000149881488     0.000083166897
      15       -0.000033503839    -0.000030330154     0.000027804267
      16       -0.000137238399    -0.000078265039    -0.000020978899


*** tstop() called on cx1-1-2-1.cx1.hpc.ic.ac.uk at Fri Sep  2 12:33:00 2016
Module time:
	user time   =      14.67 seconds =       0.24 minutes
	system time =       0.19 seconds =       0.00 minutes
	total time  =          4 seconds =       0.07 minutes
Total time:
	user time   =      26.57 seconds =       0.44 minutes
	system time =       0.33 seconds =       0.01 minutes
	total time  =          9 seconds =       0.15 minutes
CURRENT ENERGY: -270.0258410465

			-----------------------------------------
			 OPTKING 2.0: for geometry optimizations 
			  - R.A. King,  Bethel University        
			-----------------------------------------

	Internal coordinates to be generated automatically.
	Detected frag with atoms:  1 2 3 4 5 6 7 8 9 10 11 12 13 14 15 16
	---Fragment 1 Bond Connectivity---
	 1 : 2
	 2 : 1 3 4
	 3 : 2 5 6 7
	 4 : 2 14 15 16
	 5 : 3 8 9 10
	 6 : 3
	 7 : 3
	 8 : 5 11 12 13
	 9 : 5
	 10 : 5
	 11 : 8
	 12 : 8
	 13 : 8
	 14 : 4
	 15 : 4
	 16 : 4

	Assuming in current code that numbering for constraints corresponds to unified fragment.
	Frozen dihedral atom list: 
	     9     5     3     2
	---Fragment 1 Geometry and Gradient---
	 O          -2.7098447740        2.6197966520       -0.0832165974
	 C          -1.9454297663        0.5386015776        0.3288514139
	 C           0.7126136588        0.1181167260        1.3260693429
	 C          -3.5512056504       -1.7747803673       -0.1607747374
	 C           2.6634308581        0.2647575842       -0.8207143461
	 H           0.8504729596       -1.6992404549        2.2713953922
	 H           1.1006462435        1.5855325319        2.7032545054
	 C           4.7839133388       -1.6692486114       -0.5119104193
	 H           1.7296604841       -0.0303193720       -2.6280729861
	 H           3.4455866148        2.1594933811       -0.8637415205
	 H           6.1406478851       -1.5203684278       -2.0425035493
	 H           4.0493749012       -3.5859316876       -0.5093914144
	 H           5.7933029938       -1.3818836276        1.2513268949
	 H          -2.5323938210       -3.1388338229       -1.3070958377
	 H          -5.2846627705       -1.2367129763       -1.0984530651
	 H          -3.9971564514       -2.6942020508        1.6207834716
	             0.0003650811        0.0000980086        0.0002714345
	            -0.0001336851       -0.0020566069       -0.0022646600
	             0.0034304060       -0.0003338136       -0.0046186768
	            -0.0003383170        0.0000820688        0.0004081723
	            -0.0021415366        0.0015606318        0.0033605221
	             0.0017809857       -0.0005375997        0.0000636128
	             0.0008823415        0.0019131826       -0.0011097204
	            -0.0018670268       -0.0016474705        0.0010772986
	            -0.0022207129       -0.0000400843        0.0003043457
	             0.0007786982        0.0007803295        0.0028213384
	            -0.0004515366        0.0000942303       -0.0001512787
	             0.0002679005       -0.0002053867        0.0000577588
	            -0.0001274053        0.0002512237       -0.0003101397
	            -0.0000544504        0.0001498815        0.0000831669
	            -0.0000335038       -0.0000303302        0.0000278043
	            -0.0001372384       -0.0000782650       -0.0000209789

	Previous optimization step data not found.  Starting new optimization.

	---Fragment 1 Intrafragment Coordinates---
	 - Coordinate -           - BOHR/RAD -       - ANG/DEG -
	 R(1,2)           =         2.255106	       1.193351
	 R(2,3)           =         2.869921	       1.518697
	 R(2,4)           =         2.858319	       1.512557
	 R(3,5)           =         2.904457	       1.536973
	 R(3,6)           =         2.053152	       1.086481
	 R(3,7)           =         2.049516	       1.084557
	 R(4,14)          =         2.052479	       1.086125
	 R(4,15)          =         2.042947	       1.081081
	 R(4,16)          =         2.053815	       1.086832
	 R(5,8)           =         2.886553	       1.527498
	 R(5,9)           =         2.055613	       1.087783
	 R(5,10)          =         2.050279	       1.084961
	 R(8,11)          =         2.050758	       1.085215
	 R(8,12)          =         2.052615	       1.086197
	 R(8,13)          =         2.051939	       1.085839
	 B(1,2,3)         =         2.109069	     120.840738
	 B(1,2,4)         =         2.123750	     121.681920
	 B(2,3,5)         =         1.936761	     110.968248
	 B(2,3,6)         =         1.930355	     110.601216
	 B(2,3,7)         =         1.879617	     107.694150
	 B(2,4,14)        =         1.933383	     110.774690
	 B(2,4,15)        =         1.919992	     110.007416
	 B(2,4,16)        =         1.913155	     109.615731
	 B(3,2,4)         =         2.050206	     117.468125
	 B(3,5,8)         =         1.961143	     112.365191
	 B(3,5,9)         =         1.915074	     109.725647
	 B(3,5,10)        =         1.894838	     108.566228
	 B(5,3,6)         =         1.917615	     109.871272
	 B(5,3,7)         =         1.910653	     109.472351
	 B(5,8,11)        =         1.936400	     110.947558
	 B(5,8,12)        =         1.942157	     111.277402
	 B(5,8,13)        =         1.938491	     111.067349
	 B(6,3,7)         =         1.887731	     108.159014
	 B(8,5,9)         =         1.908776	     109.364788
	 B(8,5,10)        =         1.918966	     109.948638
	 B(9,5,10)        =         1.862409	     106.708200
	 B(11,8,12)       =         1.881212	     107.785512
	 B(11,8,13)       =         1.881507	     107.802391
	 B(12,8,13)       =         1.881525	     107.803458
	 B(14,4,15)       =         1.917582	     109.869361
	 B(14,4,16)       =         1.869976	     107.141753
	 B(15,4,16)       =         1.909014	     109.378421
	 D(1,2,3,5)       =        -1.398526	     -80.129663
	 D(1,2,3,6)       =         2.751795	     157.666230
	 D(1,2,3,7)       =         0.692385	      39.670739
	 D(1,2,4,14)      =         2.239463	     128.311757
	 D(1,2,4,15)      =         0.115963	       6.644197
	 D(1,2,4,16)      =        -1.983800	    -113.663361
	 D(2,3,5,8)       =        -2.476619	    -141.899829
	*D(2,3,5,9)       =        -0.349066	     -19.999985
	 D(2,3,5,10)      =         1.680249	      96.271190
	 D(3,2,4,14)      =        -0.883002	     -50.592293
	 D(3,2,4,15)      =        -3.006502	    -172.259854
	 D(3,2,4,16)      =         1.176921	      67.432589
	 D(3,5,8,11)      =        -3.135646	    -179.659281
	 D(3,5,8,12)      =         1.053056	      60.335665
	 D(3,5,8,13)      =        -1.043229	     -59.772600
	 D(4,2,3,5)       =         1.724108	      98.784114
	 D(4,2,3,6)       =        -0.408756	     -23.419994
	 D(4,2,3,7)       =        -2.468166	    -141.415485
	 D(6,3,5,8)       =        -0.336359	     -19.271959
	 D(6,3,5,9)       =         1.791195	     102.627886
	 D(6,3,5,10)      =        -2.462676	    -141.100939
	 D(7,3,5,8)       =         1.734275	      99.366624
	 D(7,3,5,9)       =        -2.421357	    -138.733532
	 D(7,3,5,10)      =        -0.392042	     -22.462357
	 D(9,5,8,11)      =         1.016408	      58.235878
	 D(9,5,8,12)      =        -1.078075	     -61.769176
	 D(9,5,8,13)      =         3.108825	     178.122559
	 D(10,5,8,11)     =        -1.023121	     -58.620491
	 D(10,5,8,12)     =        -3.117604	    -178.625545
	 D(10,5,8,13)     =         1.069297	      61.266190

	Current energy   :      -270.0258410465

	Generating empirical Hessian (Schlegel '84) for each fragment.
	Taking RFO optimization step.
	Going to follow RFO solution 1.
	Using RFO vector 1.
	Norm of target step-size    0.29017
	Projected energy change by RFO approximation:         0.0025445139

	Back-transformation to cartesian coordinates...
	Successfully converged to displaced geometry.

	Back-transformation to cartesian coordinates to adjust frozen coordinates...
	Successfully converged to displaced geometry.

	--- Internal Coordinate Step in ANG or DEG, aJ/ANG or AJ/DEG ---
	 ---------------------------------------------------------------------------
	   Coordinate                Previous        Force       Change         New 
	   ----------                --------       ------       ------       ------
	    1 R(1,2)          =      1.193351     0.000683     0.000040     1.193391
	    2 R(2,3)          =      1.518697    -0.004599    -0.000965     1.517732
	    3 R(2,4)          =      1.512557    -0.001083    -0.000223     1.512334
	    4 R(3,5)          =      1.536973     0.075153     0.016696     1.553669
	    5 R(3,6)          =      1.086481    -0.005147    -0.000935     1.085546
	    6 R(3,7)          =      1.084557    -0.006518    -0.001177     1.083380
	    7 R(4,14)         =      1.086125     0.001426     0.000259     1.086384
	    8 R(4,15)         =      1.081081    -0.000063    -0.000011     1.081070
	    9 R(4,16)         =      1.086832    -0.000384    -0.000070     1.086763
	   10 R(5,8)          =      1.527498     0.004268     0.000921     1.528418
	   11 R(5,9)          =      1.087783    -0.006154    -0.001123     1.086660
	   12 R(5,10)         =      1.084961    -0.007901    -0.001429     1.083532
	   13 R(8,11)         =      1.085215     0.001475     0.000267     1.085481
	   14 R(8,12)         =      1.086197    -0.000791    -0.000144     1.086053
	   15 R(8,13)         =      1.085839     0.002422     0.000439     1.086278
	   16 B(1,2,3)        =    120.840738     0.000076     0.166775   121.007513
	   17 B(1,2,4)        =    121.681920     0.000000    -0.060008   121.621911
	   18 B(2,3,5)        =    110.968248     0.000038     0.205175   111.173423
	   19 B(2,3,6)        =    110.601216    -0.000065    -1.432524   109.168693
	   20 B(2,3,7)        =    107.694150    -0.000072     0.448616   108.142766
	   21 B(2,4,14)       =    110.774690     0.000008     0.034969   110.809659
	   22 B(2,4,15)       =    110.007416    -0.000002    -0.000617   110.006799
	   23 B(2,4,16)       =    109.615731    -0.000016    -0.080413   109.535318
	   24 B(3,2,4)        =    117.468125    -0.000076    -0.289575   117.178550
	   25 B(3,5,8)        =    112.365191     0.000140     1.093505   113.458696
	   26 B(3,5,9)        =    109.725647     0.000043     0.983472   110.709119
	   27 B(3,5,10)       =    108.566228     0.000011    -0.203850   108.362378
	   28 B(5,3,6)        =    109.871272     0.000036    -0.133783   109.737489
	   29 B(5,3,7)        =    109.472351     0.000110     1.421278   110.893629
	   30 B(5,8,11)       =    110.947558     0.000047     0.267222   111.214781
	   31 B(5,8,12)       =    111.277402    -0.000048    -0.263428   111.013974
	   32 B(5,8,13)       =    111.067349     0.000020     0.080843   111.148192
	   33 B(6,3,7)        =    108.159014    -0.000049    -0.525387   107.633627
	   34 B(8,5,9)        =    109.364788    -0.000047     0.874222   110.239010
	   35 B(8,5,10)       =    109.948638    -0.000088    -0.743964   109.204674
	   36 B(9,5,10)       =    106.708200    -0.000070    -2.260368   104.447832
	   37 B(11,8,12)      =    107.785512     0.000004     0.037206   107.822719
	   38 B(11,8,13)      =    107.802391    -0.000025    -0.044277   107.758114
	   39 B(12,8,13)      =    107.803458     0.000002    -0.082451   107.721007
	   40 B(14,4,15)      =    109.869361    -0.000001     0.008661   109.878023
	   41 B(14,4,16)      =    107.141753     0.000001    -0.007265   107.134487
	   42 B(15,4,16)      =    109.378421     0.000009     0.044526   109.422947
	   43 D(1,2,3,5)      =    -80.129663    -0.000007    -2.195880   -82.325542
	   44 D(1,2,3,6)      =    157.666230    -0.000014    -1.194482   156.471748
	   45 D(1,2,3,7)      =     39.670739     0.000018    -0.032402    39.638337
	   46 D(1,2,4,14)     =    128.311757    -0.000002    -1.996363   126.315394
	   47 D(1,2,4,15)     =      6.644197    -0.000003    -2.030004     4.614193
	   48 D(1,2,4,16)     =   -113.663361    -0.000003    -2.033936  -115.697296
	   49 D(2,3,5,8)      =   -141.899829    -0.000015    -2.656171  -144.556000
	   50 *D(2,3,5,9)     =    -19.999985     0.000000     0.000000   -19.999985
	   51 D(2,3,5,10)     =     96.271190    -0.000012    -2.284299    93.986891
	   52 D(3,2,4,14)     =    -50.592293     0.000003     1.896498   -48.695795
	   53 D(3,2,4,15)     =   -172.259854     0.000002     1.862857  -170.396997
	   54 D(3,2,4,16)     =     67.432589     0.000002     1.858926    69.291514
	   55 D(3,5,8,11)     =   -179.659281     0.000006     3.259615  -176.399666
	   56 D(3,5,8,12)     =     60.335665     0.000006     3.209860    63.545525
	   57 D(3,5,8,13)     =    -59.772600     0.000009     3.436172   -56.336427
	   58 D(4,2,3,5)      =     98.784114    -0.000012    -6.065946    92.718168
	   59 D(4,2,3,6)      =    -23.419994    -0.000019    -5.064548   -28.484542
	   60 D(4,2,3,7)      =   -141.415485     0.000013    -3.902468  -145.317952
	   61 D(6,3,5,8)      =    -19.271959    -0.000023    -4.415210   -23.687169
	   62 D(6,3,5,9)      =    102.627886    -0.000007    -1.759039   100.868846
	   63 D(6,3,5,10)     =   -141.100939    -0.000020    -4.043338  -145.144278
	   64 D(7,3,5,8)      =     99.366624    -0.000016    -4.273488    95.093136
	   65 D(7,3,5,9)      =   -138.733532    -0.000001    -1.617317  -140.350848
	   66 D(7,3,5,10)     =    -22.462357    -0.000013    -3.901616   -26.363972
	   67 D(9,5,8,11)     =     58.235878    -0.000020     0.554789    58.790667
	   68 D(9,5,8,12)     =    -61.769176    -0.000021     0.505034   -61.264142
	   69 D(9,5,8,13)     =    178.122559    -0.000017     0.731346   178.853905
	   70 D(10,5,8,11)    =    -58.620491     0.000017     3.205296   -55.415195
	   71 D(10,5,8,12)    =   -178.625545     0.000016     3.155541  -175.470004
	   72 D(10,5,8,13)    =     61.266190     0.000020     3.381853    64.648043
	 ---------------------------------------------------------------------------

  ==> Convergence Check <==

  Measures of convergence in internal coordinates in au.
  Criteria marked as inactive (o), active & met (*), and active & unmet ( ).
  --------------------------------------------------------------------------------------------- ~
   Step     Total Energy     Delta E     MAX Force     RMS Force      MAX Disp      RMS Disp    ~
  --------------------------------------------------------------------------------------------- ~
    Convergence Criteria    1.00e-06 *    3.00e-04 *             o    1.20e-03 *             o  ~
  --------------------------------------------------------------------------------------------- ~
      1    -270.02584105   -2.70e+02      9.12e-03      1.28e-03 o    1.06e-01      3.42e-02 o  ~
  ---------------------------------------------------------------------------------------------

	Writing optimization data to binary file.
	Structure for next step:
	Cartesian Geometry (in Angstrom)
	    O    -1.4545097625   1.4037551979   0.0176175336
	    C    -1.0454516059   0.3023003241   0.2265466609
	    C     0.3701543855   0.0753843892   0.7246222314
	    C    -1.8675862195  -0.9241856285  -0.1005351704
	    C     1.3882037138   0.0973344915  -0.4488259720
	    H     0.4194036476  -0.8815197767   1.2348370557
	    H     0.6001544101   0.8463747978   1.4501475729
	    C     2.5450867669  -0.8852083544  -0.2691202970
	    H     0.8866766415  -0.0816654996  -1.3960641077
	    H     1.7843674836   1.1018716853  -0.5382773344
	    H     3.2655728534  -0.7954916275  -1.0760407612
	    H     2.1868542211  -1.9103932381  -0.2557997358
	    H     3.0698244194  -0.7061558000   0.6650057240
	    H    -1.3057424331  -1.6089605595  -0.7295387426
	    H    -2.7823734298  -0.6342951758  -0.5983697651
	    H    -2.1079431292  -1.4556968185   0.8164038585
			--------------------------
			 OPTKING Finished Execution 
			--------------------------

    Structure for next step:
    Molecular point group: c1
    Full point group: C1

    Geometry (in Angstrom), charge = 0, multiplicity = 1:

    O           -1.448514767399     1.400657963320     0.000852756662
    C           -1.039456642078     0.299203173690     0.209781867959
    C            0.376149241216     0.072287256138     0.707857400433
    C           -1.861591192907    -0.927282685290    -0.117299938320
    C            1.394198491812     0.094237356718    -0.465590713398
    H            0.425398499531    -0.884616836753     1.218072185734
    H            0.606149248271     0.843277605812     1.433382686554
    C            2.551081456563    -0.888305414108    -0.285885052089
    H            0.892671457746    -0.084762620683    -1.412828776768
    H            1.790362231302     1.098774473823    -0.555042068918
    H            3.271567488028    -0.798588694114    -1.092805454677
    H            2.192848938116    -1.913490219589    -0.272564491874
    H            3.075819068947    -0.709252873415     0.648240897547
    H           -1.299747449388    -1.612057564007    -0.746303462541
    H           -2.776378333280    -0.637392254666    -0.615134495007
    H           -2.101948084188    -1.458793834690     0.799639020509

gradient() will perform analytic gradient computation.

*** tstart() called on cx1-1-2-1.cx1.hpc.ic.ac.uk
*** at Fri Sep  2 12:33:01 2016


         ---------------------------------------------------------
                                   SCF
            by Justin Turney, Rob Parrish, and Andy Simmonett
                              RHF Reference
                        4 Threads,   2000 MiB Core
         ---------------------------------------------------------

  ==> Geometry <==

    Molecular point group: c1
    Full point group: C1

    Geometry (in Angstrom), charge = 0, multiplicity = 1:

       Center              X                  Y                   Z               Mass       
    ------------   -----------------  -----------------  -----------------  -----------------
           O         -1.448514767399     1.400657963320     0.000852756662    15.994914619560
           C         -1.039456642078     0.299203173690     0.209781867959    12.000000000000
           C          0.376149241216     0.072287256138     0.707857400433    12.000000000000
           C         -1.861591192907    -0.927282685290    -0.117299938320    12.000000000000
           C          1.394198491812     0.094237356718    -0.465590713398    12.000000000000
           H          0.425398499531    -0.884616836753     1.218072185734     1.007825032070
           H          0.606149248271     0.843277605812     1.433382686554     1.007825032070
           C          2.551081456563    -0.888305414108    -0.285885052089    12.000000000000
           H          0.892671457746    -0.084762620683    -1.412828776768     1.007825032070
           H          1.790362231302     1.098774473823    -0.555042068918     1.007825032070
           H          3.271567488028    -0.798588694114    -1.092805454677     1.007825032070
           H          2.192848938116    -1.913490219589    -0.272564491874     1.007825032070
           H          3.075819068947    -0.709252873415     0.648240897547     1.007825032070
           H         -1.299747449388    -1.612057564007    -0.746303462541     1.007825032070
           H         -2.776378333280    -0.637392254666    -0.615134495007     1.007825032070
           H         -2.101948084188    -1.458793834690     0.799639020509     1.007825032070

  Running in c1 symmetry.

  Rotational constants: A =      0.22741  B =      0.06398  C =      0.05592 [cm^-1]
  Rotational constants: A =   6817.47534  B =   1918.05485  C =   1676.54622 [MHz]
  Nuclear repulsion =  237.343821321217519

  Charge       = 0
  Multiplicity = 1
  Electrons    = 48
  Nalpha       = 24
  Nbeta        = 24

  ==> Algorithm <==

  SCF Algorithm Type is DF.
  DIIS enabled.
  MOM disabled.
  Fractional occupation disabled.
  Guess Type is READ.
  Energy threshold   = 1.00e-08
  Density threshold  = 1.00e-08
  Integral threshold = 0.00e+00

  ==> Primary Basis <==

  Basis Set: 6-31G*
    Number of shells: 56
    Number of basis function: 110
    Number of Cartesian functions: 110
    Spherical Harmonics?: false
    Max angular momentum: 2

  ==> Pre-Iterations <==

   -------------------------------------------------------
    Irrep   Nso     Nmo     Nalpha   Nbeta   Ndocc  Nsocc
   -------------------------------------------------------
     A        110     110       0       0       0       0
   -------------------------------------------------------
    Total     110     110      24      24      24       0
   -------------------------------------------------------

 OEINTS: Overlap, kinetic, potential, dipole, and quadrupole integrals
         stored in file 35.

  ==> Integral Setup <==

  ==> DFJK: Density-Fitted J/K Matrices <==

    J tasked:                  Yes
    K tasked:                  Yes
    wK tasked:                  No
    OpenMP threads:              4
    Integrals threads:           4
    Memory (MB):              1430
    Algorithm:                Core
    Integral Cache:           NONE
    Schwarz Cutoff:          1E-12
    Fitting Condition:       1E-12

   => Auxiliary Basis Set <=

  Basis Set: 
    Number of shells: 234
    Number of basis function: 736
    Number of Cartesian functions: 736
    Spherical Harmonics?: false
    Max angular momentum: 3

  Minimum eigenvalue in the overlap matrix is 3.9948692128E-03.
  Using Symmetric Orthogonalization.
  SCF Guess: Reading in previously saved MOs, projecting if necessary.

  Using orbitals from previous SCF, no projection.
  Recomputing DOCC and SOCC from number of alpha and beta electrons from previous calculation.
              A 
    DOCC [    24 ]

  ==> Iterations <==

                           Total Energy        Delta E     RMS |[F,P]|

   @DF-RHF iter   0:  -270.01930196591582   -2.70019e+02   8.28798e-04 
   @DF-RHF iter   1:  -270.02578978722033   -6.48782e-03   1.42788e-04 
   @DF-RHF iter   2:  -270.02602859019782   -2.38803e-04   4.80790e-05 DIIS
   @DF-RHF iter   3:  -270.02606265577003   -3.40656e-05   1.51465e-05 DIIS
   @DF-RHF iter   4:  -270.02606488850040   -2.23273e-06   5.65267e-06 DIIS
   @DF-RHF iter   5:  -270.02606541910666   -5.30606e-07   3.11321e-06 DIIS
   @DF-RHF iter   6:  -270.02606563872803   -2.19621e-07   1.22759e-06 DIIS
   @DF-RHF iter   7:  -270.02606569274201   -5.40140e-08   4.59177e-07 DIIS
   @DF-RHF iter   8:  -270.02606570079388   -8.05187e-09   1.78710e-07 DIIS
   @DF-RHF iter   9:  -270.02606570195223   -1.15836e-09   6.30292e-08 DIIS
   @DF-RHF iter  10:  -270.02606570206729   -1.15051e-10   1.78715e-08 DIIS
   @DF-RHF iter  11:  -270.02606570207411   -6.82121e-12   3.53376e-09 DIIS

  ==> Post-Iterations <==

    Orbital Energies (a.u.)
    -----------------------

    Doubly Occupied:                                                      

       1A    -20.547036     2A    -11.324520     3A    -11.234722  
       4A    -11.230452     5A    -11.228693     6A    -11.221321  
       7A     -1.392891     8A     -1.080028     9A     -1.012998  
      10A     -0.950521    11A     -0.831613    12A     -0.735014  
      13A     -0.652666    14A     -0.650999    15A     -0.614229  
      16A     -0.600268    17A     -0.582091    18A     -0.560503  
      19A     -0.536233    20A     -0.520102    21A     -0.501877  
      22A     -0.481551    23A     -0.472199    24A     -0.397533  

    Virtual:                                                              

      25A      0.170106    26A      0.218196    27A      0.255793  
      28A      0.273910    29A      0.283888    30A      0.301208  
      31A      0.307144    32A      0.314978    33A      0.326340  
      34A      0.341486    35A      0.352793    36A      0.400191  
      37A      0.421557    38A      0.427417    39A      0.492047  
      40A      0.505793    41A      0.712651    42A      0.737298  
      43A      0.742145    44A      0.768030    45A      0.773579  
      46A      0.794541    47A      0.819445    48A      0.878595  
      49A      0.904757    50A      0.921821    51A      0.932267  
      52A      0.981381    53A      1.024815    54A      1.045809  
      55A      1.075130    56A      1.107288    57A      1.128544  
      58A      1.132978    59A      1.147054    60A      1.167546  
      61A      1.181614    62A      1.195298    63A      1.204493  
      64A      1.225163    65A      1.241098    66A      1.251378  
      67A      1.313473    68A      1.333536    69A      1.366057  
      70A      1.401316    71A      1.481400    72A      1.642772  
      73A      1.669150    74A      1.731219    75A      1.817584  
      76A      1.870472    77A      1.919255    78A      1.998786  
      79A      2.066943    80A      2.084977    81A      2.118597  
      82A      2.153672    83A      2.182492    84A      2.222247  
      85A      2.229204    86A      2.287024    87A      2.334768  
      88A      2.379550    89A      2.389952    90A      2.506538  
      91A      2.519309    92A      2.614337    93A      2.647637  
      94A      2.675334    95A      2.698120    96A      2.734903  
      97A      2.768160    98A      2.816769    99A      2.961701  
     100A      2.983153   101A      3.062530   102A      3.108309  
     103A      3.373837   104A      3.376242   105A      4.442638  
     106A      4.520524   107A      4.597017   108A      4.745077  
     109A      4.884440   110A      4.977673  

    Final Occupation by Irrep:
              A 
    DOCC [    24 ]

  Energy converged.

  @DF-RHF Final Energy:  -270.02606570207411

   => Energetics <=

    Nuclear Repulsion Energy =            237.3438213212175185
    One-Electron Energy =                -836.0196568809066093
    Two-Electron Energy =                 328.6497698576148991
    DFT Exchange-Correlation Energy =       0.0000000000000000
    Empirical Dispersion Energy =           0.0000000000000000
    PCM Polarization Energy =               0.0000000000000000
    EFP Energy =                            0.0000000000000000
    Total Energy =                       -270.0260657020741633

    Alert: EFP and PCM quantities not currently incorporated into SCF psivars.

Properties will be evaluated at   0.000000,   0.000000,   0.000000 Bohr
  ==> Properties <==


Properties computed using the SCF density matrix

  Nuclear Dipole Moment: (a.u.)
     X:     5.6898      Y:    -5.7652      Z:    -0.5581

  Electronic Dipole Moment: (a.u.)
     X:    -5.1589      Y:     4.6861      Z:     0.7038

  Dipole Moment: (a.u.)
     X:     0.5309      Y:    -1.0791      Z:     0.1457     Total:     1.2114

  Dipole Moment: (Debye)
     X:     1.3494      Y:    -2.7427      Z:     0.3702     Total:     3.0790


  Saving occupied orbitals to File 180.

*** tstop() called on cx1-1-2-1.cx1.hpc.ic.ac.uk at Fri Sep  2 12:33:05 2016
Module time:
	user time   =      11.69 seconds =       0.19 minutes
	system time =       0.17 seconds =       0.00 minutes
	total time  =          4 seconds =       0.07 minutes
Total time:
	user time   =      39.42 seconds =       0.66 minutes
	system time =       0.54 seconds =       0.01 minutes
	total time  =         14 seconds =       0.23 minutes

*** tstart() called on cx1-1-2-1.cx1.hpc.ic.ac.uk
*** at Fri Sep  2 12:33:05 2016


         ------------------------------------------------------------
                                   SCF GRAD                          
                          Rob Parrish, Justin Turney,                
                       Andy Simmonett, and Alex Sokolov              
         ------------------------------------------------------------

  ==> Geometry <==

    Molecular point group: c1
    Full point group: C1

    Geometry (in Angstrom), charge = 0, multiplicity = 1:

       Center              X                  Y                   Z               Mass       
    ------------   -----------------  -----------------  -----------------  -----------------
           O         -1.448514767399     1.400657963320     0.000852756662    15.994914619560
           C         -1.039456642078     0.299203173690     0.209781867959    12.000000000000
           C          0.376149241216     0.072287256138     0.707857400433    12.000000000000
           C         -1.861591192907    -0.927282685290    -0.117299938320    12.000000000000
           C          1.394198491812     0.094237356718    -0.465590713398    12.000000000000
           H          0.425398499531    -0.884616836753     1.218072185734     1.007825032070
           H          0.606149248271     0.843277605812     1.433382686554     1.007825032070
           C          2.551081456563    -0.888305414108    -0.285885052089    12.000000000000
           H          0.892671457746    -0.084762620683    -1.412828776768     1.007825032070
           H          1.790362231302     1.098774473823    -0.555042068918     1.007825032070
           H          3.271567488028    -0.798588694114    -1.092805454677     1.007825032070
           H          2.192848938116    -1.913490219589    -0.272564491874     1.007825032070
           H          3.075819068947    -0.709252873415     0.648240897547     1.007825032070
           H         -1.299747449388    -1.612057564007    -0.746303462541     1.007825032070
           H         -2.776378333280    -0.637392254666    -0.615134495007     1.007825032070
           H         -2.101948084188    -1.458793834690     0.799639020509     1.007825032070

  Nuclear repulsion =  237.343821321217547

  ==> Basis Set <==

  Basis Set: 6-31G*
    Number of shells: 56
    Number of basis function: 110
    Number of Cartesian functions: 110
    Spherical Harmonics?: false
    Max angular momentum: 2

  ==> DFJKGrad: Density-Fitted SCF Gradients <==

    Gradient:                    1
    J tasked:                  Yes
    K tasked:                  Yes
    wK tasked:                  No
    OpenMP threads:              4
    Integrals threads:           4
    Memory (MB):              1430
    Schwarz Cutoff:          0E+00
    Fitting Condition:       1E-12

   => Auxiliary Basis Set <=

  Basis Set: 
    Number of shells: 234
    Number of basis function: 736
    Number of Cartesian functions: 736
    Spherical Harmonics?: false
    Max angular momentum: 3


  -Total Gradient:
     Atom            X                  Y                   Z
    ------   -----------------  -----------------  -----------------
       1        0.001886036300    -0.000331347191    -0.003340044428
       2       -0.004724149378    -0.003600074931     0.009611468700
       3        0.000928003783     0.005434063357    -0.000883540216
       4        0.000990716738     0.000477644838    -0.002913358026
       5        0.000141377346    -0.005949832009    -0.001082466402
       6       -0.000778309866     0.000802209890    -0.000272914455
       7       -0.001356189000    -0.000131130019     0.000960135678
       8        0.001594715672     0.000441200825    -0.000736942239
       9        0.000409065647     0.004299301103    -0.000897224965
      10        0.000318669267    -0.001337454471    -0.000456581133
      11        0.000537307427    -0.000354292802     0.000062007373
      12       -0.000303534301     0.000343940168    -0.000176292295
      13        0.000179823587    -0.000156290070     0.000121884423
      14       -0.000172636593    -0.000459259280    -0.000156264717
      15       -0.000069799117    -0.000061816309    -0.000069766212
      16        0.000418902489     0.000583136903     0.000229898912


*** tstop() called on cx1-1-2-1.cx1.hpc.ic.ac.uk at Fri Sep  2 12:33:09 2016
Module time:
	user time   =      13.66 seconds =       0.23 minutes
	system time =       0.19 seconds =       0.00 minutes
	total time  =          4 seconds =       0.07 minutes
Total time:
	user time   =      53.10 seconds =       0.89 minutes
	system time =       0.73 seconds =       0.01 minutes
	total time  =         18 seconds =       0.30 minutes
CURRENT ENERGY: -270.0260657021

			-----------------------------------------
			 OPTKING 2.0: for geometry optimizations 
			  - R.A. King,  Bethel University        
			-----------------------------------------

	Previous internal coordinate definitions found.
	---Fragment 1 Geometry and Gradient---
	 O          -2.7372962098        2.6468599565        0.0016114765
	 C          -1.9642883805        0.5654120564        0.3964302781
	 C           0.7108190510        0.1366031170        1.3376566280
	 C          -3.5178975260       -1.7523103230       -0.2216647588
	 C           2.6346533244        0.1780827957       -0.8798389383
	 H           0.8038866615       -1.6716835540        2.3018228411
	 H           1.1454560749        1.5935637290        2.7087007212
	 C           4.8208452956       -1.6786539550       -0.5402444539
	 H           1.6869045818       -0.1601781394       -2.6698594608
	 H           3.3832942958        2.0763828373       -1.0488775025
	 H           6.1823665776       -1.5091139247       -2.0651030259
	 H           4.1438839438       -3.6159724730       -0.5150722432
	 H           5.8124556746       -1.3402936897        1.2249977645
	 H          -2.4561667213       -3.0463473064       -1.4103091562
	 H          -5.2465946912       -1.2044968005       -1.1624357305
	 H          -3.9721062247       -2.7567208319        1.5110987539
	             0.0018860363       -0.0003313472       -0.0033400444
	            -0.0047241494       -0.0036000749        0.0096114687
	             0.0009280038        0.0054340634       -0.0008835402
	             0.0009907167        0.0004776448       -0.0029133580
	             0.0001413773       -0.0059498320       -0.0010824664
	            -0.0007783099        0.0008022099       -0.0002729145
	            -0.0013561890       -0.0001311300        0.0009601357
	             0.0015947157        0.0004412008       -0.0007369422
	             0.0004090656        0.0042993011       -0.0008972250
	             0.0003186693       -0.0013374545       -0.0004565811
	             0.0005373074       -0.0003542928        0.0000620074
	            -0.0003035343        0.0003439402       -0.0001762923
	             0.0001798236       -0.0001562901        0.0001218844
	            -0.0001726366       -0.0004592593       -0.0001562647
	            -0.0000697991       -0.0000618163       -0.0000697662
	             0.0004189025        0.0005831369        0.0002298989

	---Fragment 1 Intrafragment Coordinates---
	 - Coordinate -           - BOHR/RAD -       - ANG/DEG -
	 R(1,2)           =         2.255183	       1.193391
	 R(2,3)           =         2.868098	       1.517732
	 R(2,4)           =         2.857898	       1.512334
	 R(3,5)           =         2.936008	       1.553669
	 R(3,6)           =         2.051385	       1.085546
	 R(3,7)           =         2.047292	       1.083380
	 R(4,14)          =         2.052968	       1.086384
	 R(4,15)          =         2.042925	       1.081070
	 R(4,16)          =         2.053683	       1.086763
	 R(5,8)           =         2.888292	       1.528418
	 R(5,9)           =         2.053490	       1.086660
	 R(5,10)          =         2.047579	       1.083532
	 R(8,11)          =         2.051262	       1.085481
	 R(8,12)          =         2.052343	       1.086053
	 R(8,13)          =         2.052769	       1.086278
	 B(1,2,3)         =         2.111980	     121.007513
	 B(1,2,4)         =         2.122703	     121.621911
	 B(2,3,5)         =         1.940342	     111.173423
	 B(2,3,6)         =         1.905353	     109.168693
	 B(2,3,7)         =         1.887447	     108.142766
	 B(2,4,14)        =         1.933993	     110.809659
	 B(2,4,15)        =         1.919981	     110.006799
	 B(2,4,16)        =         1.911752	     109.535318
	 B(3,2,4)         =         2.045152	     117.178550
	 B(3,5,8)         =         1.980228	     113.458696
	 B(3,5,9)         =         1.932239	     110.709119
	 B(3,5,10)        =         1.891280	     108.362378
	 B(5,3,6)         =         1.915280	     109.737489
	 B(5,3,7)         =         1.935459	     110.893629
	 B(5,8,11)        =         1.941064	     111.214781
	 B(5,8,12)        =         1.937559	     111.013974
	 B(5,8,13)        =         1.939902	     111.148192
	 B(6,3,7)         =         1.878561	     107.633627
	 B(8,5,9)         =         1.924034	     110.239010
	 B(8,5,10)        =         1.905981	     109.204674
	 B(9,5,10)        =         1.822959	     104.447832
	 B(11,8,12)       =         1.881861	     107.822719
	 B(11,8,13)       =         1.880734	     107.758114
	 B(12,8,13)       =         1.880086	     107.721007
	 B(14,4,15)       =         1.917733	     109.878023
	 B(14,4,16)       =         1.869850	     107.134487
	 B(15,4,16)       =         1.909791	     109.422947
	 D(1,2,3,5)       =        -1.436852	     -82.325542
	 D(1,2,3,6)       =         2.730947	     156.471748
	 D(1,2,3,7)       =         0.691819	      39.638337
	 D(1,2,4,14)      =         2.204620	     126.315394
	 D(1,2,4,15)      =         0.080533	       4.614193
	 D(1,2,4,16)      =        -2.019299	    -115.697296
	 D(2,3,5,8)       =        -2.522978	    -144.556000
	*D(2,3,5,9)       =        -0.349066	     -19.999985
	 D(2,3,5,10)      =         1.640381	      93.986891
	 D(3,2,4,14)      =        -0.849902	     -48.695795
	 D(3,2,4,15)      =        -2.973989	    -170.396997
	 D(3,2,4,16)      =         1.209365	      69.291514
	 D(3,5,8,11)      =        -3.078755	    -176.399666
	 D(3,5,8,12)      =         1.109079	      63.545525
	 D(3,5,8,13)      =        -0.983256	     -56.336427
	 D(4,2,3,5)       =         1.618237	      92.718168
	 D(4,2,3,6)       =        -0.497149	     -28.484542
	 D(4,2,3,7)       =        -2.536277	    -145.317952
	 D(6,3,5,8)       =        -0.413419	     -23.687169
	 D(6,3,5,9)       =         1.760493	     100.868846
	 D(6,3,5,10)      =        -2.533246	    -145.144278
	 D(7,3,5,8)       =         1.659688	      95.093136
	 D(7,3,5,9)       =        -2.449584	    -140.350848
	 D(7,3,5,10)      =        -0.460138	     -26.363972
	 D(9,5,8,11)      =         1.026091	      58.790667
	 D(9,5,8,12)      =        -1.069261	     -61.264142
	 D(9,5,8,13)      =         3.121590	     178.853905
	 D(10,5,8,11)     =        -0.967178	     -55.415195
	 D(10,5,8,12)     =        -3.062529	    -175.470004
	 D(10,5,8,13)     =         1.128321	      64.648043

	Current energy   :      -270.0260657021

	Energy change for the previous step:
		Projected    :         0.0025445139
		Actual       :        -0.0002246556

	Performing BFGS update.
	Previous computed or guess Hessian on step 1.
	Steps to be used in Hessian update: 1
	Taking RFO optimization step.
	Going to follow RFO solution 1.
	Using RFO vector 1.

	Determining step-restricting scale parameter for RS-RFO.
	Maximum step size allowed    0.50000

	 Iter      |step|        alpha        rfo_root  
	------------------------------------------------
	    0     0.50507       1.00000           1
	    1     0.50009       1.03746           1
	    2     0.50000       1.03811           1
	------------------------------------------------
	Norm of target step-size    0.50000
	Projected energy change by RFO approximation:        -0.0064082305

	Back-transformation to cartesian coordinates...
	Successfully converged to displaced geometry.

	Back-transformation to cartesian coordinates to adjust frozen coordinates...
	Successfully converged to displaced geometry.

	--- Internal Coordinate Step in ANG or DEG, aJ/ANG or AJ/DEG ---
	 ---------------------------------------------------------------------------
	   Coordinate                Previous        Force       Change         New 
	   ----------                --------       ------       ------       ------
	    1 R(1,2)          =      1.193391     0.003028     0.000151     1.193543
	    2 R(2,3)          =      1.517732     0.000428    -0.000961     1.516771
	    3 R(2,4)          =      1.512334     0.003649     0.000220     1.512554
	    4 R(3,5)          =      1.553669    -0.034916     0.012872     1.566541
	    5 R(3,6)          =      1.085546     0.007174    -0.000196     1.085350
	    6 R(3,7)          =      1.083380    -0.002157    -0.001474     1.081906
	    7 R(4,14)         =      1.086384    -0.002395     0.000010     1.086394
	    8 R(4,15)         =      1.081070    -0.000615    -0.000078     1.080991
	    9 R(4,16)         =      1.086763     0.001515     0.000093     1.086856
	   10 R(5,8)          =      1.528418    -0.010363    -0.000383     1.528035
	   11 R(5,9)          =      1.086660     0.000947    -0.001078     1.085583
	   12 R(5,10)         =      1.083532     0.008945    -0.000526     1.083007
	   13 R(8,11)         =      1.085481    -0.002317     0.000027     1.085509
	   14 R(8,12)         =      1.086053     0.001868     0.000054     1.086107
	   15 R(8,13)         =      1.086278    -0.001367     0.000312     1.086591
	   16 B(1,2,3)        =    121.007513     0.000069     0.188393   121.195906
	   17 B(1,2,4)        =    121.621911    -0.000008    -0.181874   121.440037
	   18 B(2,3,5)        =    111.173423    -0.000120    -0.082035   111.091388
	   19 B(2,3,6)        =    109.168693     0.000073    -1.115602   108.053090
	   20 B(2,3,7)        =    108.142766     0.000105     0.710808   108.853574
	   21 B(2,4,14)       =    110.809659    -0.000062    -0.160306   110.649353
	   22 B(2,4,15)       =    110.006799    -0.000016    -0.055570   109.951230
	   23 B(2,4,16)       =    109.535318     0.000096     0.218764   109.754082
	   24 B(3,2,4)        =    117.178550    -0.000047    -0.494879   116.683670
	   25 B(3,5,8)        =    113.458696    -0.000090     0.831918   114.290614
	   26 B(3,5,9)        =    110.709119    -0.000029     0.589401   111.298520
	   27 B(3,5,10)       =    108.362378    -0.000008    -0.217303   108.145075
	   28 B(5,3,6)        =    109.737489    -0.000000    -0.217037   109.520452
	   29 B(5,3,7)        =    110.893629    -0.000058     1.043579   111.937208
	   30 B(5,8,11)       =    111.214781    -0.000069     0.061020   111.275801
	   31 B(5,8,12)       =    111.013974     0.000063    -0.066186   110.947787
	   32 B(5,8,13)       =    111.148192    -0.000021     0.018195   111.166388
	   33 B(6,3,7)        =    107.633627     0.000008    -0.397943   107.235684
	   34 B(8,5,9)        =    110.239010     0.000055     0.865332   111.104342
	   35 B(8,5,10)       =    109.204674     0.000075    -0.362479   108.842195
	   36 B(9,5,10)       =    104.447832     0.000005    -2.035248   102.412584
	   37 B(11,8,12)      =    107.822719     0.000007     0.075142   107.897861
	   38 B(11,8,13)      =    107.758114     0.000033    -0.015395   107.742719
	   39 B(12,8,13)      =    107.721007    -0.000012    -0.073854   107.647153
	   40 B(14,4,15)      =    109.878023     0.000018    -0.000262   109.877760
	   41 B(14,4,16)      =    107.134487    -0.000011    -0.017909   107.116578
	   42 B(15,4,16)      =    109.422947    -0.000025     0.019393   109.442340
	   43 D(1,2,3,5)      =    -82.325542    -0.000019   -12.089997   -94.415540
	   44 D(1,2,3,6)      =    156.471748    -0.000012   -11.045860   145.425888
	   45 D(1,2,3,7)      =     39.638337    -0.000037   -10.355549    29.282789
	   46 D(1,2,4,14)     =    126.315394     0.000017     6.968784   133.284178
	   47 D(1,2,4,15)     =      4.614193     0.000023     7.112071    11.726263
	   48 D(1,2,4,16)     =   -115.697296     0.000019     6.984997  -108.712299
	   49 D(2,3,5,8)      =   -144.556000     0.000004    -2.310155  -146.866155
	   50 *D(2,3,5,9)     =    -19.999985    -0.000000     0.000000   -19.999985
	   51 D(2,3,5,10)     =     93.986891    -0.000003    -2.237726    91.749165
	   52 D(3,2,4,14)     =    -48.695795    -0.000023    -7.366863   -56.062658
	   53 D(3,2,4,15)     =   -170.396997    -0.000016    -7.223576  -177.620573
	   54 D(3,2,4,16)     =     69.291514    -0.000021    -7.350650    61.940864
	   55 D(3,5,8,11)     =   -176.399666    -0.000003     1.679675  -174.719990
	   56 D(3,5,8,12)     =     63.545525    -0.000004     1.588336    65.133862
	   57 D(3,5,8,13)     =    -56.336427    -0.000007     1.713468   -54.622959
	   58 D(4,2,3,5)      =     92.718168     0.000020     2.188712    94.906880
	   59 D(4,2,3,6)      =    -28.484542     0.000026     3.232850   -25.251692
	   60 D(4,2,3,7)      =   -145.317952     0.000002     3.923161  -141.394791
	   61 D(6,3,5,8)      =    -23.687169     0.000007    -3.894794   -27.581963
	   62 D(6,3,5,9)      =    100.868846     0.000003    -1.584639    99.284207
	   63 D(6,3,5,10)     =   -145.144278    -0.000000    -3.822365  -148.966643
	   64 D(7,3,5,8)      =     95.093136     0.000001    -3.878909    91.214228
	   65 D(7,3,5,9)      =   -140.350848    -0.000003    -1.568754  -141.919602
	   66 D(7,3,5,10)     =    -26.363972    -0.000006    -3.806480   -30.170452
	   67 D(9,5,8,11)     =     58.790667     0.000012    -0.477088    58.313579
	   68 D(9,5,8,12)     =    -61.264142     0.000011    -0.568427   -61.832569
	   69 D(9,5,8,13)     =    178.853905     0.000007    -0.443295   178.410610
	   70 D(10,5,8,11)    =    -55.415195    -0.000006     1.694757   -53.720438
	   71 D(10,5,8,12)    =   -175.470004    -0.000007     1.603418  -173.866586
	   72 D(10,5,8,13)    =     64.648043    -0.000010     1.728550    66.376593
	 ---------------------------------------------------------------------------

  ==> Convergence Check <==

  Measures of convergence in internal coordinates in au.
  Criteria marked as inactive (o), active & met (*), and active & unmet ( ).
  ---------------------------------------------------------------------------------------------
   Step     Total Energy     Delta E     MAX Force     RMS Force      MAX Disp      RMS Disp   
  ---------------------------------------------------------------------------------------------
    Convergence Criteria    1.00e-06 *    3.00e-04 *             o    1.20e-03 *             o
  ---------------------------------------------------------------------------------------------
      2    -270.02606570   -2.25e-04      4.24e-03      8.87e-04 o    2.11e-01      5.88e-02 o  ~
  ---------------------------------------------------------------------------------------------

	Writing optimization data to binary file.
	Structure for next step:
	Cartesian Geometry (in Angstrom)
	    O    -1.5063705011   1.4108950860   0.1150372067
	    C    -1.0377548604   0.3137317561   0.1493299462
	    C     0.3636736259   0.0741701205   0.6777268087
	    C    -1.8801372356  -0.9128159471  -0.1223179345
	    C     1.4110533651   0.0627592592  -0.4871401761
	    H     0.3729481413  -0.8862486387   1.1831909741
	    H     0.5916123692   0.8286922273   1.4188484198
	    C     2.5876401460  -0.8866098075  -0.2652525486
	    H     0.9340773269  -0.1229856578  -1.4444709323
	    H     1.7918449146   1.0693615141  -0.6081899414
	    H     3.3270297911  -0.7885584213  -1.0539337865
	    H     2.2544566136  -1.9201831398  -0.2467033968
	    H     3.0830171415  -0.6831846066   0.6802100557
	    H    -1.3720276459  -1.5816275489  -0.8113514555
	    H    -2.8365576326  -0.6200232231  -0.5322870847
	    H    -2.0358954453  -1.4634786063   0.8016761654
			--------------------------
			 OPTKING Finished Execution 
			--------------------------

    Structure for next step:
    Molecular point group: c1
    Full point group: C1

    Geometry (in Angstrom), charge = 0, multiplicity = 1:

    O           -1.499373472035     1.408972564317     0.107481351861
    C           -1.030757867126     0.311809318184     0.141774088686
    C            0.370670512120     0.072247700894     0.670170910874
    C           -1.873140177943    -0.914738291361    -0.129873771253
    C            1.418050171367     0.060836840438    -0.494695984936
    H            0.379945026817    -0.888170984966     1.175635037667
    H            0.598609238077     0.826769750073     1.411292465438
    C            2.594636862481    -0.888532153731    -0.272808374423
    H            0.941074169657    -0.124908062350    -1.452026668070
    H            1.798841691792     1.067439018458    -0.615745741048
    H            3.334026451039    -0.790480775052    -1.061489552036
    H            2.261453355431    -1.922105407135    -0.254259224065
    H            3.090013820137    -0.685106968347     0.672654157705
    H           -1.365030627112    -1.583549842044    -0.818907239609
    H           -2.829560501971    -0.621945589698    -0.539842890073
    H           -2.028898375821    -1.465400908453     0.794120258091

gradient() will perform analytic gradient computation.

*** tstart() called on cx1-1-2-1.cx1.hpc.ic.ac.uk
*** at Fri Sep  2 12:33:09 2016


         ---------------------------------------------------------
                                   SCF
            by Justin Turney, Rob Parrish, and Andy Simmonett
                              RHF Reference
                        4 Threads,   2000 MiB Core
         ---------------------------------------------------------

  ==> Geometry <==

    Molecular point group: c1
    Full point group: C1

    Geometry (in Angstrom), charge = 0, multiplicity = 1:

       Center              X                  Y                   Z               Mass       
    ------------   -----------------  -----------------  -----------------  -----------------
           O         -1.499373472035     1.408972564317     0.107481351861    15.994914619560
           C         -1.030757867126     0.311809318184     0.141774088686    12.000000000000
           C          0.370670512120     0.072247700894     0.670170910874    12.000000000000
           C         -1.873140177943    -0.914738291361    -0.129873771253    12.000000000000
           C          1.418050171367     0.060836840438    -0.494695984936    12.000000000000
           H          0.379945026817    -0.888170984966     1.175635037667     1.007825032070
           H          0.598609238077     0.826769750073     1.411292465438     1.007825032070
           C          2.594636862481    -0.888532153731    -0.272808374423    12.000000000000
           H          0.941074169657    -0.124908062350    -1.452026668070     1.007825032070
           H          1.798841691792     1.067439018458    -0.615745741048     1.007825032070
           H          3.334026451039    -0.790480775052    -1.061489552036     1.007825032070
           H          2.261453355431    -1.922105407135    -0.254259224065     1.007825032070
           H          3.090013820137    -0.685106968347     0.672654157705     1.007825032070
           H         -1.365030627112    -1.583549842044    -0.818907239609     1.007825032070
           H         -2.829560501971    -0.621945589698    -0.539842890073     1.007825032070
           H         -2.028898375821    -1.465400908453     0.794120258091     1.007825032070

  Running in c1 symmetry.

  Rotational constants: A =      0.23284  B =      0.06225  C =      0.05451 [cm^-1]
  Rotational constants: A =   6980.45222  B =   1866.09454  C =   1634.30337 [MHz]
  Nuclear repulsion =  236.414038627612001

  Charge       = 0
  Multiplicity = 1
  Electrons    = 48
  Nalpha       = 24
  Nbeta        = 24

  ==> Algorithm <==

  SCF Algorithm Type is DF.
  DIIS enabled.
  MOM disabled.
  Fractional occupation disabled.
  Guess Type is READ.
  Energy threshold   = 1.00e-08
  Density threshold  = 1.00e-08
  Integral threshold = 0.00e+00

  ==> Primary Basis <==

  Basis Set: 6-31G*
    Number of shells: 56
    Number of basis function: 110
    Number of Cartesian functions: 110
    Spherical Harmonics?: false
    Max angular momentum: 2

  ==> Pre-Iterations <==

   -------------------------------------------------------
    Irrep   Nso     Nmo     Nalpha   Nbeta   Ndocc  Nsocc
   -------------------------------------------------------
     A        110     110       0       0       0       0
   -------------------------------------------------------
    Total     110     110      24      24      24       0
   -------------------------------------------------------

 OEINTS: Overlap, kinetic, potential, dipole, and quadrupole integrals
         stored in file 35.

  ==> Integral Setup <==

  ==> DFJK: Density-Fitted J/K Matrices <==

    J tasked:                  Yes
    K tasked:                  Yes
    wK tasked:                  No
    OpenMP threads:              4
    Integrals threads:           4
    Memory (MB):              1430
    Algorithm:                Core
    Integral Cache:           NONE
    Schwarz Cutoff:          1E-12
    Fitting Condition:       1E-12

   => Auxiliary Basis Set <=

  Basis Set: 
    Number of shells: 234
    Number of basis function: 736
    Number of Cartesian functions: 736
    Spherical Harmonics?: false
    Max angular momentum: 3

  Minimum eigenvalue in the overlap matrix is 4.0355900766E-03.
  Using Symmetric Orthogonalization.
  SCF Guess: Reading in previously saved MOs, projecting if necessary.

  Using orbitals from previous SCF, no projection.
  Recomputing DOCC and SOCC from number of alpha and beta electrons from previous calculation.
              A 
    DOCC [    24 ]

  ==> Iterations <==

                           Total Energy        Delta E     RMS |[F,P]|

   @DF-RHF iter   0:  -269.97387791801754   -2.69974e+02   2.85504e-03 
   @DF-RHF iter   1:  -270.02120481045017   -4.73269e-02   4.71522e-04 
   @DF-RHF iter   2:  -270.02346118670096   -2.25638e-03   1.91059e-04 DIIS
   @DF-RHF iter   3:  -270.02382078866179   -3.59602e-04   8.85553e-05 DIIS
   @DF-RHF iter   4:  -270.02392471264704   -1.03924e-04   3.45477e-05 DIIS
   @DF-RHF iter   5:  -270.02393835635780   -1.36437e-05   1.51613e-05 DIIS
   @DF-RHF iter   6:  -270.02394332866425   -4.97231e-06   2.91398e-06 DIIS
   @DF-RHF iter   7:  -270.02394348643071   -1.57766e-07   9.08670e-07 DIIS
   @DF-RHF iter   8:  -270.02394350198261   -1.55519e-08   4.24704e-07 DIIS
   @DF-RHF iter   9:  -270.02394350798619   -6.00357e-09   2.15742e-07 DIIS
   @DF-RHF iter  10:  -270.02394351011554   -2.12935e-09   6.41488e-08 DIIS
   @DF-RHF iter  11:  -270.02394351026925   -1.53705e-10   1.62738e-08 DIIS
   @DF-RHF iter  12:  -270.02394351027436   -5.11591e-12   4.10062e-09 DIIS

  ==> Post-Iterations <==

    Orbital Energies (a.u.)
    -----------------------

    Doubly Occupied:                                                      

       1A    -20.547521     2A    -11.324297     3A    -11.235880  
       4A    -11.231403     5A    -11.228698     6A    -11.221855  
       7A     -1.392886     8A     -1.078368     9A     -1.013318  
      10A     -0.950627    11A     -0.832982    12A     -0.735314  
      13A     -0.651333    14A     -0.650027    15A     -0.612535  
      16A     -0.601931    17A     -0.582130    18A     -0.560292  
      19A     -0.535732    20A     -0.521773    21A     -0.504091  
      22A     -0.479625    23A     -0.472144    24A     -0.397232  

    Virtual:                                                              

      25A      0.166610    26A      0.222279    27A      0.252744  
      28A      0.273300    29A      0.283586    30A      0.304767  
      31A      0.306936    32A      0.314911    33A      0.324946  
      34A      0.343591    35A      0.348521    36A      0.402403  
      37A      0.413774    38A      0.428626    39A      0.492090  
      40A      0.500504    41A      0.708803    42A      0.733503  
      43A      0.739093    44A      0.766409    45A      0.777690  
      46A      0.795123    47A      0.821734    48A      0.881525  
      49A      0.901211    50A      0.923783    51A      0.930442  
      52A      0.982291    53A      1.029043    54A      1.050760  
      55A      1.075189    56A      1.110475    57A      1.123102  
      58A      1.130251    59A      1.146194    60A      1.169931  
      61A      1.179566    62A      1.196905    63A      1.206187  
      64A      1.227116    65A      1.238778    66A      1.252407  
      67A      1.300508    68A      1.342116    69A      1.353743  
      70A      1.417027    71A      1.477202    72A      1.641244  
      73A      1.671800    74A      1.717550    75A      1.835370  
      76A      1.877114    77A      1.921615    78A      1.993630  
      79A      2.077574    80A      2.079390    81A      2.119853  
      82A      2.126028    83A      2.172145    84A      2.225839  
      85A      2.231004    86A      2.281014    87A      2.321215  
      88A      2.372028    89A      2.413699    90A      2.499906  
      91A      2.516149    92A      2.603287    93A      2.649493  
      94A      2.662007    95A      2.698340    96A      2.732292  
      97A      2.768594    98A      2.818656    99A      2.957435  
     100A      3.006259   101A      3.044044   102A      3.106355  
     103A      3.372976   104A      3.375269   105A      4.437231  
     106A      4.521399   107A      4.595014   108A      4.745112  
     109A      4.878249   110A      4.976661  

    Final Occupation by Irrep:
              A 
    DOCC [    24 ]

  Energy converged.

  @DF-RHF Final Energy:  -270.02394351027436

   => Energetics <=

    Nuclear Repulsion Energy =            236.4140386276120012
    One-Electron Energy =                -834.1519781271105103
    Two-Electron Energy =                 327.7139959892242018
    DFT Exchange-Correlation Energy =       0.0000000000000000
    Empirical Dispersion Energy =           0.0000000000000000
    PCM Polarization Energy =               0.0000000000000000
    EFP Energy =                            0.0000000000000000
    Total Energy =                       -270.0239435102742505

    Alert: EFP and PCM quantities not currently incorporated into SCF psivars.

Properties will be evaluated at   0.000000,   0.000000,   0.000000 Bohr
  ==> Properties <==


Properties computed using the SCF density matrix

  Nuclear Dipole Moment: (a.u.)
     X:     5.7868      Y:    -5.7938      Z:    -0.6450

  Electronic Dipole Moment: (a.u.)
     X:    -5.2168      Y:     4.7125      Z:     0.6790

  Dipole Moment: (a.u.)
     X:     0.5700      Y:    -1.0813      Z:     0.0340     Total:     1.2228

  Dipole Moment: (Debye)
     X:     1.4487      Y:    -2.7483      Z:     0.0864     Total:     3.1079


  Saving occupied orbitals to File 180.

*** tstop() called on cx1-1-2-1.cx1.hpc.ic.ac.uk at Fri Sep  2 12:33:14 2016
Module time:
	user time   =      12.88 seconds =       0.21 minutes
	system time =       0.18 seconds =       0.00 minutes
	total time  =          5 seconds =       0.08 minutes
Total time:
	user time   =      66.65 seconds =       1.11 minutes
	system time =       0.91 seconds =       0.02 minutes
	total time  =         23 seconds =       0.38 minutes

*** tstart() called on cx1-1-2-1.cx1.hpc.ic.ac.uk
*** at Fri Sep  2 12:33:14 2016


         ------------------------------------------------------------
                                   SCF GRAD                          
                          Rob Parrish, Justin Turney,                
                       Andy Simmonett, and Alex Sokolov              
         ------------------------------------------------------------

  ==> Geometry <==

    Molecular point group: c1
    Full point group: C1

    Geometry (in Angstrom), charge = 0, multiplicity = 1:

       Center              X                  Y                   Z               Mass       
    ------------   -----------------  -----------------  -----------------  -----------------
           O         -1.499373472035     1.408972564317     0.107481351861    15.994914619560
           C         -1.030757867126     0.311809318184     0.141774088686    12.000000000000
           C          0.370670512120     0.072247700894     0.670170910874    12.000000000000
           C         -1.873140177943    -0.914738291361    -0.129873771253    12.000000000000
           C          1.418050171367     0.060836840438    -0.494695984936    12.000000000000
           H          0.379945026817    -0.888170984966     1.175635037667     1.007825032070
           H          0.598609238077     0.826769750073     1.411292465438     1.007825032070
           C          2.594636862481    -0.888532153731    -0.272808374423    12.000000000000
           H          0.941074169657    -0.124908062350    -1.452026668070     1.007825032070
           H          1.798841691792     1.067439018458    -0.615745741048     1.007825032070
           H          3.334026451039    -0.790480775052    -1.061489552036     1.007825032070
           H          2.261453355431    -1.922105407135    -0.254259224065     1.007825032070
           H          3.090013820137    -0.685106968347     0.672654157705     1.007825032070
           H         -1.365030627112    -1.583549842044    -0.818907239609     1.007825032070
           H         -2.829560501971    -0.621945589698    -0.539842890073     1.007825032070
           H         -2.028898375821    -1.465400908453     0.794120258091     1.007825032070

  Nuclear repulsion =  236.414038627612001

  ==> Basis Set <==

  Basis Set: 6-31G*
    Number of shells: 56
    Number of basis function: 110
    Number of Cartesian functions: 110
    Spherical Harmonics?: false
    Max angular momentum: 2

  ==> DFJKGrad: Density-Fitted SCF Gradients <==

    Gradient:                    1
    J tasked:                  Yes
    K tasked:                  Yes
    wK tasked:                  No
    OpenMP threads:              4
    Integrals threads:           4
    Memory (MB):              1430
    Schwarz Cutoff:          0E+00
    Fitting Condition:       1E-12

   => Auxiliary Basis Set <=

  Basis Set: 
    Number of shells: 234
    Number of basis function: 736
    Number of Cartesian functions: 736
    Spherical Harmonics?: false
    Max angular momentum: 3


  -Total Gradient:
     Atom            X                  Y                   Z
    ------   -----------------  -----------------  -----------------
       1       -0.001785688447    -0.001005921244     0.009073435785
       2        0.007739845082    -0.003658929177    -0.026978533017
       3       -0.007007792165     0.009759562573     0.015732832217
       4       -0.002634134453     0.000752330150     0.009688300507
       5        0.000565898117    -0.011956250788    -0.005674015873
       6       -0.001468167887     0.001407348842     0.000270513053
       7       -0.001310003173    -0.002262949712     0.002793868813
       8        0.003132275934     0.001783029056    -0.001064839737
       9        0.002362605287     0.008574386651    -0.001350979013
      10       -0.000803337181    -0.002841212067    -0.003017557688
      11        0.000805422117    -0.000281698559     0.000160525827
      12       -0.000609782347     0.000480696141    -0.000197158947
      13        0.000453916278    -0.000429630934     0.000406630747
      14        0.001177377025     0.001276952063     0.000090261414
      15        0.000045800150     0.000239724188     0.000308714948
      16       -0.000664234335    -0.001837437188    -0.000241999036


*** tstop() called on cx1-1-2-1.cx1.hpc.ic.ac.uk at Fri Sep  2 12:33:19 2016
Module time:
[...]
			-----------------------------------------

	Previous internal coordinate definitions found.
	---Fragment 1 Geometry and Gradient---
	 O          -2.8850769984        2.6377291529        0.3387721798
	 C          -1.9431575072        0.5903018825        0.4075752221
	 C           0.7582624764        0.2059157141        1.2847304944
	 C          -3.3892263450       -1.7459083091       -0.3930805746
	 C           2.6202081755        0.1345168004       -0.9708168167
	 H           0.8710189499       -1.5629250747        2.3237582583
	 H           1.2432324980        1.7223091526        2.5689323983
	 C           4.7975935598       -1.7193244534       -0.5922646519
	 H           1.6200834732       -0.2917613218       -2.7137176778
	 H           3.3677586988        2.0239333664       -1.2470416982
	 H           6.1086245246       -1.6471306490       -2.1675217103
	 H           4.1119632730       -3.6473370780       -0.4308507107
	 H           5.8460854905       -1.2837296253        1.1174213717
	 H          -2.2558619894       -2.9567871860       -1.5993418831
	 H          -5.1038074291       -1.2036658018       -1.3628076052
	 H          -3.8800467474       -2.8377437530        1.2763010010
	             0.0000109470       -0.0000285375        0.0000051586
	            -0.0003511090       -0.0027094057       -0.0001962559
	             0.0003234621        0.0046341644        0.0000783505
	            -0.0000140392        0.0000013314        0.0000109441
	             0.0005936863       -0.0056204706        0.0006562176
	            -0.0000027774       -0.0000021504       -0.0000041039
	             0.0000012578       -0.0000028554        0.0000132549
	             0.0000118405       -0.0000132863        0.0000322452
	            -0.0005706729        0.0037365669       -0.0005770864
	            -0.0000139893       -0.0000141943       -0.0000116472
	            -0.0000084505        0.0000101751       -0.0000053787
	            -0.0000047721        0.0000001788        0.0000017982
	             0.0000013401       -0.0000013077       -0.0000019245
	             0.0000184089        0.0000061036       -0.0000090260
	             0.0000012130        0.0000108362       -0.0000002687
	             0.0000036548       -0.0000071484        0.0000077222

	---Fragment 1 Intrafragment Coordinates---
	 - Coordinate -           - BOHR/RAD -       - ANG/DEG -
	 R(1,2)           =         2.254752	       1.193163
	 R(2,3)           =         2.866151	       1.516702
	 R(2,4)           =         2.861825	       1.514413
	 R(3,5)           =         2.925651	       1.548188
	 R(3,6)           =         2.054529	       1.087210
	 R(3,7)           =         2.045439	       1.082400
	 R(4,14)          =         2.050807	       1.085240
	 R(4,15)          =         2.043082	       1.081153
	 R(4,16)          =         2.054226	       1.087050
	 R(5,8)           =         2.884621	       1.526476
	 R(5,9)           =         2.054183	       1.087027
	 R(5,10)          =         2.050616	       1.085139
	 R(8,11)          =         2.050719	       1.085194
	 R(8,12)          =         2.052651	       1.086216
	 R(8,13)          =         2.052341	       1.086052
	 B(1,2,3)         =         2.123345	     121.658687
	 B(1,2,4)         =         2.119580	     121.442986
	 B(2,3,5)         =         1.946764	     111.541371
	 B(2,3,6)         =         1.898599	     108.781685
	 B(2,3,7)         =         1.892506	     108.432626
	 B(2,4,14)        =         1.946909	     111.549644
	 B(2,4,15)        =         1.917907	     109.887985
	 B(2,4,16)        =         1.904200	     109.102651
	 B(3,2,4)         =         2.040245	     116.897419
	 B(3,5,8)         =         1.976752	     113.259567
	 B(3,5,9)         =         1.927660	     110.446773
	 B(3,5,10)        =         1.889537	     108.262506
	 B(5,3,6)         =         1.911291	     109.508883
	 B(5,3,7)         =         1.929683	     110.562716
	 B(5,8,11)        =         1.938135	     111.046948
	 B(5,8,12)        =         1.941029	     111.212760
	 B(5,8,13)        =         1.937502	     111.010714
	 B(6,3,7)         =         1.883614	     107.923126
	 B(8,5,9)         =         1.923552	     110.211400
	 B(8,5,10)        =         1.912030	     109.551255
	 B(9,5,10)        =         1.828026	     104.738159
	 B(11,8,12)       =         1.882849	     107.879280
	 B(11,8,13)       =         1.881600	     107.807713
	 B(12,8,13)       =         1.880201	     107.727565
	 B(14,4,15)       =         1.919110	     109.956897
	 B(14,4,16)       =         1.871526	     107.230517
	 B(15,4,16)       =         1.903149	     109.042432
	 D(1,2,3,5)       =        -1.661589	     -95.202052
	 D(1,2,3,6)       =         2.511583	     143.903080
	 D(1,2,3,7)       =         0.467326	      26.775806
	 D(1,2,4,14)      =         2.349720	     134.629019
	 D(1,2,4,15)      =         0.216662	      12.413841
	 D(1,2,4,16)      =        -1.869058	    -107.089156
	 D(2,3,5,8)       =        -2.516163	    -144.165523
	*D(2,3,5,9)       =        -0.349066	     -19.999985
	 D(2,3,5,10)      =         1.643022	      94.138201
	 D(3,2,4,14)      =        -0.785920	     -45.029915
	 D(3,2,4,15)      =        -2.918978	    -167.245093
	 D(3,2,4,16)      =         1.278487	      73.251910
	 D(3,5,8,11)      =        -3.092356	    -177.178926
	 D(3,5,8,12)      =         1.093867	      62.673957
	 D(3,5,8,13)      =        -0.999325	     -57.257099
	 D(4,2,3,5)       =         1.474037	      84.456093
	 D(4,2,3,6)       =        -0.635977	     -36.438775
	 D(4,2,3,7)       =        -2.680233	    -153.566049
	 D(6,3,5,8)       =        -0.413576	     -23.696150
	 D(6,3,5,9)       =         1.753522	     100.469388
	 D(6,3,5,10)      =        -2.537577	    -145.392426
	 D(7,3,5,8)       =         1.659708	      95.094292
	 D(7,3,5,9)       =        -2.456379	    -140.740170
	 D(7,3,5,10)      =        -0.464292	     -26.601984
	 D(9,5,8,11)      =         1.021495	      58.527364
	 D(9,5,8,12)      =        -1.075468	     -61.619754
	 D(9,5,8,13)      =         3.114526	     178.449190
	 D(10,5,8,11)     =        -0.981009	     -56.207701
	 D(10,5,8,12)     =        -3.077972	    -176.354819
	 D(10,5,8,13)     =         1.112021	      63.714125

	Current energy   :      -270.0264971643

	Energy change for the previous step:
		Projected    :         0.0000069407
		Actual       :        -0.0000004258

	Performing BFGS update.
	Previous computed or guess Hessian on step 1.
	Steps to be used in Hessian update: 8 7
	Taking RFO optimization step.
	Going to follow RFO solution 1.
	Rejecting RFO root 1 because normalization gives large value.
	Rejecting RFO root 2 because normalization gives large value.
	Rejecting RFO root 3 because normalization gives large value.
	Using RFO vector 4.
	Norm of target step-size    0.00193
	Projected energy change by RFO approximation:        -0.0000000023

	Back-transformation to cartesian coordinates...
	Successfully converged to displaced geometry.

	Back-transformation to cartesian coordinates to adjust frozen coordinates...
	Successfully converged to displaced geometry.

	--- Internal Coordinate Step in ANG or DEG, aJ/ANG or AJ/DEG ---
	 ---------------------------------------------------------------------------
	   Coordinate                Previous        Force       Change         New 
	   ----------                --------       ------       ------       ------
	    1 R(1,2)          =      1.193163     0.000252     0.000013     1.193177
	    2 R(2,3)          =      1.516702    -0.000015    -0.000009     1.516693
	    3 R(2,4)          =      1.514413     0.000135     0.000045     1.514458
	    4 R(3,5)          =      1.548188     0.000169     0.000030     1.548218
	    5 R(3,6)          =      1.087210     0.000003    -0.000006     1.087204
	    6 R(3,7)          =      1.082400    -0.000054    -0.000006     1.082394
	    7 R(4,14)         =      1.085240    -0.000098    -0.000017     1.085224
	    8 R(4,15)         =      1.081153    -0.000016    -0.000001     1.081152
	    9 R(4,16)         =      1.087050    -0.000076    -0.000023     1.087027
	   10 R(5,8)          =      1.526476    -0.000051    -0.000006     1.526470
	   11 R(5,9)          =      1.087027     0.000065     0.000023     1.087050
	   12 R(5,10)         =      1.085139     0.000137     0.000027     1.085167
	   13 R(8,11)         =      1.085194     0.000007     0.000002     1.085196
	   14 R(8,12)         =      1.086216    -0.000013    -0.000006     1.086210
	   15 R(8,13)         =      1.086052     0.000010     0.000004     1.086056
	   16 B(1,2,3)        =    121.658687    -0.000000    -0.001130   121.657557
	   17 B(1,2,4)        =    121.442986    -0.000000    -0.000383   121.442604
	   18 B(2,3,5)        =    111.541371    -0.000001    -0.006165   111.535206
	   19 B(2,3,6)        =    108.781685     0.000000    -0.004789   108.776896
	   20 B(2,3,7)        =    108.432626     0.000001     0.000772   108.433398
	   21 B(2,4,14)       =    111.549644     0.000002     0.007848   111.557492
	   22 B(2,4,15)       =    109.887985     0.000001     0.005776   109.893761
	   23 B(2,4,16)       =    109.102651    -0.000000    -0.000408   109.102242
	   24 B(3,2,4)        =    116.897419     0.000001     0.001504   116.898923
	   25 B(3,5,8)        =    113.259567     0.000002     0.008630   113.268198
	   26 B(3,5,9)        =    110.446773     0.000000     0.002912   110.449685
	   27 B(3,5,10)       =    108.262506    -0.000001    -0.006968   108.255537
	   28 B(5,3,6)        =    109.508883     0.000001     0.004962   109.513845
	   29 B(5,3,7)        =    110.562716    -0.000001    -0.001278   110.561438
	   30 B(5,8,11)       =    111.046948     0.000002     0.010349   111.057297
	   31 B(5,8,12)       =    111.212760     0.000000     0.000360   111.213120
	   32 B(5,8,13)       =    111.010714    -0.000001    -0.002601   111.008113
	   33 B(6,3,7)        =    107.923126     0.000000     0.006812   107.929938
	   34 B(8,5,9)        =    110.211400    -0.000001    -0.008739   110.202661
	   35 B(8,5,10)       =    109.551255    -0.000001    -0.003661   109.547595
	   36 B(9,5,10)       =    104.738159     0.000001     0.007679   104.745838
	   37 B(11,8,12)      =    107.879280    -0.000001    -0.003720   107.875560
	   38 B(11,8,13)      =    107.807713    -0.000000    -0.002548   107.805165
	   39 B(12,8,13)      =    107.727565    -0.000000    -0.002321   107.725245
	   40 B(14,4,15)      =    109.956897    -0.000001    -0.004480   109.952417
	   41 B(14,4,16)      =    107.230517    -0.000001    -0.004110   107.226407
	   42 B(15,4,16)      =    109.042432    -0.000001    -0.005142   109.037290
	   43 D(1,2,3,5)      =    -95.202052     0.000000    -0.003440   -95.205492
	   44 D(1,2,3,6)      =    143.903080     0.000000    -0.002553   143.900527
	   45 D(1,2,3,7)      =     26.775806    -0.000000    -0.008461    26.767346
	   46 D(1,2,4,14)     =    134.629019     0.000000     0.042571   134.671590
	   47 D(1,2,4,15)     =     12.413841    -0.000000     0.038938    12.452780
	   48 D(1,2,4,16)     =   -107.089156     0.000000     0.041993  -107.047163
	   49 D(2,3,5,8)      =   -144.165523     0.000000     0.002857  -144.162666
	   50 *D(2,3,5,9)     =    -19.999985     0.000000     0.000000   -19.999985
	   51 D(2,3,5,10)     =     94.138201     0.000000     0.006807    94.145008
	   52 D(3,2,4,14)     =    -45.029915     0.000000     0.044213   -44.985702
	   53 D(3,2,4,15)     =   -167.245093    -0.000000     0.040581  -167.204512
	   54 D(3,2,4,16)     =     73.251910     0.000000     0.043635    73.295545
	   55 D(3,5,8,11)     =   -177.178926     0.000000    -0.001293  -177.180219
	   56 D(3,5,8,12)     =     62.673957     0.000000    -0.003788    62.670169
	   57 D(3,5,8,13)     =    -57.257099     0.000000     0.000643   -57.256457
	   58 D(4,2,3,5)      =     84.456093     0.000000    -0.005083    84.451010
	   59 D(4,2,3,6)      =    -36.438775     0.000000    -0.004196   -36.442971
	   60 D(4,2,3,7)      =   -153.566049    -0.000000    -0.010104  -153.576152
	   61 D(6,3,5,8)      =    -23.696150     0.000000    -0.003802   -23.699952
	   62 D(6,3,5,9)      =    100.469388     0.000000    -0.006659   100.462729
	   63 D(6,3,5,10)     =   -145.392426     0.000000     0.000148  -145.392278
	   64 D(7,3,5,8)      =     95.094292     0.000000     0.006888    95.101181
	   65 D(7,3,5,9)      =   -140.740170     0.000000     0.004031  -140.736139
	   66 D(7,3,5,10)     =    -26.601984     0.000000     0.010838   -26.591145
	   67 D(9,5,8,11)     =     58.527364    -0.000000    -0.004758    58.522606
	   68 D(9,5,8,12)     =    -61.619754    -0.000000    -0.007253   -61.627006
	   69 D(9,5,8,13)     =    178.449190    -0.000000    -0.002822   178.446368
	   70 D(10,5,8,11)    =    -56.207701     0.000000    -0.007022   -56.214723
	   71 D(10,5,8,12)    =   -176.354819    -0.000000    -0.009517  -176.364336
	   72 D(10,5,8,13)    =     63.714125     0.000000    -0.005086    63.709039
	 ---------------------------------------------------------------------------

  ==> Convergence Check <==

  Measures of convergence in internal coordinates in au.
  Criteria marked as inactive (o), active & met (*), and active & unmet ( ).
  ---------------------------------------------------------------------------------------------
   Step     Total Energy     Delta E     MAX Force     RMS Force      MAX Disp      RMS Disp   
  ---------------------------------------------------------------------------------------------
    Convergence Criteria    1.00e-06 *    3.00e-04 *             o    1.20e-03 *             o
  ---------------------------------------------------------------------------------------------
      9    -270.02649716   -4.26e-07 *    3.06e-05 *    9.82e-06 o    7.72e-04 *    2.27e-04 o  ~
  ---------------------------------------------------------------------------------------------


  **** Optimization is complete! (in 9 steps) ****

  ==> Optimization Summary <==

  Measures of convergence in internal coordinates in au.
  --------------------------------------------------------------------------------------------------------------- ~
   Step         Total Energy             Delta E       MAX Force       RMS Force        MAX Disp        RMS Disp  ~
  --------------------------------------------------------------------------------------------------------------- ~
      1    -270.025841046500   -270.025841046500      0.00912189      0.00127945      0.10587072      0.03419547  ~
      2    -270.026065702074     -0.000224655574      0.00423803      0.00088708      0.21101026      0.05883311  ~
      3    -270.023943510274      0.002122191800      0.01196765      0.00229315      0.10540904      0.03780715  ~
      4    -270.026372208028     -0.002428697754      0.00183680      0.00037344      0.05570661      0.02182275  ~
      5    -270.026458581433     -0.000086373405      0.00053461      0.00015833      0.03518175      0.01644516  ~
      6    -270.026480469055     -0.000021887622      0.00056159      0.00013704      0.02886535      0.01000114  ~
      7    -270.026493462155     -0.000012993100      0.00014557      0.00005599      0.02463177      0.00627790  ~
      8    -270.026496738550     -0.000003276395      0.00023060      0.00004274      0.00547969      0.00187471  ~
      9    -270.026497164339     -0.000000425789      0.00003065      0.00000982      0.00077166      0.00022693  ~
  --------------------------------------------------------------------------------------------------------------- ~

	Writing optimization data to binary file.
	Final energy is   -270.0264971643392
	Final (previous) structure:
	Cartesian Geometry (in Angstrom)
	    O    -1.5267171092   1.3958262567   0.1792705302
	    C    -1.0282747440   0.3123743262   0.2156795348
	    C     0.4012552513   0.1089659111   0.6798501487
	    C    -1.7935014735  -0.9238949560  -0.2080092971
	    C     1.3865545541   0.0711832304  -0.5137341724
	    H     0.4609234118  -0.8270643914   1.2296800024
	    H     0.6578903531   0.9114068193   1.3594205794
	    C     2.5387773618  -0.9098273844  -0.3134129792
	    H     0.8573113155  -0.1543934536  -1.4360376553
	    H     1.7821412835   1.0710194910  -0.6599060953
	    H     3.2325451211  -0.8716240656  -1.1470031758
	    H     2.1759574128  -1.9300878011  -0.2279963938
	    H     3.0936154373  -0.6793205116   0.5913139674
	    H    -1.1937508417  -1.5646645090  -0.8463353379
	    H    -2.7008187748  -0.6369525577  -0.7211667795
	    H    -2.0532324638  -1.5016694326   0.6753894526
	Saving final (previous) structure.
			--------------------------
			 OPTKING Finished Execution 
			--------------------------

    Final optimized geometry and variables:
    Molecular point group: c1
    Full point group: C1

    Geometry (in Angstrom), charge = 0, multiplicity = 1:

    O           -1.526716992603     1.395826150145     0.179270516479
    C           -1.028274665524     0.312374302386     0.215679518322
    C            0.401255220647     0.108965902782     0.679850096824
    C           -1.793501336501    -0.923894885486    -0.208009281192
    C            1.386554448218     0.071183224932    -0.513734133120
    H            0.460923376558    -0.827064328270     1.229679908542
    H            0.657890302900     0.911406749721     1.359420475578
    C            2.538777167938    -0.909827314916    -0.313412955256
    H            0.857311250006    -0.154393441838    -1.436037545621
    H            1.782141147423     1.071019409183    -0.659906044874
    H            3.232544874228    -0.871623999023    -1.147003088210
    H            2.175957246633    -1.930087653742    -0.227996376418
    H            3.093615201037    -0.679320459694     0.591313922277
    H           -1.193750750491    -1.564664389472    -0.846335273284
    H           -2.700818568538    -0.636952509097    -0.721166724391
    H           -2.053232306995    -1.501669317888     0.675389401055

	Cleaning optimization helper files.


Properties will be evaluated at   0.000000,   0.000000,   0.000000 Bohr

Properties computed using the  density matrix

  Nuclear Dipole Moment: (a.u.)
     X:     5.9105      Y:    -5.7900      Z:    -1.1078

  Electronic Dipole Moment: (a.u.)
     X:    -5.3021      Y:     4.7189      Z:     1.1036

  Dipole Moment: (a.u.)
     X:     0.6084      Y:    -1.0711      Z:    -0.0043     Total:     1.2319

  Dipole Moment: (Debye)
     X:     1.5463      Y:    -2.7226      Z:    -0.0108     Total:     3.1311

  Quadrupole Moment: (Debye Ang)
    XX:   -40.1009     YY:   -42.3713     ZZ:   -37.3869
    XY:     5.3620     XZ:     0.1392     YZ:    -0.3743

  Traceless Quadrupole Moment: (Debye Ang)
    XX:    -0.1479     YY:    -2.4182     ZZ:     2.5661
    XY:     5.3620     XZ:     0.1392     YZ:    -0.3743

  Mulliken Charges: (a.u.)
   Center  Symbol    Alpha    Beta     Spin     Total
       1     O     4.26024  4.26024  0.00000 -0.52048
       2     C     2.74043  2.74043  0.00000  0.51915
       3     C     3.20162  3.20162  0.00000 -0.40323
       4     C     3.28941  3.28941  0.00000 -0.57883
       5     C     3.16167  3.16167  0.00000 -0.32333
       6     H     0.41555  0.41555  0.00000  0.16890
       7     H     0.39848  0.39848  0.00000  0.20304
       8     C     3.24075  3.24075  0.00000 -0.48149
       9     H     0.41620  0.41620  0.00000  0.16760
      10     H     0.40813  0.40813  0.00000  0.18373
      11     H     0.41568  0.41568  0.00000  0.16863
      12     H     0.42094  0.42094  0.00000  0.15812
      13     H     0.41767  0.41767  0.00000  0.16466
      14     H     0.41067  0.41067  0.00000  0.17867
      15     H     0.39674  0.39674  0.00000  0.20651
      16     H     0.40582  0.40582  0.00000  0.18836

   Total alpha = 24.00000, Total beta = 24.00000, Total charge = -0.00000


*** PSI4 exiting successfully. Buy a developer a beer!
