    -----------------------------------------------------------------------
          Psi4: An Open-Source Ab Initio Electronic Structure Package
                              Psi4 (no tag) Driver

                          Git: Rev {detached?}  

    J. M. Turney, A. C. Simmonett, R. M. Parrish, E. G. Hohenstein,
    F. A. Evangelista, J. T. Fermann, B. J. Mintz, L. A. Burns, J. J. Wilke,
    M. L. Abrams, N. J. Russ, M. L. Leininger, C. L. Janssen, E. T. Seidl,
    W. D. Allen, H. F. Schaefer, R. A. King, E. F. Valeev, C. D. Sherrill,
    and T. D. Crawford, WIREs Comput. Mol. Sci. 2, 556-565 (2012)
    (doi: 10.1002/wcms.93)

                         Additional Contributions by
    A. E. DePrince, M. Saitow, U. Bozkaya, A. Yu. Sokolov
    -----------------------------------------------------------------------


    Psi4 started on: Fri Sep  2 11:46:37 2016

    Process ID:   2675
    PSI4DATADIR: /export131/home/mjharvey/miniconda3/share
    Memory level set to 256.000 MB

  ==> Input File <==

--------------------------------------------------------------------------
set {
	reference rhf
	basis 6-31G*
}


set_num_threads( 4 )
memory 2 gb

molecule MOL {
0 1

H	 3.514417	 0.792002	 1.189545
N	 2.680146	 0.237443	 1.188971
C	 1.865559	 0.531981	 0.018834
H	 2.182164	 0.462978	 2.029196
C	 0.645745	 -0.382037	 -0.029944
H	 2.478053	 0.359712	 -0.860957
H	 1.539603	 1.574168	 -0.025868
C	 -0.679275	 0.379305	 0.025956
H	 0.698998	 -0.976915	 -0.937203
H	 0.693479	 -1.083846	 0.802235
C	 -1.903357	 -0.536963	 -0.023547
H	 -0.726309	 1.082987	 -0.803784
H	 -0.717680	 0.977832	 0.934877
C	 -3.225172	 0.228290	 0.028445
H	 -1.867824	 -1.134999	 -0.931459
H	 -1.860449	 -1.239604	 0.805977
H	 -3.313397	 0.915643	 -0.808262
H	 -4.073500	 -0.448134	 -0.008893
H	 -3.306061	 0.809945	 0.942516

	symmetry c1
}
set optking {
	frozen_dihedral = ("
		6 3 5 9
	")
}

ee = optimize('scf')
oeprop('DIPOLE', 'QUADRUPOLE', 'MULLIKEN_CHARGES')
f=open( 'psi4out.xyz', 'w' )
f.write( "19  " )
f.write( str(ee) + "\n" )
f.write( MOL.save_string_xyz() )
f.close()
--------------------------------------------------------------------------

  Memory set to   2.000 GiB by Python script.
gradient() will perform analytic gradient computation.

*** tstart() called on cx1-1-1-3.cx1.hpc.ic.ac.uk
*** at Fri Sep  2 11:46:38 2016


         ---------------------------------------------------------
                                   SCF
            by Justin Turney, Rob Parrish, and Andy Simmonett
                              RHF Reference
                        4 Threads,   2000 MiB Core
         ---------------------------------------------------------

  ==> Geometry <==

    Molecular point group: c1
    Full point group: C1

    Geometry (in Angstrom), charge = 0, multiplicity = 1:

       Center              X                  Y                   Z               Mass       
    ------------   -----------------  -----------------  -----------------  -----------------
           H          3.592753196464     0.699240394278     0.968749899398     1.007825032070
           N          2.758482196464     0.144681394278     0.968175899398    14.003074004780
           C          1.943895196464     0.439219394278    -0.201961100602    12.000000000000
           H          2.260500196464     0.370216394278     1.808400899398     1.007825032070
           C          0.724081196464    -0.474798605722    -0.250739100602    12.000000000000
           H          2.556389196464     0.266950394278    -1.081752100602     1.007825032070
           H          1.617939196464     1.481406394278    -0.246663100602     1.007825032070
           C         -0.600938803536     0.286543394278    -0.194839100602    12.000000000000
           H          0.777334196464    -1.069676605722    -1.157998100602     1.007825032070
           H          0.771815196464    -1.176607605722     0.581439899398     1.007825032070
           C         -1.825020803536    -0.629724605722    -0.244342100602    12.000000000000
           H         -0.647972803536     0.990225394278    -1.024579100602     1.007825032070
           H         -0.639343803536     0.885070394278     0.714081899398     1.007825032070
           C         -3.146835803536     0.135528394278    -0.192350100602    12.000000000000
           H         -1.789487803536    -1.227760605722    -1.152254100602     1.007825032070
           H         -1.782112803536    -1.332365605722     0.585181899398     1.007825032070
           H         -3.235060803536     0.822881394278    -1.029057100602     1.007825032070
           H         -3.995163803536    -0.540895605722    -0.229688100602     1.007825032070
           H         -3.227724803536     0.717183394278     0.721720899398     1.007825032070

  Running in c1 symmetry.

  Rotational constants: A =      0.39465  B =      0.03985  C =      0.03961 [cm^-1]
  Rotational constants: A =  11831.43324  B =   1194.63310  C =   1187.36258 [MHz]
  Nuclear repulsion =  246.984442508598960

  Charge       = 0
  Multiplicity = 1
  Electrons    = 50
  Nalpha       = 25
  Nbeta        = 25

  ==> Algorithm <==

  SCF Algorithm Type is DF.
  DIIS enabled.
  MOM disabled.
  Fractional occupation disabled.
  Guess Type is CORE.
  Energy threshold   = 1.00e-08
  Density threshold  = 1.00e-08
  Integral threshold = 0.00e+00

  ==> Primary Basis <==

  Basis Set: 6-31G*
    Number of shells: 62
    Number of basis function: 116
    Number of Cartesian functions: 116
    Spherical Harmonics?: false
    Max angular momentum: 2

  ==> Pre-Iterations <==

   -------------------------------------------------------
    Irrep   Nso     Nmo     Nalpha   Nbeta   Ndocc  Nsocc
   -------------------------------------------------------
     A        116     116       0       0       0       0
   -------------------------------------------------------
    Total     116     116      25      25      25       0
   -------------------------------------------------------

 OEINTS: Overlap, kinetic, potential, dipole, and quadrupole integrals
         stored in file 35.

  ==> Integral Setup <==

  ==> DFJK: Density-Fitted J/K Matrices <==

    J tasked:                  Yes
    K tasked:                  Yes
    wK tasked:                  No
    OpenMP threads:              4
    Integrals threads:           4
    Memory (MB):              1430
    Algorithm:                Core
    Integral Cache:           NONE
    Schwarz Cutoff:          1E-12
    Fitting Condition:       1E-12

   => Auxiliary Basis Set <=

  Basis Set: 
    Number of shells: 261
    Number of basis function: 811
    Number of Cartesian functions: 811
    Spherical Harmonics?: false
    Max angular momentum: 3

  Minimum eigenvalue in the overlap matrix is 3.4899333595E-03.
  Using Symmetric Orthogonalization.
  SCF Guess: Core (One-Electron) Hamiltonian.

  ==> Iterations <==

                           Total Energy        Delta E     RMS |[F,P]|

   @DF-RHF iter   1:  -190.50931968545862   -1.90509e+02   7.12185e-02 
   @DF-RHF iter   2:   -93.26740930714240    9.72419e+01   8.53973e-02 DIIS
   @DF-RHF iter   3:  -183.23655829211643   -8.99691e+01   6.11900e-02 DIIS
   @DF-RHF iter   4:  -192.11696412014672   -8.88041e+00   5.40642e-02 DIIS
   @DF-RHF iter   5:  -211.79621438111317   -1.96793e+01   5.05582e-02 DIIS
   @DF-RHF iter   6:  -251.09346878258910   -3.92973e+01   5.91936e-03 DIIS
   @DF-RHF iter   7:  -251.30446723151843   -2.10998e-01   2.23966e-03 DIIS
   @DF-RHF iter   8:  -251.33915605786254   -3.46888e-02   7.81488e-04 DIIS
   @DF-RHF iter   9:  -251.34460726380630   -5.45121e-03   1.99659e-04 DIIS
   @DF-RHF iter  10:  -251.34509073674619   -4.83473e-04   6.87504e-05 DIIS
   @DF-RHF iter  11:  -251.34514657934048   -5.58426e-05   2.33837e-05 DIIS
   @DF-RHF iter  12:  -251.34515341346727   -6.83413e-06   5.93935e-06 DIIS
   @DF-RHF iter  13:  -251.34515371171810   -2.98251e-07   2.49670e-06 DIIS
   @DF-RHF iter  14:  -251.34515377839838   -6.66803e-08   3.74873e-07 DIIS
   @DF-RHF iter  15:  -251.34515378047908   -2.08070e-09   1.24654e-07 DIIS
   @DF-RHF iter  16:  -251.34515378066382   -1.84741e-10   2.82036e-08 DIIS
   @DF-RHF iter  17:  -251.34515378067815   -1.43245e-11   7.21753e-09 DIIS

  ==> Post-Iterations <==

    Orbital Energies (a.u.)
    -----------------------

    Doubly Occupied:                                                      

       1A    -15.532135     2A    -11.238185     3A    -11.213755  
       4A    -11.213015     5A    -11.207799     6A    -11.207285  
       7A     -1.176649     8A     -1.072660     9A     -0.998076  
      10A     -0.901829    11A     -0.813074    12A     -0.788000  
      13A     -0.667834    14A     -0.638056    15A     -0.619069  
      16A     -0.585170    17A     -0.565778    18A     -0.547533  
      19A     -0.530241    20A     -0.502579    21A     -0.483360  
      22A     -0.465582    23A     -0.460559    24A     -0.443237  
      25A     -0.379543  

    Virtual:                                                              

      26A      0.224435    27A      0.238768    28A      0.267334  
      29A      0.276367    30A      0.283099    31A      0.303370  
      32A      0.322311    33A      0.323119    34A      0.333914  
      35A      0.339410    36A      0.346010    37A      0.359115  
      38A      0.382605    39A      0.398835    40A      0.437288  
      41A      0.453847    42A      0.468926    43A      0.493492  
      44A      0.707896    45A      0.726151    46A      0.753604  
      47A      0.756702    48A      0.772954    49A      0.820577  
      50A      0.840957    51A      0.863594    52A      0.925670  
      53A      0.948840    54A      0.975930    55A      0.995327  
      56A      1.006370    57A      1.017339    58A      1.036956  
      59A      1.079803    60A      1.127816    61A      1.139089  
      62A      1.147131    63A      1.170728    64A      1.180381  
      65A      1.194665    66A      1.211555    67A      1.217977  
      68A      1.222695    69A      1.229162    70A      1.238301  
      71A      1.256595    72A      1.264054    73A      1.271758  
      74A      1.291508    75A      1.407987    76A      1.448667  
      77A      1.625510    78A      1.675602    79A      1.710870  
      80A      1.741777    81A      1.826415    82A      1.843871  
      83A      1.956320    84A      2.011440    85A      2.084652  
      86A      2.131274    87A      2.199545    88A      2.232757  
      89A      2.265564    90A      2.276142    91A      2.301637  
      92A      2.321385    93A      2.336432    94A      2.380881  
      95A      2.425843    96A      2.478011    97A      2.569112  
      98A      2.616212    99A      2.631873   100A      2.689115  
     101A      2.702401   102A      2.756777   103A      2.800009  
     104A      2.808868   105A      2.885596   106A      2.931931  
     107A      2.939701   108A      3.052423   109A      3.134810  
     110A      3.167891   111A      4.212127   112A      4.567336  
     113A      4.668337   114A      4.773413   115A      4.882801  
     116A      4.999690  

    Final Occupation by Irrep:
              A 
    DOCC [    25 ]

  Energy converged.

  @DF-RHF Final Energy:  -251.34515378067815

   => Energetics <=

    Nuclear Repulsion Energy =            246.9844425085989599
    One-Electron Energy =                -828.1571771433566482
    Two-Electron Energy =                 329.8275808540796561
    DFT Exchange-Correlation Energy =       0.0000000000000000
    Empirical Dispersion Energy =           0.0000000000000000
    PCM Polarization Energy =               0.0000000000000000
    EFP Energy =                            0.0000000000000000
    Total Energy =                       -251.3451537806780607

    Alert: EFP and PCM quantities not currently incorporated into SCF psivars.

Properties will be evaluated at   0.000000,   0.000000,   0.000000 Bohr
  ==> Properties <==


Properties computed using the SCF density matrix

  Nuclear Dipole Moment: (a.u.)
     X:    -3.5143      Y:     0.8301      Z:    -0.5113

  Electronic Dipole Moment: (a.u.)
     X:     3.4093      Y:    -0.3085      Z:     0.5298

  Dipole Moment: (a.u.)
     X:    -0.1049      Y:     0.5216      Z:     0.0185     Total:     0.5323

  Dipole Moment: (Debye)
     X:    -0.2667      Y:     1.3257      Z:     0.0469     Total:     1.3530


  Saving occupied orbitals to File 180.

*** tstop() called on cx1-1-1-3.cx1.hpc.ic.ac.uk at Fri Sep  2 11:46:43 2016
Module time:
	user time   =      13.08 seconds =       0.22 minutes
	system time =       0.16 seconds =       0.00 minutes
	total time  =          5 seconds =       0.08 minutes
Total time:
	user time   =      13.08 seconds =       0.22 minutes
	system time =       0.16 seconds =       0.00 minutes
	total time  =          5 seconds =       0.08 minutes

*** tstart() called on cx1-1-1-3.cx1.hpc.ic.ac.uk
*** at Fri Sep  2 11:46:43 2016


         ------------------------------------------------------------
                                   SCF GRAD                          
                          Rob Parrish, Justin Turney,                
                       Andy Simmonett, and Alex Sokolov              
         ------------------------------------------------------------

  ==> Geometry <==

    Molecular point group: c1
    Full point group: C1

    Geometry (in Angstrom), charge = 0, multiplicity = 1:

       Center              X                  Y                   Z               Mass       
    ------------   -----------------  -----------------  -----------------  -----------------
           H          3.592753196464     0.699240394278     0.968749899398     1.007825032070
           N          2.758482196464     0.144681394278     0.968175899398    14.003074004780
           C          1.943895196464     0.439219394278    -0.201961100602    12.000000000000
           H          2.260500196464     0.370216394278     1.808400899398     1.007825032070
           C          0.724081196464    -0.474798605722    -0.250739100602    12.000000000000
           H          2.556389196464     0.266950394278    -1.081752100602     1.007825032070
           H          1.617939196464     1.481406394278    -0.246663100602     1.007825032070
           C         -0.600938803536     0.286543394278    -0.194839100602    12.000000000000
           H          0.777334196464    -1.069676605722    -1.157998100602     1.007825032070
           H          0.771815196464    -1.176607605722     0.581439899398     1.007825032070
           C         -1.825020803536    -0.629724605722    -0.244342100602    12.000000000000
           H         -0.647972803536     0.990225394278    -1.024579100602     1.007825032070
           H         -0.639343803536     0.885070394278     0.714081899398     1.007825032070
           C         -3.146835803536     0.135528394278    -0.192350100602    12.000000000000
           H         -1.789487803536    -1.227760605722    -1.152254100602     1.007825032070
           H         -1.782112803536    -1.332365605722     0.585181899398     1.007825032070
           H         -3.235060803536     0.822881394278    -1.029057100602     1.007825032070
           H         -3.995163803536    -0.540895605722    -0.229688100602     1.007825032070
           H         -3.227724803536     0.717183394278     0.721720899398     1.007825032070

  Nuclear repulsion =  246.984442508598960

  ==> Basis Set <==

  Basis Set: 6-31G*
    Number of shells: 62
    Number of basis function: 116
    Number of Cartesian functions: 116
    Spherical Harmonics?: false
    Max angular momentum: 2

  ==> DFJKGrad: Density-Fitted SCF Gradients <==

    Gradient:                    1
    J tasked:                  Yes
    K tasked:                  Yes
    wK tasked:                  No
    OpenMP threads:              4
    Integrals threads:           4
    Memory (MB):              1430
    Schwarz Cutoff:          0E+00
    Fitting Condition:       1E-12

   => Auxiliary Basis Set <=

  Basis Set: 
    Number of shells: 261
    Number of basis function: 811
    Number of Cartesian functions: 811
    Spherical Harmonics?: false
    Max angular momentum: 3


  -Total Gradient:
     Atom            X                  Y                   Z
    ------   -----------------  -----------------  -----------------
       1       -0.000249525278    -0.000487859027    -0.000410252870
       2       -0.003177248365    -0.001274899452    -0.000076716041
       3       -0.005386005425    -0.002429409258    -0.000516539231
       4        0.000254633052    -0.000113718112    -0.000132753936
       5        0.005846671182     0.003830380661    -0.000978712578
       6       -0.001283852877    -0.001725036376    -0.001925732589
       7       -0.001846738433     0.000140668983    -0.000226274930
       8        0.002589206185     0.002652006578     0.002675109737
       9        0.004344405891     0.001518346104    -0.000507054471
      10       -0.000888571633    -0.001205535057     0.002768061520
      11        0.000139048133    -0.000645632247    -0.000270980586
      12        0.000257007487    -0.000210307870    -0.000200300905
      13       -0.000705037976    -0.000232251560    -0.000336232707
      14        0.000104021894     0.000134912932     0.000070149856
      15       -0.000039487221     0.000056598682     0.000060081180
      16       -0.000065241880     0.000051266385     0.000049128622
      17        0.000017945757    -0.000018041804     0.000002914388
      18        0.000069214456    -0.000036037930    -0.000026159152
      19        0.000019555053    -0.000005451632    -0.000017735305


*** tstop() called on cx1-1-1-3.cx1.hpc.ic.ac.uk at Fri Sep  2 11:46:48 2016
Module time:
	user time   =      17.95 seconds =       0.30 minutes
	system time =       0.18 seconds =       0.00 minutes
	total time  =          5 seconds =       0.08 minutes
Total time:
	user time   =      31.05 seconds =       0.52 minutes
	system time =       0.34 seconds =       0.01 minutes
	total time  =         10 seconds =       0.17 minutes
CURRENT ENERGY: -251.3451537807

			-----------------------------------------
			 OPTKING 2.0: for geometry optimizations 
			  - R.A. King,  Bethel University        
			-----------------------------------------

	Internal coordinates to be generated automatically.
	Detected frag with atoms:  1 2 3 4 5 6 7 8 9 10 11 12 13 14 15 16 17 18 19
	---Fragment 1 Bond Connectivity---
	 1 : 2
	 2 : 1 3 4
	 3 : 2 5 6 7
	 4 : 2
	 5 : 3 8 9 10
	 6 : 3
	 7 : 3
	 8 : 5 11 12 13
	 9 : 5
	 10 : 5
	 11 : 8 14 15 16
	 12 : 8
	 13 : 8
	 14 : 11 17 18 19
	 15 : 11
	 16 : 11
	 17 : 14
	 18 : 14
	 19 : 14

	Assuming in current code that numbering for constraints corresponds to unified fragment.
	Frozen dihedral atom list: 
	     6     3     5     9
	---Fragment 1 Geometry and Gradient---
	 H           6.7893196044        1.3213728462        1.8306720011
	 N           5.2127758938        0.2734082117        1.8295872983
	 C           3.6734295523        0.8300043674       -0.3816511696
	 H           4.2717262947        0.6996075951        3.4173824383
	 C           1.3683151593       -0.8972393331       -0.4738282309
	 H           4.8308754704        0.5044631363       -2.0442152138
	 H           3.0574619810        2.7994523767       -0.4661257072
	 C          -1.1356097613        0.5414885404       -0.3681925401
	 H           1.4689487450       -2.0213958356       -2.1882992725
	 H           1.4585193465       -2.2234661407        1.0987621726
	 C          -3.4487895055       -1.1900070440       -0.4617396529
	 H          -1.2244911402        1.8712548050       -1.9361739016
	 H          -1.2081846934        1.6725406535        1.3494192263
	 C          -5.9466578538        0.2561115484       -0.3634890118
	 H          -3.3816418668       -2.3201313016       -2.1774446856
	 H          -3.3677051366       -2.5178061037        1.1058335278
	 H          -6.1133789419        1.5550204750       -1.9446360952
	 H          -7.5497654447       -1.0221445613       -0.4340476061
	 H          -6.0995159110        1.3552802022        1.3638548442
	            -0.0002495253       -0.0004878590       -0.0004102529
	            -0.0031772484       -0.0012748995       -0.0000767160
	            -0.0053860054       -0.0024294093       -0.0005165392
	             0.0002546331       -0.0001137181       -0.0001327539
	             0.0058466712        0.0038303807       -0.0009787126
	            -0.0012838529       -0.0017250364       -0.0019257326
	            -0.0018467384        0.0001406690       -0.0002262749
	             0.0025892062        0.0026520066        0.0026751097
	             0.0043444059        0.0015183461       -0.0005070545
	            -0.0008885716       -0.0012055351        0.0027680615
	             0.0001390481       -0.0006456322       -0.0002709806
	             0.0002570075       -0.0002103079       -0.0002003009
	            -0.0007050380       -0.0002322516       -0.0003362327
	             0.0001040219        0.0001349129        0.0000701499
	            -0.0000394872        0.0000565987        0.0000600812
	            -0.0000652419        0.0000512664        0.0000491286
	             0.0000179458       -0.0000180418        0.0000029144
	             0.0000692145       -0.0000360379       -0.0000261592
	             0.0000195551       -0.0000054516       -0.0000177353

	Previous optimization step data not found.  Starting new optimization.

	---Fragment 1 Intrafragment Coordinates---
	 - Coordinate -           - BOHR/RAD -       - ANG/DEG -
	 R(1,2)           =         1.893072	       1.001771
	 R(2,3)           =         2.751175	       1.455859
	 R(2,4)           =         1.894284	       1.002412
	 R(3,5)           =         2.881913	       1.525043
	 R(3,6)           =         2.051774	       1.085752
	 R(3,7)           =         2.065255	       1.092886
	 R(5,8)           =         2.889764	       1.529197
	 R(5,9)           =         2.052624	       1.086202
	 R(5,10)          =         2.059139	       1.089650
	 R(8,11)          =         2.890956	       1.529828
	 R(8,12)          =         2.057849	       1.088967
	 R(8,13)          =         2.057847	       1.088966
	 R(11,14)         =         2.887951	       1.528238
	 R(11,15)         =         2.055562	       1.087756
	 R(11,16)         =         2.055945	       1.087959
	 R(14,17)         =         2.053043	       1.086424
	 R(14,18)         =         2.051553	       1.085635
	 R(14,19)         =         2.053108	       1.086458
	 B(1,2,3)         =         1.933105	     110.758751
	 B(1,2,4)         =         1.863653	     106.779453
	 B(2,3,5)         =         1.930495	     110.609189
	 B(2,3,6)         =         1.879202	     107.670360
	 B(2,3,7)         =         1.974342	     113.121454
	 B(3,2,4)         =         1.928602	     110.500741
	 B(3,5,8)         =         1.975229	     113.172275
	 B(3,5,9)         =         1.892033	     108.405498
	 B(3,5,10)        =         1.903447	     109.059474
	 B(5,3,6)         =         1.907316	     109.281143
	 B(5,3,7)         =         1.908868	     109.370098
	 B(5,8,11)        =         1.975704	     113.199501
	 B(5,8,12)        =         1.908468	     109.347167
	 B(5,8,13)        =         1.912098	     109.555125
	 B(6,3,7)         =         1.861273	     106.643109
	 B(8,5,9)         =         1.923761	     110.223395
	 B(8,5,10)        =         1.907844	     109.311432
	 B(8,11,14)       =         1.972572	     113.020050
	 B(8,11,15)       =         1.907268	     109.278398
	 B(8,11,16)       =         1.907718	     109.304212
	 B(9,5,10)        =         1.857731	     106.440152
	 B(11,8,12)       =         1.904783	     109.136048
	 B(11,8,13)       =         1.904962	     109.146309
	 B(11,14,17)      =         1.939969	     111.152032
	 B(11,14,18)      =         1.941958	     111.266001
	 B(11,14,19)      =         1.940243	     111.167753
	 B(12,8,13)       =         1.853845	     106.217513
	 B(14,11,15)      =         1.909169	     109.387319
	 B(14,11,16)      =         1.908762	     109.364010
	 B(15,11,16)      =         1.854629	     106.262415
	 B(17,14,18)      =         1.879953	     107.713389
	 B(17,14,19)      =         1.878834	     107.649271
	 B(18,14,19)      =         1.880030	     107.717766
	 D(1,2,3,5)       =         3.072645	     176.049612
	 D(1,2,3,6)       =         0.989701	      56.705698
	 D(1,2,3,7)       =        -1.062324	     -60.866675
	 D(2,3,5,8)       =         2.077577	     119.036396
	 D(2,3,5,9)       =        -2.065895	    -118.367090
	 D(2,3,5,10)      =        -0.050012	      -2.865454
	 D(3,5,8,11)      =         3.141157	     179.975063
	 D(3,5,8,12)      =         1.013547	      58.071975
	 D(3,5,8,13)      =        -1.011553	     -57.957713
	 D(4,2,3,5)       =        -1.148947	     -65.829804
	 D(4,2,3,6)       =         3.051294	     174.826282
	 D(4,2,3,7)       =         0.999269	      57.253909
	 D(5,8,11,14)     =        -3.138661	    -179.832011
	 D(5,8,11,15)     =        -1.008422	     -57.778347
	 D(5,8,11,16)     =         1.014483	      58.125592
	 D(6,3,5,8)       =        -2.139712	    -122.596474
	*D(6,3,5,9)       =         0.000000	       0.000000
	 D(6,3,5,10)      =         2.015885	     115.501676
	 D(7,3,5,8)       =        -0.108163	      -6.197288
	 D(7,3,5,9)       =         2.031550	     116.399227
	 D(7,3,5,10)      =        -2.235752	    -128.099138
	 D(8,11,14,17)    =         1.045902	      59.925763
	 D(8,11,14,18)    =         3.141058	     179.969381
	 D(8,11,14,19)    =        -1.046689	     -59.970869
	 D(9,5,8,11)      =         1.019180	      58.394741
	 D(9,5,8,12)      =        -1.108430	     -63.508348
	 D(9,5,8,13)      =        -3.133530	    -179.538036
	 D(10,5,8,11)     =        -1.016904	     -58.264311
	 D(10,5,8,12)     =         3.138671	     179.832600
	 D(10,5,8,13)     =         1.113571	      63.802912
	 D(12,8,11,14)    =        -1.008989	     -57.810818
	 D(12,8,11,15)    =         1.121249	      64.242846
	 D(12,8,11,16)    =        -3.139031	    -179.853215
	 D(13,8,11,14)    =         1.010068	      57.872612
	 D(13,8,11,15)    =         3.140306	     179.926276
	 D(13,8,11,16)    =        -1.119974	     -64.169785
	 D(15,11,14,17)   =        -1.083270	     -62.066801
	 D(15,11,14,18)   =         1.011886	      57.976817
	 D(15,11,14,19)   =         3.107324	     178.036567
	 D(16,11,14,17)   =        -3.107827	    -178.065383
	 D(16,11,14,18)   =        -1.012671	     -58.021765
	 D(16,11,14,19)   =         1.082767	      62.037985

	Current energy   :      -251.3451537807

	Generating empirical Hessian (Schlegel '84) for each fragment.
	Taking RFO optimization step.
	Going to follow RFO solution 1.
	Using RFO vector 1.
	Norm of target step-size    0.13837
	Projected energy change by RFO approximation:        -0.0026774679

	Back-transformation to cartesian coordinates...
	Successfully converged to displaced geometry.

	Back-transformation to cartesian coordinates to adjust frozen coordinates...
	Successfully converged to displaced geometry.

	--- Internal Coordinate Step in ANG or DEG, aJ/ANG or AJ/DEG ---
	 ---------------------------------------------------------------------------
	   Coordinate                Previous        Force       Change         New 
	   ----------                --------       ------       ------       ------
	    1 R(1,2)          =      1.001771     0.003939     0.000532     1.002303
	    2 R(2,3)          =      1.455859     0.015599     0.002662     1.458522
	    3 R(2,4)          =      1.002412     0.002170     0.000294     1.002706
	    4 R(3,5)          =      1.525043     0.106978     0.022882     1.547924
	    5 R(3,6)          =      1.085752    -0.009144    -0.001657     1.084096
	    6 R(3,7)          =      1.092886    -0.005719    -0.001061     1.091825
	    7 R(5,8)          =      1.529197     0.009264     0.002008     1.531205
	    8 R(5,9)          =      1.086202     0.001607     0.000292     1.086494
	    9 R(5,10)         =      1.089650    -0.023493    -0.004312     1.085338
	   10 R(8,11)         =      1.529828    -0.000702    -0.000152     1.529676
	   11 R(8,12)         =      1.088967    -0.000046    -0.000008     1.088959
	   12 R(8,13)         =      1.088966     0.003159     0.000578     1.089545
	   13 R(11,14)        =      1.528238     0.001183     0.000255     1.528493
	   14 R(11,15)        =      1.087756     0.000680     0.000124     1.087880
	   15 R(11,16)        =      1.087959    -0.000015    -0.000003     1.087957
	   16 R(14,17)        =      1.086424     0.000125     0.000023     1.086446
	   17 R(14,18)        =      1.085635     0.000253     0.000046     1.085681
	   18 R(14,19)        =      1.086458     0.000159     0.000029     1.086487
	   19 B(1,2,3)        =    110.758751     0.000026     0.065425   110.824175
	   20 B(1,2,4)        =    106.779453    -0.000010    -0.156567   106.622886
	   21 B(2,3,5)        =    110.609189     0.000310     1.237564   111.846753
	   22 B(2,3,6)        =    107.670360    -0.000173    -0.893166   106.777195
	   23 B(2,3,7)        =    113.121454    -0.000165    -1.026138   112.095316
	   24 B(3,2,4)        =    110.500741    -0.000028    -0.187922   110.312819
	   25 B(3,5,8)        =    113.172275     0.000214     0.966699   114.138974
	   26 B(3,5,9)        =    108.405498     0.000211     2.054371   110.459870
	   27 B(3,5,10)       =    109.059474    -0.000174    -0.755626   108.303849
	   28 B(5,3,6)        =    109.281143     0.000081     1.147758   110.428901
	   29 B(5,3,7)        =    109.370098    -0.000035     0.228531   109.598629
	   30 B(5,8,11)       =    113.199501     0.000065     0.265344   113.464845
	   31 B(5,8,12)       =    109.347167     0.000010     0.233770   109.580937
	   32 B(5,8,13)       =    109.555125    -0.000068    -0.508416   109.046709
	   33 B(6,3,7)        =    106.643109    -0.000026    -0.750794   105.892315
	   34 B(8,5,9)        =    110.223395    -0.000280    -1.555990   108.667406
	   35 B(8,5,10)       =    109.311432     0.000041     0.050450   109.361882
	   36 B(8,11,14)      =    113.020050     0.000023     0.092233   113.112283
	   37 B(8,11,15)      =    109.278398    -0.000009    -0.041692   109.236705
	   38 B(8,11,16)      =    109.304212    -0.000009    -0.027076   109.277136
	   39 B(9,5,10)       =    106.440152    -0.000026    -0.884777   105.555376
	   40 B(11,8,12)      =    109.136048    -0.000029     0.059862   109.195910
	   41 B(11,8,13)      =    109.146309     0.000014     0.051987   109.198297
	   42 B(11,14,17)     =    111.152032     0.000001     0.006431   111.158463
	   43 B(11,14,18)     =    111.266001     0.000007     0.037564   111.303565
	   44 B(11,14,19)     =    111.167753    -0.000001    -0.007310   111.160443
	   45 B(12,8,13)      =    106.217513     0.000004    -0.128065   106.089448
	   46 B(14,11,15)     =    109.387319    -0.000005    -0.008086   109.379232
	   47 B(14,11,16)     =    109.364010    -0.000003     0.019337   109.383347
	   48 B(15,11,16)     =    106.262415     0.000002    -0.043233   106.219182
	   49 B(17,14,18)     =    107.713389    -0.000003    -0.005690   107.707700
	   50 B(17,14,19)     =    107.649271    -0.000001    -0.010180   107.639091
	   51 B(18,14,19)     =    107.717766    -0.000004    -0.023116   107.694650
	   52 D(1,2,3,5)      =    176.049612     0.000012     1.805550   177.855162
	   53 D(1,2,3,6)      =     56.705698    -0.000028     0.242828    56.948525
	   54 D(1,2,3,7)      =    -60.866675     0.000027     2.280074   -58.586601
	   55 D(2,3,5,8)      =    119.036396     0.000009    -0.588205   118.448190
	   56 D(2,3,5,9)      =   -118.367090    -0.000006    -0.395195  -118.762284
	   57 D(2,3,5,10)     =     -2.865454    -0.000008    -0.752915    -3.618369
	   58 D(3,5,8,11)     =    179.975063     0.000021     2.312607   182.287670
	   59 D(3,5,8,12)     =     58.071975     0.000018     1.882006    59.953981
	   60 D(3,5,8,13)     =    -57.957713     0.000024     2.190649   -55.767065
	   61 D(4,2,3,5)      =    -65.829804     0.000009     1.534550   -64.295254
	   62 D(4,2,3,6)      =    174.826282    -0.000031    -0.028173   174.798109
	   63 D(4,2,3,7)      =     57.253909     0.000024     2.009074    59.262983
	   64 D(5,8,11,14)    =   -179.832011    -0.000005    -0.515453  -180.347464
	   65 D(5,8,11,15)    =    -57.778347    -0.000005    -0.493264   -58.271611
	   66 D(5,8,11,16)    =     58.125592    -0.000006    -0.583412    57.542180
	   67 D(6,3,5,8)      =   -122.596474     0.000014    -0.192374  -122.788848
	   68 *D(6,3,5,9)     =      0.000000     0.000000     0.000000     0.000000
	   69 D(6,3,5,10)     =    115.501676    -0.000002    -0.357083   115.144593
	   70 D(7,3,5,8)      =     -6.197288     0.000013    -0.308936    -6.506224
	   71 D(7,3,5,9)      =    116.399227    -0.000001    -0.115925   116.283302
	   72 D(7,3,5,10)     =   -128.099138    -0.000003    -0.473645  -128.572783
	   73 D(8,11,14,17)   =     59.925763    -0.000000     0.010988    59.936751
	   74 D(8,11,14,18)   =    179.969381     0.000000     0.033378   180.002759
	   75 D(8,11,14,19)   =    -59.970869    -0.000000     0.024441   -59.946428
	   76 D(9,5,8,11)     =     58.394741    -0.000028     0.132702    58.527443
	   77 D(9,5,8,12)     =    -63.508348    -0.000032    -0.297899   -63.806247
	   78 D(9,5,8,13)     =   -179.538036    -0.000025     0.010743  -179.527292
	   79 D(10,5,8,11)    =    -58.264311     0.000010     2.035958   -56.228353
	   80 D(10,5,8,12)    =    179.832600     0.000007     1.605357   181.437958
	   81 D(10,5,8,13)    =     63.802912     0.000013     1.914000    65.716912
	   82 D(12,8,11,14)   =    -57.810818     0.000003     0.010229   -57.800589
	   83 D(12,8,11,15)   =     64.242846     0.000004     0.032419    64.275265
	   84 D(12,8,11,16)   =   -179.853215     0.000002    -0.057730  -179.910945
	   85 D(13,8,11,14)   =     57.872612     0.000002    -0.080912    57.791700
	   86 D(13,8,11,15)   =    179.926276     0.000003    -0.058722   179.867553
	   87 D(13,8,11,16)   =    -64.169785     0.000001    -0.148871   -64.318656
	   88 D(15,11,14,17)  =    -62.066801    -0.000000     0.007498   -62.059302
	   89 D(15,11,14,18)  =     57.976817    -0.000000     0.029889    58.006706
	   90 D(15,11,14,19)  =    178.036567    -0.000000     0.020952   178.057519
	   91 D(16,11,14,17)  =   -178.065383     0.000000     0.053051  -178.012332
	   92 D(16,11,14,18)  =    -58.021765     0.000001     0.075442   -57.946323
	   93 D(16,11,14,19)  =     62.037985     0.000000     0.066504    62.104489
	 ---------------------------------------------------------------------------

  ==> Convergence Check <==

  Measures of convergence in internal coordinates in au.
  Criteria marked as inactive (o), active & met (*), and active & unmet ( ).
  --------------------------------------------------------------------------------------------- ~
   Step     Total Energy     Delta E     MAX Force     RMS Force      MAX Disp      RMS Disp    ~
  --------------------------------------------------------------------------------------------- ~
    Convergence Criteria    1.00e-06 *    3.00e-04 *             o    1.20e-03 *             o  ~
  --------------------------------------------------------------------------------------------- ~
      1    -251.34515378   -2.51e+02      1.30e-02      1.72e-03 o    4.32e-02      1.43e-02 o  ~
  ---------------------------------------------------------------------------------------------

	Writing optimization data to binary file.
	Structure for next step:
	Cartesian Geometry (in Angstrom)
	    H     3.6022841099   0.7188313992   0.9998141849
	    N     2.7802432622   0.1456289369   0.9825224494
	    C     1.9685864000   0.4384539813  -0.1933821537
	    H     2.2682438436   0.3530752416   1.8193272920
	    C     0.7188201201  -0.4714930483  -0.2718018439
	    H     2.6037417108   0.2843377435  -1.0583035615
	    H     1.6620152876   1.4857012716  -0.2303808864
	    C    -0.6111653109   0.2855451771  -0.2206108564
	    H     0.7425005086  -1.0720727035  -1.1769049232
	    H     0.7612193564  -1.1803022407   0.5490211269
	    C    -1.8352714400  -0.6314937061  -0.2432501959
	    H    -0.6683666156   0.9798101343  -1.0576024440
	    H    -0.6379527574   0.8966835828   0.6809985674
	    C    -3.1580837279   0.1319660409  -0.1833471201
	    H    -1.8103763429  -1.2403522101  -1.1444468863
	    H    -1.7802531085  -1.3247171380   0.5934481743
	    H    -3.2586700352   0.8089967366  -1.0270754840
	    H    -4.0059136382  -0.5459537656  -0.2010352516
	    H    -3.2280741864   0.7246721180   0.7245378504
			--------------------------
			 OPTKING Finished Execution 
			--------------------------

    Structure for next step:
    Molecular point group: c1
    Full point group: C1

    Geometry (in Angstrom), charge = 0, multiplicity = 1:

    H            3.600588841976     0.719168197421     1.001227463849
    N            2.778548056997     0.145965778884     0.983935729641
    C            1.966891256867     0.438790800934    -0.191968783587
    H            2.266548677533     0.353412067749     1.820740508420
    C            0.717125072335    -0.471156159182    -0.270388467862
    H            2.602046519157     0.284674574939    -1.056890125372
    H            1.660320167847     1.486038011254    -0.228967513480
    C           -0.612860257129     0.285882008436    -0.219197484232
    H            0.740805459045    -1.071735768468    -1.175491478006
    H            0.759524305442    -1.179965297493     0.550434440338
    C           -1.836966292748    -0.631156804777    -0.241836822011
    H           -0.670061557436     0.980146912570    -1.056189007946
    H           -0.639647701567     0.897020367440     0.682411870704
    C           -3.159778479604     0.132302883938    -0.181933750764
    H           -1.812071197526    -1.240015262232    -1.143033443568
    H           -1.781947965444    -1.324380183695     0.594861484265
    H           -3.260364779241     0.809333527897    -1.025662050300
    H           -4.007608325143    -0.545616870810    -0.199621880956
    H           -3.229768932781     0.725008915795     0.725951150435

gradient() will perform analytic gradient computation.

*** tstart() called on cx1-1-1-3.cx1.hpc.ic.ac.uk
*** at Fri Sep  2 11:46:49 2016


         ---------------------------------------------------------
                                   SCF
            by Justin Turney, Rob Parrish, and Andy Simmonett
                              RHF Reference
                        4 Threads,   2000 MiB Core
         ---------------------------------------------------------

  ==> Geometry <==

    Molecular point group: c1
    Full point group: C1

    Geometry (in Angstrom), charge = 0, multiplicity = 1:

       Center              X                  Y                   Z               Mass       
    ------------   -----------------  -----------------  -----------------  -----------------
           H          3.600588841976     0.719168197421     1.001227463849     1.007825032070
           N          2.778548056997     0.145965778884     0.983935729641    14.003074004780
           C          1.966891256867     0.438790800934    -0.191968783587    12.000000000000
           H          2.266548677533     0.353412067749     1.820740508420     1.007825032070
           C          0.717125072335    -0.471156159182    -0.270388467862    12.000000000000
           H          2.602046519157     0.284674574939    -1.056890125372     1.007825032070
           H          1.660320167847     1.486038011254    -0.228967513480     1.007825032070
           C         -0.612860257129     0.285882008436    -0.219197484232    12.000000000000
           H          0.740805459045    -1.071735768468    -1.175491478006     1.007825032070
           H          0.759524305442    -1.179965297493     0.550434440338     1.007825032070
           C         -1.836966292748    -0.631156804777    -0.241836822011    12.000000000000
           H         -0.670061557436     0.980146912570    -1.056189007946     1.007825032070
           H         -0.639647701567     0.897020367440     0.682411870704     1.007825032070
           C         -3.159778479604     0.132302883938    -0.181933750764    12.000000000000
           H         -1.812071197526    -1.240015262232    -1.143033443568     1.007825032070
           H         -1.781947965444    -1.324380183695     0.594861484265     1.007825032070
           H         -3.260364779241     0.809333527897    -1.025662050300     1.007825032070
           H         -4.007608325143    -0.545616870810    -0.199621880956     1.007825032070
           H         -3.229768932781     0.725008915795     0.725951150435     1.007825032070

  Running in c1 symmetry.

  Rotational constants: A =      0.39088  B =      0.03935  C =      0.03911 [cm^-1]
  Rotational constants: A =  11718.34862  B =   1179.55926  C =   1172.47816 [MHz]
  Nuclear repulsion =  245.975698425752199

  Charge       = 0
  Multiplicity = 1
  Electrons    = 50
  Nalpha       = 25
  Nbeta        = 25

  ==> Algorithm <==

  SCF Algorithm Type is DF.
  DIIS enabled.
  MOM disabled.
  Fractional occupation disabled.
  Guess Type is READ.
  Energy threshold   = 1.00e-08
  Density threshold  = 1.00e-08
  Integral threshold = 0.00e+00

  ==> Primary Basis <==

  Basis Set: 6-31G*
    Number of shells: 62
    Number of basis function: 116
    Number of Cartesian functions: 116
    Spherical Harmonics?: false
    Max angular momentum: 2

  ==> Pre-Iterations <==

   -------------------------------------------------------
    Irrep   Nso     Nmo     Nalpha   Nbeta   Ndocc  Nsocc
   -------------------------------------------------------
     A        116     116       0       0       0       0
   -------------------------------------------------------
    Total     116     116      25      25      25       0
   -------------------------------------------------------

 OEINTS: Overlap, kinetic, potential, dipole, and quadrupole integrals
         stored in file 35.

  ==> Integral Setup <==

  ==> DFJK: Density-Fitted J/K Matrices <==

    J tasked:                  Yes
    K tasked:                  Yes
    wK tasked:                  No
    OpenMP threads:              4
    Integrals threads:           4
    Memory (MB):              1430
    Algorithm:                Core
    Integral Cache:           NONE
    Schwarz Cutoff:          1E-12
    Fitting Condition:       1E-12

   => Auxiliary Basis Set <=

  Basis Set: 
    Number of shells: 261
    Number of basis function: 811
    Number of Cartesian functions: 811
    Spherical Harmonics?: false
    Max angular momentum: 3

  Minimum eigenvalue in the overlap matrix is 3.6011600195E-03.
  Using Symmetric Orthogonalization.
  SCF Guess: Reading in previously saved MOs, projecting if necessary.

  Using orbitals from previous SCF, no projection.
  Recomputing DOCC and SOCC from number of alpha and beta electrons from previous calculation.
              A 
    DOCC [    25 ]

  ==> Iterations <==

                           Total Energy        Delta E     RMS |[F,P]|

   @DF-RHF iter   0:  -251.34131927310179   -2.51341e+02   5.14457e-04 
   @DF-RHF iter   1:  -251.34545217831484   -4.13291e-03   7.33769e-05 
   @DF-RHF iter   2:  -251.34551594893540   -6.37706e-05   2.46619e-05 DIIS
   @DF-RHF iter   3:  -251.34552465382885   -8.70489e-06   8.75059e-06 DIIS
   @DF-RHF iter   4:  -251.34552559291021   -9.39081e-07   2.02917e-06 DIIS
   @DF-RHF iter   5:  -251.34552566610066   -7.31904e-08   6.55991e-07 DIIS
   @DF-RHF iter   6:  -251.34552567482362   -8.72296e-09   1.73239e-07 DIIS
   @DF-RHF iter   7:  -251.34552567532839   -5.04770e-10   5.59868e-08 DIIS
   @DF-RHF iter   8:  -251.34552567537204   -4.36557e-11   1.25190e-08 DIIS
   @DF-RHF iter   9:  -251.34552567537477   -2.72848e-12   3.38761e-09 DIIS

  ==> Post-Iterations <==

    Orbital Energies (a.u.)
    -----------------------

    Doubly Occupied:                                                      

       1A    -15.532461     2A    -11.240671     3A    -11.214645  
       4A    -11.213739     5A    -11.210317     6A    -11.208426  
       7A     -1.174808     8A     -1.072440     9A     -0.996038  
      10A     -0.900829    11A     -0.815576    12A     -0.788527  
      13A     -0.666298    14A     -0.637235    15A     -0.617809  
      16A     -0.582937    17A     -0.566600    18A     -0.548736  
      19A     -0.529555    20A     -0.502682    21A     -0.484679  
      22A     -0.465202    23A     -0.460938    24A     -0.444600  
      25A     -0.379211  

    Virtual:                                                              

      26A      0.223768    27A      0.238772    28A      0.268783  
      29A      0.276701    30A      0.283756    31A      0.303458  
      32A      0.321310    33A      0.322375    34A      0.331833  
      35A      0.339575    36A      0.345620    37A      0.358744  
      38A      0.378233    39A      0.397763    40A      0.436355  
      41A      0.452007    42A      0.465376    43A      0.493213  
      44A      0.709867    45A      0.723144    46A      0.751932  
      47A      0.753687    48A      0.769972    49A      0.823621  
      50A      0.840885    51A      0.863589    52A      0.921452  
      53A      0.941238    54A      0.973712    55A      0.993461  
      56A      1.005374    57A      1.016435    58A      1.038273  
      59A      1.077630    60A      1.128921    61A      1.139614  
      62A      1.149691    63A      1.169695    64A      1.179874  
      65A      1.194102    66A      1.210501    67A      1.215545  
      68A      1.222085    69A      1.231346    70A      1.237205  
      71A      1.256687    72A      1.264342    73A      1.271439  
      74A      1.288058    75A      1.402531    76A      1.443348  
      77A      1.625791    78A      1.678198    79A      1.709054  
      80A      1.740723    81A      1.819834    82A      1.846426  
      83A      1.943581    84A      1.999584    85A      2.074599  
      86A      2.125763    87A      2.192809    88A      2.226757  
      89A      2.262270    90A      2.274013    91A      2.294204  
      92A      2.313778    93A      2.338487    94A      2.377795  
      95A      2.419538    96A      2.476995    97A      2.568316  
      98A      2.613120    99A      2.628258   100A      2.689244  
     101A      2.696210   102A      2.756713   103A      2.786861  
     104A      2.802999   105A      2.880480   106A      2.932531  
     107A      2.939851   108A      3.051716   109A      3.126522  
     110A      3.155287   111A      4.208593   112A      4.561981  
     113A      4.662332   114A      4.771957   115A      4.882465  
     116A      4.993260  

    Final Occupation by Irrep:
              A 
    DOCC [    25 ]

  Energy converged.

  @DF-RHF Final Energy:  -251.34552567537477

   => Energetics <=

    Nuclear Repulsion Energy =            245.9756984257521992
    One-Electron Energy =                -826.1325316149298033
    Two-Electron Energy =                 328.8113075138030013
    DFT Exchange-Correlation Energy =       0.0000000000000000
    Empirical Dispersion Energy =           0.0000000000000000
    PCM Polarization Energy =               0.0000000000000000
    EFP Energy =                            0.0000000000000000
    Total Energy =                       -251.3455256753746312

    Alert: EFP and PCM quantities not currently incorporated into SCF psivars.

Properties will be evaluated at   0.000000,   0.000000,   0.000000 Bohr
  ==> Properties <==


Properties computed using the SCF density matrix

  Nuclear Dipole Moment: (a.u.)
     X:    -3.5439      Y:     0.8368      Z:    -0.4812

  Electronic Dipole Moment: (a.u.)
     X:     3.4136      Y:    -0.3131      Z:     0.5035

  Dipole Moment: (a.u.)
     X:    -0.1303      Y:     0.5237      Z:     0.0223     Total:     0.5401

  Dipole Moment: (Debye)
     X:    -0.3311      Y:     1.3312      Z:     0.0567     Total:     1.3729


  Saving occupied orbitals to File 180.

*** tstop() called on cx1-1-1-3.cx1.hpc.ic.ac.uk at Fri Sep  2 11:46:54 2016
Module time:
	user time   =      13.48 seconds =       0.22 minutes
	system time =       0.17 seconds =       0.00 minutes
	total time  =          5 seconds =       0.08 minutes
Total time:
	user time   =      46.08 seconds =       0.77 minutes
	system time =       0.55 seconds =       0.01 minutes
	total time  =         16 seconds =       0.27 minutes

*** tstart() called on cx1-1-1-3.cx1.hpc.ic.ac.uk
*** at Fri Sep  2 11:46:54 2016


         ------------------------------------------------------------
                                   SCF GRAD                          
                          Rob Parrish, Justin Turney,                
                       Andy Simmonett, and Alex Sokolov              
         ------------------------------------------------------------

  ==> Geometry <==

    Molecular point group: c1
    Full point group: C1

    Geometry (in Angstrom), charge = 0, multiplicity = 1:

       Center              X                  Y                   Z               Mass       
    ------------   -----------------  -----------------  -----------------  -----------------
           H          3.600588841976     0.719168197421     1.001227463849     1.007825032070
           N          2.778548056997     0.145965778884     0.983935729641    14.003074004780
           C          1.966891256867     0.438790800934    -0.191968783587    12.000000000000
           H          2.266548677533     0.353412067749     1.820740508420     1.007825032070
           C          0.717125072335    -0.471156159182    -0.270388467862    12.000000000000
           H          2.602046519157     0.284674574939    -1.056890125372     1.007825032070
           H          1.660320167847     1.486038011254    -0.228967513480     1.007825032070
           C         -0.612860257129     0.285882008436    -0.219197484232    12.000000000000
           H          0.740805459045    -1.071735768468    -1.175491478006     1.007825032070
           H          0.759524305442    -1.179965297493     0.550434440338     1.007825032070
           C         -1.836966292748    -0.631156804777    -0.241836822011    12.000000000000
           H         -0.670061557436     0.980146912570    -1.056189007946     1.007825032070
           H         -0.639647701567     0.897020367440     0.682411870704     1.007825032070
           C         -3.159778479604     0.132302883938    -0.181933750764    12.000000000000
           H         -1.812071197526    -1.240015262232    -1.143033443568     1.007825032070
           H         -1.781947965444    -1.324380183695     0.594861484265     1.007825032070
           H         -3.260364779241     0.809333527897    -1.025662050300     1.007825032070
           H         -4.007608325143    -0.545616870810    -0.199621880956     1.007825032070
           H         -3.229768932781     0.725008915795     0.725951150435     1.007825032070

  Nuclear repulsion =  245.975698425752199

  ==> Basis Set <==

  Basis Set: 6-31G*
    Number of shells: 62
    Number of basis function: 116
    Number of Cartesian functions: 116
    Spherical Harmonics?: false
    Max angular momentum: 2

  ==> DFJKGrad: Density-Fitted SCF Gradients <==

    Gradient:                    1
    J tasked:                  Yes
    K tasked:                  Yes
    wK tasked:                  No
    OpenMP threads:              4
    Integrals threads:           4
    Memory (MB):              1430
    Schwarz Cutoff:          0E+00
    Fitting Condition:       1E-12

   => Auxiliary Basis Set <=

  Basis Set: 
    Number of shells: 261
    Number of basis function: 811
    Number of Cartesian functions: 811
    Spherical Harmonics?: false
    Max angular momentum: 3


  -Total Gradient:
     Atom            X                  Y                   Z
    ------   -----------------  -----------------  -----------------
       1        0.000490105596    -0.000096518924     0.000789554268
       2        0.001915718567     0.001873809899    -0.001277056670
       3        0.000240766778    -0.001037741302     0.001527312752
       4       -0.000118045778     0.000098109749    -0.000258735620
       5       -0.001322970491    -0.000082526613    -0.000756087542
       6        0.000812114589     0.001114107495     0.000666596677
       7        0.001406275457     0.000150575684     0.000370337936
       8       -0.000721194717    -0.001516206172    -0.001106075741
       9       -0.001552816249    -0.000715140964     0.000623340320
      10       -0.000601279666     0.000187265947    -0.000741670308
      11       -0.000649750293     0.000364030186     0.000045540255
      12       -0.000203396198     0.000029495604    -0.000027091001
      13        0.000528266789    -0.000332928220    -0.000020140664
      14       -0.000194219123    -0.000221555310     0.000048157702
      15        0.000090503123     0.000110436748     0.000069980817
      16        0.000023841145    -0.000017492920     0.000017576476
      17        0.000004837986     0.000005867361    -0.000012793253
      18       -0.000124849013     0.000066051305     0.000020192660
      19       -0.000023908502     0.000020360448     0.000021060937


*** tstop() called on cx1-1-1-3.cx1.hpc.ic.ac.uk at Fri Sep  2 11:46:59 2016
Module time:
	user time   =      17.56 seconds =       0.29 minutes
	system time =       0.19 seconds =       0.00 minutes
	total time  =          5 seconds =       0.08 minutes
Total time:
	user time   =      63.66 seconds =       1.06 minutes
	system time =       0.74 seconds =       0.01 minutes
	total time  =         21 seconds =       0.35 minutes
CURRENT ENERGY: -251.3455256754

			-----------------------------------------
			 OPTKING 2.0: for geometry optimizations 
			  - R.A. King,  Bethel University        
			-----------------------------------------

	Previous internal coordinate definitions found.
	---Fragment 1 Geometry and Gradient---
	 H           6.8041268285        1.3590309366        1.8920457034
	 N           5.2506948748        0.2758353469        1.8593690614
	 C           3.7168858086        0.8291944434       -0.3627684270
	 H           4.2831562674        0.6678520201        3.4407009200
	 C           1.3551699897       -0.8903561067       -0.5109601538
	 H           4.9171553062        0.5379569836       -1.9972328895
	 H           3.1375504101        2.8082048643       -0.4326858938
	 C          -1.1581380437        0.5402387023       -0.4142232142
	 H           1.3999194353       -2.0252870892       -2.2213569650
	 H           1.4352929286       -2.2298112586        1.0401703463
	 C          -3.4713632086       -1.1927135079       -0.4570053624
	 H          -1.2662328357        1.8522092347       -1.9959079696
	 H          -1.2087589775        1.6951228301        1.2895715455
	 C          -5.9711159670        0.2500162172       -0.3438049633
	 H          -3.4243182966       -2.3432892462       -2.1600201691
	 H          -3.3673936377       -2.5027158430        1.1241252923
	 H          -6.1611965261        1.5294187179       -1.9382203800
	 H          -7.5732821824       -1.0310664593       -0.3772306851
	 H          -6.1033787555        1.3700682948        1.3718488602
	             0.0004901056       -0.0000965189        0.0007895543
	             0.0019157186        0.0018738099       -0.0012770567
	             0.0002407668       -0.0010377413        0.0015273128
	            -0.0001180458        0.0000981097       -0.0002587356
	            -0.0013229705       -0.0000825266       -0.0007560875
	             0.0008121146        0.0011141075        0.0006665967
	             0.0014062755        0.0001505757        0.0003703379
	            -0.0007211947       -0.0015162062       -0.0011060757
	            -0.0015528162       -0.0007151410        0.0006233403
	            -0.0006012797        0.0001872659       -0.0007416703
	            -0.0006497503        0.0003640302        0.0000455403
	            -0.0002033962        0.0000294956       -0.0000270910
	             0.0005282668       -0.0003329282       -0.0000201407
	            -0.0001942191       -0.0002215553        0.0000481577
	             0.0000905031        0.0001104367        0.0000699808
	             0.0000238411       -0.0000174929        0.0000175765
	             0.0000048380        0.0000058674       -0.0000127933
	            -0.0001248490        0.0000660513        0.0000201927
	            -0.0000239085        0.0000203604        0.0000210609

	---Fragment 1 Intrafragment Coordinates---
	 - Coordinate -           - BOHR/RAD -       - ANG/DEG -
	 R(1,2)           =         1.894078	       1.002303
	 R(2,3)           =         2.756206	       1.458522
	 R(2,4)           =         1.894840	       1.002706
	 R(3,5)           =         2.925152	       1.547924
	 R(3,6)           =         2.048644	       1.084096
	 R(3,7)           =         2.063250	       1.091825
	 R(5,8)           =         2.893558	       1.531205
	 R(5,9)           =         2.053175	       1.086494
	 R(5,10)          =         2.050991	       1.085338
	 R(8,11)          =         2.890668	       1.529676
	 R(8,12)          =         2.057833	       1.088959
	 R(8,13)          =         2.058941	       1.089545
	 R(11,14)         =         2.888433	       1.528493
	 R(11,15)         =         2.055796	       1.087880
	 R(11,16)         =         2.055940	       1.087957
	 R(14,17)         =         2.053086	       1.086446
	 R(14,18)         =         2.051640	       1.085681
	 R(14,19)         =         2.053163	       1.086487
	 B(1,2,3)         =         1.934247	     110.824175
	 B(1,2,4)         =         1.860920	     106.622886
	 B(2,3,5)         =         1.952094	     111.846753
	 B(2,3,6)         =         1.863614	     106.777195
	 B(2,3,7)         =         1.956432	     112.095316
	 B(3,2,4)         =         1.925322	     110.312819
	 B(3,5,8)         =         1.992101	     114.138974
	 B(3,5,9)         =         1.927888	     110.459870
	 B(3,5,10)        =         1.890259	     108.303849
	 B(5,3,6)         =         1.927348	     110.428901
	 B(5,3,7)         =         1.912857	     109.598629
	 B(5,8,11)        =         1.980335	     113.464845
	 B(5,8,12)        =         1.912548	     109.580937
	 B(5,8,13)        =         1.903224	     109.046709
	 B(6,3,7)         =         1.848170	     105.892315
	 B(8,5,9)         =         1.896604	     108.667406
	 B(8,5,10)        =         1.908725	     109.361882
	 B(8,11,14)       =         1.974182	     113.112283
	 B(8,11,15)       =         1.906540	     109.236705
	 B(8,11,16)       =         1.907246	     109.277136
	 B(9,5,10)        =         1.842289	     105.555376
	 B(11,8,12)       =         1.905828	     109.195910
	 B(11,8,13)       =         1.905870	     109.198297
	 B(11,14,17)      =         1.940081	     111.158463
	 B(11,14,18)      =         1.942614	     111.303565
	 B(11,14,19)      =         1.940116	     111.160443
	 B(12,8,13)       =         1.851610	     106.089448
	 B(14,11,15)      =         1.909028	     109.379232
	 B(14,11,16)      =         1.909100	     109.383347
	 B(15,11,16)      =         1.853874	     106.219182
	 B(17,14,18)      =         1.879854	     107.707700
	 B(17,14,19)      =         1.878657	     107.639091
	 B(18,14,19)      =         1.879626	     107.694650
	 D(1,2,3,5)       =         3.104158	     177.855162
	 D(1,2,3,6)       =         0.993939	      56.948525
	 D(1,2,3,7)       =        -1.022529	     -58.586601
	 D(2,3,5,8)       =         2.067311	     118.448190
	 D(2,3,5,9)       =        -2.072793	    -118.762284
	 D(2,3,5,10)      =        -0.063152	      -3.618369
	 D(3,5,8,11)      =        -3.101665	    -177.712330
	 D(3,5,8,12)      =         1.046394	      59.953981
	 D(3,5,8,13)      =        -0.973319	     -55.767065
	 D(4,2,3,5)       =        -1.122164	     -64.295254
	 D(4,2,3,6)       =         3.050803	     174.798109
	 D(4,2,3,7)       =         1.034334	      59.262983
	 D(5,8,11,14)     =         3.135528	     179.652536
	 D(5,8,11,15)     =        -1.017031	     -58.271611
	 D(5,8,11,16)     =         1.004300	      57.542180
	 D(6,3,5,8)       =        -2.143070	    -122.788848
	*D(6,3,5,9)       =         0.000000	       0.000000
	 D(6,3,5,10)      =         2.009652	     115.144593
	 D(7,3,5,8)       =        -0.113555	      -6.506224
	 D(7,3,5,9)       =         2.029526	     116.283302
	 D(7,3,5,10)      =        -2.244018	    -128.572783
	 D(8,11,14,17)    =         1.046094	      59.936751
	 D(8,11,14,18)    =        -3.141544	    -179.997241
	 D(8,11,14,19)    =        -1.046263	     -59.946428
	 D(9,5,8,11)      =         1.021497	      58.527443
	 D(9,5,8,12)      =        -1.113629	     -63.806247
	 D(9,5,8,13)      =        -3.133342	    -179.527292
	 D(10,5,8,11)     =        -0.981370	     -56.228353
	 D(10,5,8,12)     =        -3.116496	    -178.562042
	 D(10,5,8,13)     =         1.146976	      65.716912
	 D(12,8,11,14)    =        -1.008811	     -57.800589
	 D(12,8,11,15)    =         1.121815	      64.275265
	 D(12,8,11,16)    =        -3.140038	    -179.910945
	 D(13,8,11,14)    =         1.008655	      57.791700
	 D(13,8,11,15)    =         3.139281	     179.867553
	 D(13,8,11,16)    =        -1.122572	     -64.318656
	 D(15,11,14,17)   =        -1.083139	     -62.059302
	 D(15,11,14,18)   =         1.012408	      58.006706
	 D(15,11,14,19)   =         3.107690	     178.057519
	 D(16,11,14,17)   =        -3.106901	    -178.012332
	 D(16,11,14,18)   =        -1.011354	     -57.946323
	 D(16,11,14,19)   =         1.083928	      62.104489

	Current energy   :      -251.3455256754

	Energy change for the previous step:
		Projected    :        -0.0026774679
		Actual       :        -0.0003718947
	Energy ratio indicates iffy step: Trust radius decreased to 1.250e-01.


	Performing BFGS update.
	Previous computed or guess Hessian on step 1.
	Steps to be used in Hessian update: 1
	Taking RFO optimization step.
	Going to follow RFO solution 1.
	Using RFO vector 1.
	Norm of target step-size    0.07049
	Projected energy change by RFO approximation:        -0.0002447112

	Back-transformation to cartesian coordinates...
	Successfully converged to displaced geometry.

	Back-transformation to cartesian coordinates to adjust frozen coordinates...
	Successfully converged to displaced geometry.

	--- Internal Coordinate Step in ANG or DEG, aJ/ANG or AJ/DEG ---
	 ---------------------------------------------------------------------------
	   Coordinate                Previous        Force       Change         New 
	   ----------                --------       ------       ------       ------
	    1 R(1,2)          =      1.002303    -0.002969    -0.000259     1.002044
	    2 R(2,3)          =      1.458522    -0.002430    -0.000203     1.458319
	    3 R(2,4)          =      1.002706     0.001115     0.000113     1.002819
	    4 R(3,5)          =      1.547924    -0.042516    -0.005532     1.542393
	    5 R(3,6)          =      1.084096     0.001766     0.000168     1.084264
	    6 R(3,7)          =      1.091825     0.002167     0.000243     1.092068
	    7 R(5,8)          =      1.531205    -0.002750    -0.000347     1.530858
	    8 R(5,9)          =      1.086494     0.001300     0.000171     1.086664
	    9 R(5,10)         =      1.085338     0.005822     0.000600     1.085938
	   10 R(8,11)         =      1.529676    -0.004115    -0.000618     1.529058
	   11 R(8,12)         =      1.088959    -0.000415    -0.000052     1.088906
	   12 R(8,13)         =      1.089545     0.001783     0.000242     1.089786
	   13 R(11,14)        =      1.528493    -0.001904    -0.000274     1.528219
	   14 R(11,15)        =      1.087880     0.000970     0.000125     1.088006
	   15 R(11,16)        =      1.087957    -0.000213    -0.000027     1.087930
	   16 R(14,17)        =      1.086446    -0.000108    -0.000013     1.086434
	   17 R(14,18)        =      1.085681    -0.000461    -0.000056     1.085625
	   18 R(14,19)        =      1.086487    -0.000249    -0.000030     1.086457
	   19 B(1,2,3)        =    110.824175    -0.000111    -0.373246   110.450929
	   20 B(1,2,4)        =    106.622886     0.000025     0.037632   106.660518
	   21 B(2,3,5)        =    111.846753    -0.000252    -0.626030   111.220722
	   22 B(2,3,6)        =    106.777195     0.000135     0.550202   107.327397
	   23 B(2,3,7)        =    112.095316     0.000140     0.459363   112.554679
	   24 B(3,2,4)        =    110.312819     0.000051     0.137464   110.450283
	   25 B(3,5,8)        =    114.138974    -0.000114    -0.293130   113.845844
	   26 B(3,5,9)        =    110.459870    -0.000070    -0.493914   109.965955
	   27 B(3,5,10)       =    108.303849     0.000026    -0.086882   108.216967
	   28 B(5,3,6)        =    110.428901    -0.000018    -0.295987   110.132914
	   29 B(5,3,7)        =    109.598629     0.000005    -0.286402   109.312227
	   30 B(5,8,11)       =    113.464845    -0.000095    -0.225172   113.239673
	   31 B(5,8,12)       =    109.580937     0.000006    -0.105520   109.475417
	   32 B(5,8,13)       =    109.046709     0.000068     0.313636   109.360344
	   33 B(6,3,7)        =    105.892315     0.000006     0.250512   106.142826
	   34 B(8,5,9)        =    108.667406     0.000116     0.468271   109.135677
	   35 B(8,5,10)       =    109.361882     0.000043     0.262126   109.624008
	   36 B(8,11,14)      =    113.112283    -0.000033    -0.081258   113.031025
	   37 B(8,11,15)      =    109.236705     0.000016     0.047217   109.283922
	   38 B(8,11,16)      =    109.277136     0.000010     0.025411   109.302547
	   39 B(9,5,10)       =    105.555376     0.000007     0.179136   105.734512
	   40 B(11,8,12)      =    109.195910     0.000037    -0.009222   109.186688
	   41 B(11,8,13)      =    109.198297     0.000009     0.057768   109.256064
	   42 B(11,14,17)     =    111.158463     0.000004     0.014561   111.173024
	   43 B(11,14,18)     =    111.303565    -0.000014    -0.050586   111.252979
	   44 B(11,14,19)     =    111.160443     0.000000     0.002894   111.163337
	   45 B(12,8,13)      =    106.089448    -0.000020    -0.017809   106.071639
	   46 B(14,11,15)     =    109.379232     0.000004    -0.013197   109.366035
	   47 B(14,11,16)     =    109.383347     0.000011     0.021548   109.404896
	   48 B(15,11,16)     =    106.219182    -0.000006     0.005684   106.224866
	   49 B(17,14,18)     =    107.707700     0.000005     0.009382   107.717081
	   50 B(17,14,19)     =    107.639091     0.000000     0.010542   107.649633
	   51 B(18,14,19)     =    107.694650     0.000007     0.015315   107.709965
	   52 D(1,2,3,5)      =    177.855162     0.000000     0.146997   178.002160
	   53 D(1,2,3,6)      =     56.948525     0.000019     0.527473    57.475999
	   54 D(1,2,3,7)      =    -58.586601    -0.000018    -0.357609   -58.944209
	   55 D(2,3,5,8)      =    118.448190    -0.000002    -0.118293   118.329897
	   56 D(2,3,5,9)      =   -118.762284     0.000001    -0.094735  -118.857019
	   57 D(2,3,5,10)     =     -3.618369    -0.000002    -0.194854    -3.813223
	   58 D(3,5,8,11)     =   -177.712330    -0.000007    -1.274308  -178.986638
	   59 D(3,5,8,12)     =     59.953981    -0.000004    -1.029350    58.924631
	   60 D(3,5,8,13)     =    -55.767065    -0.000008    -1.125379   -56.892444
	   61 D(4,2,3,5)      =    -64.295254    -0.000001     0.048034   -64.247220
	   62 D(4,2,3,6)      =    174.798109     0.000018     0.428510   175.226619
	   63 D(4,2,3,7)      =     59.262983    -0.000019    -0.456572    58.806411
	   64 D(5,8,11,14)    =    179.652536     0.000005     0.745864   180.398399
	   65 D(5,8,11,15)    =    -58.271611     0.000004     0.707836   -57.563774
	   66 D(5,8,11,16)    =     57.542180     0.000005     0.755164    58.297343
	   67 D(6,3,5,8)      =   -122.788848    -0.000004    -0.023595  -122.812443
	   68 *D(6,3,5,9)     =      0.000000     0.000000     0.000000     0.000000
	   69 D(6,3,5,10)     =    115.144593    -0.000003    -0.100156   115.044437
	   70 D(7,3,5,8)      =     -6.506224    -0.000004    -0.058517    -6.564741
	   71 D(7,3,5,9)      =    116.283302     0.000000    -0.034959   116.248343
	   72 D(7,3,5,10)     =   -128.572783    -0.000003    -0.135078  -128.707861
	   73 D(8,11,14,17)   =     59.936751     0.000000    -0.036200    59.900550
	   74 D(8,11,14,18)   =   -179.997241     0.000000    -0.048534  -180.045775
	   75 D(8,11,14,19)   =    -59.946428    -0.000000    -0.061204   -60.007632
	   76 D(9,5,8,11)     =     58.527443     0.000012    -0.780505    57.746938
	   77 D(9,5,8,12)     =    -63.806247     0.000015    -0.535546   -64.341793
	   78 D(9,5,8,13)     =   -179.527292     0.000011    -0.631576  -180.158868
	   79 D(10,5,8,11)    =    -56.228353    -0.000010    -1.394475   -57.622828
	   80 D(10,5,8,12)    =   -178.562042    -0.000007    -1.149516  -179.711559
	   81 D(10,5,8,13)    =     65.716912    -0.000011    -1.245546    64.471366
	   82 D(12,8,11,14)   =    -57.800589    -0.000002     0.448752   -57.351836
	   83 D(12,8,11,15)   =     64.275265    -0.000003     0.410725    64.685990
	   84 D(12,8,11,16)   =   -179.910945    -0.000001     0.458052  -179.452892
	   85 D(13,8,11,14)   =     57.791700    -0.000001     0.454316    58.246016
	   86 D(13,8,11,15)   =    179.867553    -0.000003     0.416289   180.283842
	   87 D(13,8,11,16)   =    -64.318656    -0.000001     0.463616   -63.855040
	   88 D(15,11,14,17)  =    -62.059302     0.000000    -0.031917   -62.091219
	   89 D(15,11,14,18)  =     58.006706    -0.000000    -0.044250    57.962456
	   90 D(15,11,14,19)  =    178.057519    -0.000000    -0.056921   178.000598
	   91 D(16,11,14,17)  =   -178.012332     0.000000    -0.043432  -178.055764
	   92 D(16,11,14,18)  =    -57.946323    -0.000000    -0.055766   -58.002089
	   93 D(16,11,14,19)  =     62.104489    -0.000001    -0.068436    62.036053
	 ---------------------------------------------------------------------------

  ==> Convergence Check <==

  Measures of convergence in internal coordinates in au.
  Criteria marked as inactive (o), active & met (*), and active & unmet ( ).
  ---------------------------------------------------------------------------------------------
   Step     Total Energy     Delta E     MAX Force     RMS Force      MAX Disp      RMS Disp   
  ---------------------------------------------------------------------------------------------
    Convergence Criteria    1.00e-06 *    3.00e-04 *             o    1.20e-03 *             o
  ---------------------------------------------------------------------------------------------
      2    -251.34552568   -3.72e-04      5.16e-03      8.37e-04 o    2.43e-02      7.31e-03 o  ~
  ---------------------------------------------------------------------------------------------

	Writing optimization data to binary file.
	Structure for next step:
	Cartesian Geometry (in Angstrom)
	    H     3.5925485209   0.7198595234   0.9881757327
	    N     2.7721447695   0.1446292663   0.9763317648
	    C     1.9608815375   0.4382561754  -0.1993932536
	    H     2.2626727969   0.3531521569   1.8145452908
	    C     0.7176843982  -0.4725547435  -0.2615158834
	    H     2.5853633252   0.2773220911  -1.0710302855
	    H     1.6455923506   1.4830130179  -0.2404809966
	    C    -0.6098924896   0.2873812902  -0.2018178785
	    H     0.7433486188  -1.0742451232  -1.1660320869
	    H     0.7717777188  -1.1774954902   0.5627376334
	    C    -1.8325061566  -0.6301195253  -0.2395817116
	    H    -0.6637932694   0.9897828553  -1.0321452254
	    H    -0.6407005808   0.8900429355   0.7056423733
	    C    -3.1551131451   0.1338544178  -0.1895085264
	    H    -1.7995865395  -1.2356174845  -1.1429336929
	    H    -1.7854848939  -1.3264549241   0.5949826496
	    H    -3.2471858532   0.8145722787  -1.0312232847
	    H    -4.0025250718  -0.5441022300  -0.2186679676
	    H    -3.2339034674   0.7224412735   0.7202971398
			--------------------------
			 OPTKING Finished Execution 
			--------------------------

    Structure for next step:
    Molecular point group: c1
    Full point group: C1

    Geometry (in Angstrom), charge = 0, multiplicity = 1:

    H            3.592665269998     0.719786927926     0.987605454078
    N            2.772261581279     0.144556714758     0.975761487087
    C            1.960998411234     0.438183601502    -0.199963441551
    H            2.262789647585     0.353079589420     1.813974949069
    C            0.717801366841    -0.472627247855    -0.262086066649
    H            2.585480151226     0.277249529441    -1.071600406910
    H            1.645709248368     1.482940364218    -0.241051181445
    C           -0.609775419567     0.287308727838    -0.202388066326
    H            0.743465585455    -1.074317581655    -1.166602201014
    H            0.771894683352    -1.177567940730     0.562167387225
    C           -1.832388993188    -0.630192017664    -0.240151896506
    H           -0.663676195255     0.989710239300    -1.032715349740
    H           -0.640583508434     0.889970327071     0.705072116197
    C           -3.154995880690     0.133781867070    -0.190078715115
    H           -1.799469378630    -1.235689930643    -1.143503808812
    H           -1.785367734082    -1.326527363270     0.594412400992
    H           -3.247068581780     0.814499676078    -1.031793409100
    H           -4.002407742736    -0.544174728884    -0.219238154112
    H           -3.233786197027     0.722368677890     0.719726881600

gradient() will perform analytic gradient computation.

*** tstart() called on cx1-1-1-3.cx1.hpc.ic.ac.uk
*** at Fri Sep  2 11:47:00 2016


         ---------------------------------------------------------
                                   SCF
            by Justin Turney, Rob Parrish, and Andy Simmonett
                              RHF Reference
                        4 Threads,   2000 MiB Core
         ---------------------------------------------------------

  ==> Geometry <==

    Molecular point group: c1
    Full point group: C1

    Geometry (in Angstrom), charge = 0, multiplicity = 1:

       Center              X                  Y                   Z               Mass       
    ------------   -----------------  -----------------  -----------------  -----------------
           H          3.592665269998     0.719786927926     0.987605454078     1.007825032070
           N          2.772261581279     0.144556714758     0.975761487087    14.003074004780
           C          1.960998411234     0.438183601502    -0.199963441551    12.000000000000
           H          2.262789647585     0.353079589420     1.813974949069     1.007825032070
           C          0.717801366841    -0.472627247855    -0.262086066649    12.000000000000
           H          2.585480151226     0.277249529441    -1.071600406910     1.007825032070
           H          1.645709248368     1.482940364218    -0.241051181445     1.007825032070
           C         -0.609775419567     0.287308727838    -0.202388066326    12.000000000000
           H          0.743465585455    -1.074317581655    -1.166602201014     1.007825032070
           H          0.771894683352    -1.177567940730     0.562167387225     1.007825032070
           C         -1.832388993188    -0.630192017664    -0.240151896506    12.000000000000
           H         -0.663676195255     0.989710239300    -1.032715349740     1.007825032070
           H         -0.640583508434     0.889970327071     0.705072116197     1.007825032070
           C         -3.154995880690     0.133781867070    -0.190078715115    12.000000000000
           H         -1.799469378630    -1.235689930643    -1.143503808812     1.007825032070
           H         -1.785367734082    -1.326527363270     0.594412400992     1.007825032070
           H         -3.247068581780     0.814499676078    -1.031793409100     1.007825032070
           H         -4.002407742736    -0.544174728884    -0.219238154112     1.007825032070
           H         -3.233786197027     0.722368677890     0.719726881600     1.007825032070

  Running in c1 symmetry.

  Rotational constants: A =      0.39270  B =      0.03952  C =      0.03929 [cm^-1]
  Rotational constants: A =  11772.83128  B =   1184.78831  C =   1177.83277 [MHz]
  Nuclear repulsion =  246.316022031696377

  Charge       = 0
  Multiplicity = 1
  Electrons    = 50
  Nalpha       = 25
  Nbeta        = 25

  ==> Algorithm <==

  SCF Algorithm Type is DF.
  DIIS enabled.
  MOM disabled.
  Fractional occupation disabled.
  Guess Type is READ.
  Energy threshold   = 1.00e-08
  Density threshold  = 1.00e-08
  Integral threshold = 0.00e+00

  ==> Primary Basis <==

  Basis Set: 6-31G*
    Number of shells: 62
    Number of basis function: 116
    Number of Cartesian functions: 116
    Spherical Harmonics?: false
    Max angular momentum: 2

  ==> Pre-Iterations <==

   -------------------------------------------------------
    Irrep   Nso     Nmo     Nalpha   Nbeta   Ndocc  Nsocc
   -------------------------------------------------------
     A        116     116       0       0       0       0
   -------------------------------------------------------
    Total     116     116      25      25      25       0
   -------------------------------------------------------

 OEINTS: Overlap, kinetic, potential, dipole, and quadrupole integrals
         stored in file 35.

  ==> Integral Setup <==

  ==> DFJK: Density-Fitted J/K Matrices <==

    J tasked:                  Yes
    K tasked:                  Yes
    wK tasked:                  No
    OpenMP threads:              4
    Integrals threads:           4
    Memory (MB):              1430
    Algorithm:                Core
    Integral Cache:           NONE
    Schwarz Cutoff:          1E-12
    Fitting Condition:       1E-12

   => Auxiliary Basis Set <=

  Basis Set: 
    Number of shells: 261
    Number of basis function: 811
    Number of Cartesian functions: 811
    Spherical Harmonics?: false
    Max angular momentum: 3

  Minimum eigenvalue in the overlap matrix is 3.5691001860E-03.
  Using Symmetric Orthogonalization.
  SCF Guess: Reading in previously saved MOs, projecting if necessary.

  Using orbitals from previous SCF, no projection.
  Recomputing DOCC and SOCC from number of alpha and beta electrons from previous calculation.
              A 
    DOCC [    25 ]

  ==> Iterations <==

                           Total Energy        Delta E     RMS |[F,P]|

   @DF-RHF iter   0:  -251.34658947183374   -2.51347e+02   1.94407e-04 
   @DF-RHF iter   1:  -251.34563350879205    9.55963e-04   3.30412e-05 
   @DF-RHF iter   2:  -251.34564666945988   -1.31607e-05   1.07979e-05 DIIS
   @DF-RHF iter   3:  -251.34564827789296   -1.60843e-06   3.59781e-06 DIIS
   @DF-RHF iter   4:  -251.34564840110289   -1.23210e-07   4.82928e-07 DIIS
   @DF-RHF iter   5:  -251.34564840510006   -3.99717e-09   1.41219e-07 DIIS
   @DF-RHF iter   6:  -251.34564840539167   -2.91607e-10   4.36144e-08 DIIS
   @DF-RHF iter   7:  -251.34564840542123   -2.95586e-11   1.42063e-08 DIIS
   @DF-RHF iter   8:  -251.34564840542492   -3.69482e-12   3.22201e-09 DIIS

  ==> Post-Iterations <==

    Orbital Energies (a.u.)
    -----------------------

    Doubly Occupied:                                                      

       1A    -15.532610     2A    -11.239950     3A    -11.214347  
       4A    -11.213591     5A    -11.209359     6A    -11.208183  
       7A     -1.175380     8A     -1.072572     9A     -0.996449  
      10A     -0.901098    11A     -0.814790    12A     -0.788592  
      13A     -0.666566    14A     -0.637466    15A     -0.618204  
[...]
	 R(5,8)           =         2.892095	       1.530431
	 R(5,9)           =         2.053491	       1.086661
	 R(5,10)          =         2.052483	       1.086127
	 R(8,11)          =         2.889771	       1.529201
	 R(8,12)          =         2.057740	       1.088909
	 R(8,13)          =         2.059250	       1.089708
	 R(11,14)         =         2.888180	       1.528359
	 R(11,15)         =         2.055964	       1.087969
	 R(11,16)         =         2.055859	       1.087914
	 R(14,17)         =         2.053033	       1.086418
	 R(14,18)         =         2.051582	       1.085650
	 R(14,19)         =         2.053106	       1.086457
	 B(1,2,3)         =         1.929610	     110.558520
	 B(1,2,4)         =         1.861376	     106.648965
	 B(2,3,5)         =         1.941247	     111.225268
	 B(2,3,6)         =         1.872211	     107.269787
	 B(2,3,7)         =         1.964493	     112.557142
	 B(3,2,4)         =         1.925678	     110.333235
	 B(3,5,8)         =         1.986915	     113.841870
	 B(3,5,9)         =         1.917739	     109.878370
	 B(3,5,10)        =         1.889446	     108.257265
	 B(5,3,6)         =         1.921511	     110.094470
	 B(5,3,7)         =         1.908991	     109.377139
	 B(5,8,11)        =         1.976640	     113.253121
	 B(5,8,12)        =         1.910012	     109.435606
	 B(5,8,13)        =         1.908746	     109.363117
	 B(6,3,7)         =         1.852901	     106.163409
	 B(8,5,9)         =         1.905379	     109.170165
	 B(8,5,10)        =         1.913456	     109.632959
	 B(8,11,14)       =         1.973405	     113.067782
	 B(8,11,15)       =         1.907103	     109.268958
	 B(8,11,16)       =         1.907640	     109.299735
	 B(9,5,10)        =         1.845569	     105.743286
	 B(11,8,12)       =         1.906331	     109.224734
	 B(11,8,13)       =         1.906523	     109.235732
	 B(11,14,17)      =         1.940082	     111.158486
	 B(11,14,18)      =         1.942140	     111.276436
	 B(11,14,19)      =         1.940182	     111.164264
	 B(12,8,13)       =         1.851394	     106.077077
	 B(14,11,15)      =         1.908754	     109.363569
	 B(14,11,16)      =         1.909232	     109.390919
	 B(15,11,16)      =         1.853884	     106.219743
	 B(17,14,18)      =         1.879962	     107.713905
	 B(17,14,19)      =         1.878786	     107.646497
	 B(18,14,19)      =         1.879821	     107.705794
	 D(1,2,3,5)       =         3.106226	     177.973625
	 D(1,2,3,6)       =         1.004060	      57.528372
	 D(1,2,3,7)       =        -1.027695	     -58.882606
	 D(2,3,5,8)       =         2.067304	     118.447814
	 D(2,3,5,9)       =        -2.072812	    -118.763385
	 D(2,3,5,10)      =        -0.065162	      -3.733508
	 D(3,5,8,11)      =        -3.118792	    -178.693620
	 D(3,5,8,12)      =         1.033034	      59.188472
	 D(3,5,8,13)      =        -0.988107	     -56.614347
	 D(4,2,3,5)       =        -1.122177	     -64.295991
	 D(4,2,3,6)       =         3.058842	     175.258757
	 D(4,2,3,7)       =         1.027088	      58.847779
	 D(5,8,11,14)     =        -3.139700	    -179.891535
	 D(5,8,11,15)     =        -1.009546	     -57.842701
	 D(5,8,11,16)     =         1.012332	      58.002351
	 D(6,3,5,8)       =        -2.143058	    -122.788152
	*D(6,3,5,9)       =         0.000000	       0.000000
	 D(6,3,5,10)      =         2.007661	     115.030525
	 D(7,3,5,8)       =        -0.113443	      -6.499810
	 D(7,3,5,9)       =         2.029626	     116.288992
	 D(7,3,5,10)      =        -2.245909	    -128.681132
	 D(8,11,14,17)    =         1.045505	      59.903013
	 D(8,11,14,18)    =         3.140871	     179.958647
	 D(8,11,14,19)    =        -1.047060	     -59.992097
	 D(9,5,8,11)      =         1.014571	      58.130613
	 D(9,5,8,12)      =        -1.116789	     -63.987295
	 D(9,5,8,13)      =        -3.137929	    -179.790114
	 D(10,5,8,11)     =        -0.999618	     -57.273914
	 D(10,5,8,12)     =        -3.130978	    -179.391823
	 D(10,5,8,13)     =         1.131067	      64.805359
	 D(12,8,11,14)    =        -1.006288	     -57.656057
	 D(12,8,11,15)    =         1.123866	      64.392777
	 D(12,8,11,16)    =        -3.137442	    -179.762171
	 D(13,8,11,14)    =         1.011560	      57.958121
	 D(13,8,11,15)    =        -3.141471	    -179.993045
	 D(13,8,11,16)    =        -1.119594	     -64.147993
	 D(15,11,14,17)   =        -1.083724	     -62.092796
	 D(15,11,14,18)   =         1.011642	      57.962838
	 D(15,11,14,19)   =         3.106897	     178.012094
	 D(16,11,14,17)   =        -3.107418	    -178.041945
	 D(16,11,14,18)   =        -1.012052	     -57.986311
	 D(16,11,14,19)   =         1.083203	      62.062945

	Current energy   :      -251.3456506991

	Energy change for the previous step:
		Projected    :        -0.0000058688
		Actual       :        -0.0000050002
	Energy ratio indicates good step: Trust radius increased to 3.750e-01.


	Performing BFGS update.
	Previous computed or guess Hessian on step 1.
	Steps to be used in Hessian update: 4 3
	Taking RFO optimization step.
	Going to follow RFO solution 1.
	Using RFO vector 1.
	Norm of target step-size    0.00372
	Projected energy change by RFO approximation:        -0.0000000858

	Back-transformation to cartesian coordinates...
	Successfully converged to displaced geometry.

	Back-transformation to cartesian coordinates to adjust frozen coordinates...
	Successfully converged to displaced geometry.

	--- Internal Coordinate Step in ANG or DEG, aJ/ANG or AJ/DEG ---
	 ---------------------------------------------------------------------------
	   Coordinate                Previous        Force       Change         New 
	   ----------                --------       ------       ------       ------
	    1 R(1,2)          =      1.002231    -0.000298    -0.000031     1.002199
	    2 R(2,3)          =      1.458145     0.000595     0.000082     1.458227
	    3 R(2,4)          =      1.002791     0.000269     0.000029     1.002821
	    4 R(3,5)          =      1.541892     0.000379     0.000075     1.541966
	    5 R(3,6)          =      1.084221     0.000156     0.000023     1.084244
	    6 R(3,7)          =      1.092097    -0.000073    -0.000011     1.092086
	    7 R(5,8)          =      1.530431     0.000223     0.000038     1.530469
	    8 R(5,9)          =      1.086661     0.000011     0.000001     1.086662
	    9 R(5,10)         =      1.086127    -0.000173    -0.000026     1.086101
	   10 R(8,11)         =      1.529201    -0.000293    -0.000050     1.529152
	   11 R(8,12)         =      1.088909     0.000021     0.000003     1.088912
	   12 R(8,13)         =      1.089708     0.000091     0.000013     1.089721
	   13 R(11,14)        =      1.528359    -0.000232    -0.000039     1.528320
	   14 R(11,15)        =      1.087969     0.000053     0.000008     1.087977
	   15 R(11,16)        =      1.087914     0.000031     0.000004     1.087918
	   16 R(14,17)        =      1.086418     0.000037     0.000006     1.086424
	   17 R(14,18)        =      1.085650    -0.000075    -0.000011     1.085640
	   18 R(14,19)        =      1.086457     0.000027     0.000004     1.086461
	   19 B(1,2,3)        =    110.558520    -0.000006    -0.020743   110.537777
	   20 B(1,2,4)        =    106.648965    -0.000001    -0.001263   106.647702
	   21 B(2,3,5)        =    111.225268    -0.000002    -0.003841   111.221427
	   22 B(2,3,6)        =    107.269787     0.000003     0.022425   107.292212
	   23 B(2,3,7)        =    112.557142    -0.000000    -0.010163   112.546979
	   24 B(3,2,4)        =    110.333235     0.000008     0.032317   110.365552
	   25 B(3,5,8)        =    113.841870     0.000000     0.001972   113.843841
	   26 B(3,5,9)        =    109.878370     0.000003     0.016084   109.894455
	   27 B(3,5,10)       =    108.257265    -0.000001    -0.005793   108.251472
	   28 B(5,3,6)        =    110.094470     0.000000     0.006125   110.100595
	   29 B(5,3,7)        =    109.377139    -0.000000    -0.010835   109.366303
	   30 B(5,8,11)       =    113.253121    -0.000001    -0.001966   113.251155
	   31 B(5,8,12)       =    109.435606     0.000002     0.010988   109.446594
	   32 B(5,8,13)       =    109.363117    -0.000000    -0.001891   109.361225
	   33 B(6,3,7)        =    106.163409    -0.000000    -0.002590   106.160819
	   34 B(8,5,9)        =    109.170165    -0.000002    -0.010953   109.159212
	   35 B(8,5,10)       =    109.632959     0.000001     0.000690   109.633649
	   36 B(8,11,14)      =    113.067782    -0.000002    -0.006382   113.061399
	   37 B(8,11,15)      =    109.268958     0.000001     0.004782   109.273740
	   38 B(8,11,16)      =    109.299735    -0.000000    -0.005282   109.294453
	   39 B(9,5,10)       =    105.743286     0.000000    -0.002224   105.741062
	   40 B(11,8,12)      =    109.224734    -0.000001    -0.007272   109.217462
	   41 B(11,8,13)      =    109.235732     0.000001     0.001539   109.237272
	   42 B(11,14,17)     =    111.158486     0.000001     0.003394   111.161879
	   43 B(11,14,18)     =    111.276436    -0.000002    -0.008653   111.267783
	   44 B(11,14,19)     =    111.164264     0.000000     0.001455   111.165719
	   45 B(12,8,13)      =    106.077077    -0.000000    -0.001384   106.075693
	   46 B(14,11,15)     =    109.363569     0.000000     0.002506   109.366075
	   47 B(14,11,16)     =    109.390919     0.000001     0.002473   109.393392
	   48 B(15,11,16)     =    106.219743    -0.000000     0.002454   106.222196
	   49 B(17,14,18)     =    107.713905     0.000001     0.001652   107.715557
	   50 B(17,14,19)     =    107.646497    -0.000000     0.001378   107.647876
	   51 B(18,14,19)     =    107.705794     0.000001     0.001021   107.706815
	   52 D(1,2,3,5)      =    177.973625     0.000000     0.029977   178.003602
	   53 D(1,2,3,6)      =     57.528372     0.000000     0.010539    57.538911
	   54 D(1,2,3,7)      =    -58.882606    -0.000000     0.005453   -58.877153
	   55 D(2,3,5,8)      =    118.447814    -0.000000    -0.028733   118.419081
	   56 D(2,3,5,9)      =   -118.763385    -0.000000    -0.029428  -118.792812
	   57 D(2,3,5,10)     =     -3.733508    -0.000000    -0.026706    -3.760214
	   58 D(3,5,8,11)     =   -178.693620     0.000000     0.045489  -178.648131
	   59 D(3,5,8,12)     =     59.188472     0.000000     0.048188    59.236659
	   60 D(3,5,8,13)     =    -56.614347     0.000000     0.044747   -56.569600
	   61 D(4,2,3,5)      =    -64.295991     0.000000     0.035628   -64.260363
	   62 D(4,2,3,6)      =    175.258757     0.000000     0.016190   175.274947
	   63 D(4,2,3,7)      =     58.847779    -0.000000     0.011104    58.858883
	   64 D(5,8,11,14)    =   -179.891535    -0.000000    -0.034491  -179.926027
	   65 D(5,8,11,15)    =    -57.842701    -0.000000    -0.032165   -57.874867
	   66 D(5,8,11,16)    =     58.002351    -0.000000    -0.029505    57.972846
	   67 D(6,3,5,8)      =   -122.788152     0.000000     0.000696  -122.787456
	   68 *D(6,3,5,9)     =      0.000000     0.000000     0.000000     0.000000
	   69 D(6,3,5,10)     =    115.030525     0.000000     0.002723   115.033249
	   70 D(7,3,5,8)      =     -6.499810     0.000000    -0.005230    -6.505040
	   71 D(7,3,5,9)      =    116.288992    -0.000000    -0.005926   116.283066
	   72 D(7,3,5,10)     =   -128.681132     0.000000    -0.003204  -128.684335
	   73 D(8,11,14,17)   =     59.903013     0.000000     0.046997    59.950010
	   74 D(8,11,14,18)   =    179.958647     0.000000     0.045557   180.004204
	   75 D(8,11,14,19)   =    -59.992097     0.000000     0.042011   -59.950087
	   76 D(9,5,8,11)     =     58.130613    -0.000000     0.031456    58.162069
	   77 D(9,5,8,12)     =    -63.987295    -0.000000     0.034155   -63.953141
	   78 D(9,5,8,13)     =   -179.790114    -0.000000     0.030714  -179.759400
	   79 D(10,5,8,11)    =    -57.273914    -0.000000     0.039870   -57.234045
	   80 D(10,5,8,12)    =   -179.391823     0.000000     0.042569  -179.349254
	   81 D(10,5,8,13)    =     64.805359     0.000000     0.039128    64.844487
	   82 D(12,8,11,14)   =    -57.656057     0.000000    -0.027008   -57.683065
	   83 D(12,8,11,15)   =     64.392777     0.000000    -0.024682    64.368095
	   84 D(12,8,11,16)   =   -179.762171     0.000000    -0.022021  -179.784192
	   85 D(13,8,11,14)   =     57.958121    -0.000000    -0.031839    57.926282
	   86 D(13,8,11,15)   =   -179.993045    -0.000000    -0.029513  -180.022558
	   87 D(13,8,11,16)   =    -64.147993    -0.000000    -0.026852   -64.174845
	   88 D(15,11,14,17)  =    -62.092796     0.000000     0.043400   -62.049395
	   89 D(15,11,14,18)  =     57.962838     0.000000     0.041960    58.004798
	   90 D(15,11,14,19)  =    178.012094    -0.000000     0.038414   178.050508
	   91 D(16,11,14,17)  =   -178.041945    -0.000000     0.037656  -178.004289
	   92 D(16,11,14,18)  =    -57.986311    -0.000000     0.036215   -57.950096
	   93 D(16,11,14,19)  =     62.062945    -0.000000     0.032669    62.095614
	 ---------------------------------------------------------------------------

  ==> Convergence Check <==

  Measures of convergence in internal coordinates in au.
  Criteria marked as inactive (o), active & met (*), and active & unmet ( ).
  ---------------------------------------------------------------------------------------------
   Step     Total Energy     Delta E     MAX Force     RMS Force      MAX Disp      RMS Disp   
  ---------------------------------------------------------------------------------------------
    Convergence Criteria    1.00e-06 *    3.00e-04 *             o    1.20e-03 *             o
  ---------------------------------------------------------------------------------------------
      5    -251.34565070   -5.00e-06      1.10e-04 *    2.16e-05 o    8.41e-04 *    3.86e-04 o  ~
  ---------------------------------------------------------------------------------------------


  **** Optimization is complete! (in 5 steps) ****

  ==> Optimization Summary <==

  Measures of convergence in internal coordinates in au.
  --------------------------------------------------------------------------------------------------------------- ~
   Step         Total Energy             Delta E       MAX Force       RMS Force        MAX Disp        RMS Disp  ~
  --------------------------------------------------------------------------------------------------------------- ~
      1    -251.345153780678   -251.345153780678      0.01298474      0.00172050      0.04323987      0.01434626  ~
      2    -251.345525675375     -0.000371894697      0.00516056      0.00083654      0.02433818      0.00730908  ~
      3    -251.345648405425     -0.000122730050      0.00032361      0.00007437      0.02051522      0.00801918  ~
      4    -251.345645698864      0.000002706561      0.00010087      0.00002926      0.01421638      0.00563060  ~
      5    -251.345650699058     -0.000005000194      0.00010993      0.00002163      0.00084103      0.00038569  ~
  --------------------------------------------------------------------------------------------------------------- ~

	Writing optimization data to binary file.
	Final energy is   -251.3456506990579
	Final (previous) structure:
	Cartesian Geometry (in Angstrom)
	    H     3.5919161563   0.7177121263   0.9925567266
	    N     2.7707053293   0.1433839255   0.9775058979
	    C     1.9608507456   0.4386368433  -0.1985672469
	    H     2.2589226035   0.3518698938   1.8142868537
	    C     0.7182593386  -0.4719482270  -0.2636141831
	    H     2.5867462403   0.2774821556  -1.0690956129
	    H     1.6467037845   1.4837832901  -0.2392704381
	    C    -0.6090746382   0.2878029723  -0.2072124379
	    H     0.7473759463  -1.0726891866  -1.1686525466
	    H     0.7700801953  -1.1776948985   0.5603452171
	    C    -1.8318600018  -0.6298745203  -0.2406763693
	    H    -0.6622882503   0.9865815017  -1.0406392399
	    H    -0.6400427520   0.8943218232   0.6975746986
	    C    -3.1549612602   0.1332664874  -0.1868133795
	    H    -1.8014177106  -1.2357916975  -1.1437904560
	    H    -1.7820648349  -1.3258383157   0.5940161395
	    H    -3.2499177592   0.8134035273  -1.0286577193
	    H    -4.0022808526  -0.5449705082  -0.2129047472
	    H    -3.2312140842   0.7224428288   0.7228271006
	Saving final (previous) structure.
			--------------------------
			 OPTKING Finished Execution 
			--------------------------

    Final optimized geometry and variables:
    Molecular point group: c1
    Full point group: C1

    Geometry (in Angstrom), charge = 0, multiplicity = 1:

    H            3.591915881983     0.717712071522     0.992556650834
    N            2.770705117694     0.143383914556     0.977505823257
    C            1.960850595838     0.438636809853    -0.198567231755
    H            2.258922430997     0.351869866911     1.814286715162
    C            0.718259283701    -0.471948190997    -0.263614162982
    H            2.586746042814     0.277482134433    -1.069095531263
    H            1.646703658773     1.483783176763    -0.239270419811
    C           -0.609074591657     0.287802950283    -0.207212422059
    H            0.747375889220    -1.072689104666    -1.168652457358
    H            0.770080136495    -1.177694808580     0.560345174287
    C           -1.831859861869    -0.629874472220    -0.240676350948
    H           -0.662288199732     0.986581426348    -1.040639160392
    H           -0.640042703168     0.894321754952     0.697574645292
    C           -3.154961019238     0.133266477243    -0.186813365273
    H           -1.801417573070    -1.235791603131    -1.143790368665
    H           -1.782064698813    -1.325838214471     0.594016094137
    H           -3.249917510997     0.813403465199    -1.028657640737
    H           -4.002280546964    -0.544970466583    -0.212904730929
    H           -3.231213837442     0.722442773593     0.722827045363

	Cleaning optimization helper files.


Properties will be evaluated at   0.000000,   0.000000,   0.000000 Bohr

Properties computed using the  density matrix

  Nuclear Dipole Moment: (a.u.)
     X:    -3.5399      Y:     0.8345      Z:    -0.4916

  Electronic Dipole Moment: (a.u.)
     X:     3.4131      Y:    -0.3103      Z:     0.5136

  Dipole Moment: (a.u.)
     X:    -0.1268      Y:     0.5242      Z:     0.0219     Total:     0.5397

  Dipole Moment: (Debye)
     X:    -0.3224      Y:     1.3323      Z:     0.0557     Total:     1.3719

  Quadrupole Moment: (Debye Ang)
    XX:   -42.6348     YY:   -41.5613     ZZ:   -38.9524
    XY:     5.0491     XZ:    -0.3914     YZ:     1.7927

  Traceless Quadrupole Moment: (Debye Ang)
    XX:    -1.5852     YY:    -0.5118     ZZ:     2.0971
    XY:     5.0491     XZ:    -0.3914     YZ:     1.7927

  Mulliken Charges: (a.u.)
   Center  Symbol    Alpha    Beta     Spin     Total
       1     H     0.33365  0.33365  0.00000  0.33270
       2     N     3.92023  3.92023  0.00000 -0.84047
       3     C     3.06458  3.06458  0.00000 -0.12916
       4     H     0.33605  0.33605  0.00000  0.32791
       5     C     3.16078  3.16078  0.00000 -0.32156
       6     H     0.41819  0.41819  0.00000  0.16361
       7     H     0.43150  0.43150  0.00000  0.13700
       8     C     3.15416  3.15416  0.00000 -0.30833
       9     H     0.41907  0.41907  0.00000  0.16187
      10     H     0.41169  0.41169  0.00000  0.17663
      11     C     3.15178  3.15178  0.00000 -0.30357
      12     H     0.42397  0.42397  0.00000  0.15206
      13     H     0.42670  0.42670  0.00000  0.14660
      14     C     3.23912  3.23912  0.00000 -0.47823
      15     H     0.42256  0.42256  0.00000  0.15487
      16     H     0.42244  0.42244  0.00000  0.15513
      17     H     0.42199  0.42199  0.00000  0.15601
      18     H     0.41923  0.41923  0.00000  0.16154
      19     H     0.42230  0.42230  0.00000  0.15539

   Total alpha = 25.00000, Total beta = 25.00000, Total charge =  0.00000


*** PSI4 exiting successfully. Buy a developer a beer!
