    -----------------------------------------------------------------------
          Psi4: An Open-Source Ab Initio Electronic Structure Package
                              Psi4 (no tag) Driver

                          Git: Rev {detached?}  

    J. M. Turney, A. C. Simmonett, R. M. Parrish, E. G. Hohenstein,
    F. A. Evangelista, J. T. Fermann, B. J. Mintz, L. A. Burns, J. J. Wilke,
    M. L. Abrams, N. J. Russ, M. L. Leininger, C. L. Janssen, E. T. Seidl,
    W. D. Allen, H. F. Schaefer, R. A. King, E. F. Valeev, C. D. Sherrill,
    and T. D. Crawford, WIREs Comput. Mol. Sci. 2, 556-565 (2012)
    (doi: 10.1002/wcms.93)

                         Additional Contributions by
    A. E. DePrince, M. Saitow, U. Bozkaya, A. Yu. Sokolov
    -----------------------------------------------------------------------


    Psi4 started on: Fri Sep  2 11:55:20 2016

    Process ID:  16341
    PSI4DATADIR: /export131/home/mjharvey/miniconda3/share
    Memory level set to 256.000 MB

  ==> Input File <==

--------------------------------------------------------------------------
set {
	reference rhf
	basis 6-31G*
}


set_num_threads( 4 )
memory 2 gb

molecule MOL {
0 1

H	 -0.577014	 2.451761	 -1.751143
C	 0.169366	 2.238812	 -0.975725
C	 0.065331	 0.871482	 -0.349150
O	 0.982522	 3.056370	 -0.689204
C	 -1.339775	 0.583656	 0.198860
H	 0.817474	 0.793039	 0.427408
H	 0.304780	 0.143433	 -1.122952
C	 -1.808407	 -0.848507	 -0.061364
H	 -2.036183	 1.280685	 -0.256307
H	 -1.360094	 0.788874	 1.267089
H	 -1.828843	 -1.063152	 -1.125336
H	 -2.808409	 -1.004529	 0.329750
H	 -1.153967	 -1.577789	 0.406873

	symmetry c1
}
set optking {
	frozen_dihedral = ("
		6 3 5 9
	")
}

ee = optimize('scf')
oeprop('DIPOLE', 'QUADRUPOLE', 'MULLIKEN_CHARGES')
f=open( 'psi4out.xyz', 'w' )
f.write( "13  " )
f.write( str(ee) + "\n" )
f.write( MOL.save_string_xyz() )
f.close()
--------------------------------------------------------------------------

  Memory set to   2.000 GiB by Python script.
gradient() will perform analytic gradient computation.

*** tstart() called on cx1-1-2-2.cx1.hpc.ic.ac.uk
*** at Fri Sep  2 11:55:20 2016


         ---------------------------------------------------------
                                   SCF
            by Justin Turney, Rob Parrish, and Andy Simmonett
                              RHF Reference
                        4 Threads,   2000 MiB Core
         ---------------------------------------------------------

  ==> Geometry <==

    Molecular point group: c1
    Full point group: C1

    Geometry (in Angstrom), charge = 0, multiplicity = 1:

       Center              X                  Y                   Z               Mass       
    ------------   -----------------  -----------------  -----------------  -----------------
           H         -0.189041330160     1.274115659060    -1.374899066575     1.007825032070
           C          0.557338669840     1.061166659060    -0.599481066575    12.000000000000
           C          0.453303669840    -0.306163340940     0.027093933425    12.000000000000
           O          1.370494669840     1.878724659060    -0.312960066575    15.994914619560
           C         -0.951802330160    -0.593989340940     0.575103933425    12.000000000000
           H          1.205446669840    -0.384606340940     0.803651933425     1.007825032070
           H          0.692752669840    -1.034212340940    -0.746708066575     1.007825032070
           C         -1.420434330160    -2.026152340940     0.314879933425    12.000000000000
           H         -1.648210330160     0.103039659060     0.119936933425     1.007825032070
           H         -0.972121330160    -0.388771340940     1.643332933425     1.007825032070
           H         -1.440870330160    -2.240797340940    -0.749092066575     1.007825032070
           H         -2.420436330160    -2.182174340940     0.705993933425     1.007825032070
           H         -0.765994330160    -2.755434340940     0.783116933425     1.007825032070

  Running in c1 symmetry.

  Rotational constants: A =      0.70714  B =      0.07152  C =      0.07052 [cm^-1]
  Rotational constants: A =  21199.58938  B =   2143.97758  C =   2114.26277 [MHz]
  Nuclear repulsion =  170.456114417812074

  Charge       = 0
  Multiplicity = 1
  Electrons    = 40
  Nalpha       = 20
  Nbeta        = 20

  ==> Algorithm <==

  SCF Algorithm Type is DF.
  DIIS enabled.
  MOM disabled.
  Fractional occupation disabled.
  Guess Type is CORE.
  Energy threshold   = 1.00e-08
  Density threshold  = 1.00e-08
  Integral threshold = 0.00e+00

  ==> Primary Basis <==

  Basis Set: 6-31G*
    Number of shells: 46
    Number of basis function: 91
    Number of Cartesian functions: 91
    Spherical Harmonics?: false
    Max angular momentum: 2

  ==> Pre-Iterations <==

   -------------------------------------------------------
    Irrep   Nso     Nmo     Nalpha   Nbeta   Ndocc  Nsocc
   -------------------------------------------------------
     A         91      91       0       0       0       0
   -------------------------------------------------------
    Total      91      91      20      20      20       0
   -------------------------------------------------------

 OEINTS: Overlap, kinetic, potential, dipole, and quadrupole integrals
         stored in file 35.

  ==> Integral Setup <==

  ==> DFJK: Density-Fitted J/K Matrices <==

    J tasked:                  Yes
    K tasked:                  Yes
    wK tasked:                  No
    OpenMP threads:              4
    Integrals threads:           4
    Memory (MB):              1430
    Algorithm:                Core
    Integral Cache:           NONE
    Schwarz Cutoff:          1E-12
    Fitting Condition:       1E-12

   => Auxiliary Basis Set <=

  Basis Set: 
    Number of shells: 192
    Number of basis function: 605
    Number of Cartesian functions: 605
    Spherical Harmonics?: false
    Max angular momentum: 3

  Minimum eigenvalue in the overlap matrix is 4.1112753587E-03.
  Using Symmetric Orthogonalization.
  SCF Guess: Core (One-Electron) Hamiltonian.

  ==> Iterations <==

                           Total Energy        Delta E     RMS |[F,P]|

   @DF-RHF iter   1:  -178.94206668362798   -1.78942e+02   7.98866e-02 
   @DF-RHF iter   2:  -118.41666739368966    6.05254e+01   9.58562e-02 DIIS
   @DF-RHF iter   3:  -211.90164730359444   -9.34850e+01   3.24246e-02 DIIS
   @DF-RHF iter   4:  -155.08793305472395    5.68137e+01   8.15949e-02 DIIS
   @DF-RHF iter   5:  -196.77175009153299   -4.16838e+01   6.46925e-02 DIIS
   @DF-RHF iter   6:  -201.01914993914980   -4.24740e+00   5.55528e-02 DIIS
   @DF-RHF iter   7:  -208.22563944929206   -7.20649e+00   5.79792e-02 DIIS
   @DF-RHF iter   8:  -209.27180648601316   -1.04617e+00   5.71886e-02 DIIS
   @DF-RHF iter   9:  -214.81294376625394   -5.54114e+00   3.99988e-02 DIIS
   @DF-RHF iter  10:  -226.70821182709128   -1.18953e+01   2.60640e-02 DIIS
   @DF-RHF iter  11:  -228.20323608148337   -1.49502e+00   1.69881e-02 DIIS
   @DF-RHF iter  12:  -230.79457591356854   -2.59134e+00   5.96842e-03 DIIS
   @DF-RHF iter  13:  -230.94312685428983   -1.48551e-01   3.02687e-03 DIIS
   @DF-RHF iter  14:  -230.97359222313341   -3.04654e-02   1.03553e-03 DIIS
   @DF-RHF iter  15:  -230.98023563498927   -6.64341e-03   4.18031e-04 DIIS
   @DF-RHF iter  16:  -230.98118377529394   -9.48140e-04   1.54017e-04 DIIS
   @DF-RHF iter  17:  -230.98132392709263   -1.40152e-04   5.00088e-05 DIIS
   @DF-RHF iter  18:  -230.98133793752399   -1.40104e-05   1.34454e-05 DIIS
   @DF-RHF iter  19:  -230.98133950981216   -1.57229e-06   5.16644e-06 DIIS
   @DF-RHF iter  20:  -230.98133977961854   -2.69806e-07   1.71959e-06 DIIS
   @DF-RHF iter  21:  -230.98133982264594   -4.30274e-08   4.96613e-07 DIIS
   @DF-RHF iter  22:  -230.98133982659030   -3.94436e-09   1.40885e-07 DIIS
   @DF-RHF iter  23:  -230.98133982703476   -4.44459e-10   7.42003e-08 DIIS
   @DF-RHF iter  24:  -230.98133982716504   -1.30285e-10   3.50927e-08 DIIS
   @DF-RHF iter  25:  -230.98133982720137   -3.63229e-11   6.72883e-09 DIIS

  ==> Post-Iterations <==

    Orbital Energies (a.u.)
    -----------------------

    Doubly Occupied:                                                      

       1A    -20.563185     2A    -11.327640     3A    -11.238584  
       4A    -11.235027     5A    -11.224622     6A     -1.403061  
       7A     -1.087016     8A     -0.976071     9A     -0.842517  
      10A     -0.794621    11A     -0.675537    12A     -0.646468  
      13A     -0.620536    14A     -0.588550    15A     -0.571215  
      16A     -0.525633    17A     -0.513684    18A     -0.488629  
      19A     -0.484596    20A     -0.411416  

    Virtual:                                                              

      21A      0.160863    22A      0.229715    23A      0.267630  
      24A      0.271581    25A      0.278295    26A      0.305193  
      27A      0.315127    28A      0.326624    29A      0.353332  
      30A      0.394799    31A      0.420540    32A      0.450392  
      33A      0.491626    34A      0.705819    35A      0.732831  
      36A      0.746053    37A      0.773302    38A      0.805663  
      39A      0.822983    40A      0.864822    41A      0.922119  
      42A      0.934587    43A      0.985026    44A      1.033382  
      45A      1.042463    46A      1.099446    47A      1.114727  
      48A      1.127150    49A      1.145591    50A      1.162123  
      51A      1.172910    52A      1.205193    53A      1.212680  
      54A      1.246269    55A      1.296755    56A      1.322460  
      57A      1.339133    58A      1.384373    59A      1.577269  
      60A      1.637508    61A      1.760095    62A      1.786382  
      63A      1.859983    64A      1.903758    65A      1.968723  
      66A      2.032381    67A      2.103681    68A      2.128895  
      69A      2.163736    70A      2.234582    71A      2.268144  
      72A      2.323221    73A      2.380574    74A      2.417630  
      75A      2.498599    76A      2.584874    77A      2.655391  
      78A      2.683025    79A      2.704299    80A      2.757865  
      81A      2.921374    82A      2.950312    83A      2.992803  
      84A      3.036759    85A      3.262308    86A      3.364933  
      87A      4.282769    88A      4.520619    89A      4.610171  
      90A      4.784372    91A      4.943044  

    Final Occupation by Irrep:
              A 
    DOCC [    20 ]

  Energy converged.

  @DF-RHF Final Energy:  -230.98133982720137

   => Energetics <=

    Nuclear Repulsion Energy =            170.4561144178120742
    One-Electron Energy =                -650.4376958004369271
    Two-Electron Energy =                 249.0002415554236848
    DFT Exchange-Correlation Energy =       0.0000000000000000
    Empirical Dispersion Energy =           0.0000000000000000
    PCM Polarization Energy =               0.0000000000000000
    EFP Energy =                            0.0000000000000000
    Total Energy =                       -230.9813398272011966

    Alert: EFP and PCM quantities not currently incorporated into SCF psivars.

Properties will be evaluated at   0.000000,   0.000000,   0.000000 Bohr
  ==> Properties <==


Properties computed using the SCF density matrix

  Nuclear Dipole Moment: (a.u.)
     X:    -5.1856      Y:    -7.1240      Z:     1.1097

  Electronic Dipole Moment: (a.u.)
     X:     4.4017      Y:     6.1787      Z:    -1.2248

  Dipole Moment: (a.u.)
     X:    -0.7839      Y:    -0.9453      Z:    -0.1151     Total:     1.2334

  Dipole Moment: (Debye)
     X:    -1.9924      Y:    -2.4027      Z:    -0.2925     Total:     3.1351


  Saving occupied orbitals to File 180.

*** tstop() called on cx1-1-2-2.cx1.hpc.ic.ac.uk at Fri Sep  2 11:55:23 2016
Module time:
	user time   =       8.05 seconds =       0.13 minutes
	system time =       0.12 seconds =       0.00 minutes
	total time  =          3 seconds =       0.05 minutes
Total time:
	user time   =       8.05 seconds =       0.13 minutes
	system time =       0.12 seconds =       0.00 minutes
	total time  =          3 seconds =       0.05 minutes

*** tstart() called on cx1-1-2-2.cx1.hpc.ic.ac.uk
*** at Fri Sep  2 11:55:23 2016


         ------------------------------------------------------------
                                   SCF GRAD                          
                          Rob Parrish, Justin Turney,                
                       Andy Simmonett, and Alex Sokolov              
         ------------------------------------------------------------

  ==> Geometry <==

    Molecular point group: c1
    Full point group: C1

    Geometry (in Angstrom), charge = 0, multiplicity = 1:

       Center              X                  Y                   Z               Mass       
    ------------   -----------------  -----------------  -----------------  -----------------
           H         -0.189041330160     1.274115659060    -1.374899066575     1.007825032070
           C          0.557338669840     1.061166659060    -0.599481066575    12.000000000000
           C          0.453303669840    -0.306163340940     0.027093933425    12.000000000000
           O          1.370494669840     1.878724659060    -0.312960066575    15.994914619560
           C         -0.951802330160    -0.593989340940     0.575103933425    12.000000000000
           H          1.205446669840    -0.384606340940     0.803651933425     1.007825032070
           H          0.692752669840    -1.034212340940    -0.746708066575     1.007825032070
           C         -1.420434330160    -2.026152340940     0.314879933425    12.000000000000
           H         -1.648210330160     0.103039659060     0.119936933425     1.007825032070
           H         -0.972121330160    -0.388771340940     1.643332933425     1.007825032070
           H         -1.440870330160    -2.240797340940    -0.749092066575     1.007825032070
           H         -2.420436330160    -2.182174340940     0.705993933425     1.007825032070
           H         -0.765994330160    -2.755434340940     0.783116933425     1.007825032070

  Nuclear repulsion =  170.456114417812074

  ==> Basis Set <==

  Basis Set: 6-31G*
    Number of shells: 46
    Number of basis function: 91
    Number of Cartesian functions: 91
    Spherical Harmonics?: false
    Max angular momentum: 2

  ==> DFJKGrad: Density-Fitted SCF Gradients <==

    Gradient:                    1
    J tasked:                  Yes
    K tasked:                  Yes
    wK tasked:                  No
    OpenMP threads:              4
    Integrals threads:           4
    Memory (MB):              1430
    Schwarz Cutoff:          0E+00
    Fitting Condition:       1E-12

   => Auxiliary Basis Set <=

  Basis Set: 
    Number of shells: 192
    Number of basis function: 605
    Number of Cartesian functions: 605
    Spherical Harmonics?: false
    Max angular momentum: 3


  -Total Gradient:
     Atom            X                  Y                   Z
    ------   -----------------  -----------------  -----------------
       1        0.000027111543     0.000234394153    -0.000252988366
       2       -0.001858959378    -0.001090638639    -0.001267217488
       3       -0.003936419063     0.001497163535    -0.001091660244
       4        0.000526973027     0.000414424297     0.000276124394
       5        0.001622251046     0.000090073564    -0.001535419349
       6       -0.000888649771     0.000589665382     0.001944860219
       7       -0.001023671476    -0.001210562636     0.000659954894
       8        0.001158284559    -0.000430317888    -0.001129045645
       9        0.004267461601     0.001269356431     0.000103914522
      10        0.000362478939    -0.000528421001     0.002343687662
      11        0.000431272518    -0.000168511538     0.000357673602
      12        0.000086924530     0.000327411289     0.000029358144
      13       -0.000775058078    -0.000994036951    -0.000439242346


*** tstop() called on cx1-1-2-2.cx1.hpc.ic.ac.uk at Fri Sep  2 11:55:26 2016
Module time:
	user time   =       9.22 seconds =       0.15 minutes
	system time =       0.11 seconds =       0.00 minutes
	total time  =          3 seconds =       0.05 minutes
Total time:
	user time   =      17.28 seconds =       0.29 minutes
	system time =       0.23 seconds =       0.00 minutes
	total time  =          6 seconds =       0.10 minutes
CURRENT ENERGY: -230.9813398272

			-----------------------------------------
			 OPTKING 2.0: for geometry optimizations 
			  - R.A. King,  Bethel University        
			-----------------------------------------

	Internal coordinates to be generated automatically.
	Detected frag with atoms:  1 2 3 4 5 6 7 8 9 10 11 12 13
	---Fragment 1 Bond Connectivity---
	 1 : 2
	 2 : 1 3 4
	 3 : 2 5 6 7
	 4 : 2
	 5 : 3 8 9 10
	 6 : 3
	 7 : 3
	 8 : 5 11 12 13
	 9 : 5
	 10 : 5
	 11 : 8
	 12 : 8
	 13 : 8

	Assuming in current code that numbering for constraints corresponds to unified fragment.
	Frozen dihedral atom list: 
	     6     3     5     9
	---Fragment 1 Geometry and Gradient---
	 H          -0.3572363418        2.4077296572       -2.5981826962
	 C           1.0532174493        2.0053143670       -1.1328550377
	 C           0.8566197910       -0.5785648663        0.0512001140
	 O           2.5898595926        3.5502750847       -0.5914088164
	 C          -1.7986457366       -1.1224771802        1.0867889321
	 H           2.2779640738       -0.7268006533        1.5186820603
	 H           1.3091128238       -1.9543780876       -1.4110737470
	 C          -2.6842318738       -3.8288730279        0.5950368389
	 H          -3.1146661334        0.1947167364        0.2266479574
	 H          -1.8370430819       -0.7346713627        3.1054491893
	 H          -2.7228503170       -4.2344932937       -1.4155788541
	 H          -4.5739617861       -4.1237118786        1.3341351857
	 H          -1.4475195033       -5.2070162815        1.4798765342
	             0.0000271115        0.0002343942       -0.0002529884
	            -0.0018589594       -0.0010906386       -0.0012672175
	            -0.0039364191        0.0014971635       -0.0010916602
	             0.0005269730        0.0004144243        0.0002761244
	             0.0016222510        0.0000900736       -0.0015354193
	            -0.0008886498        0.0005896654        0.0019448602
	            -0.0010236715       -0.0012105626        0.0006599549
	             0.0011582846       -0.0004303179       -0.0011290456
	             0.0042674616        0.0012693564        0.0001039145
	             0.0003624789       -0.0005284210        0.0023436877
	             0.0004312725       -0.0001685115        0.0003576736
	             0.0000869245        0.0003274113        0.0000293581
	            -0.0007750581       -0.0009940370       -0.0004392423

	Previous optimization step data not found.  Starting new optimization.

	---Fragment 1 Intrafragment Coordinates---
	 - Coordinate -           - BOHR/RAD -       - ANG/DEG -
	 R(1,2)           =         2.073283	       1.097134
	 R(2,3)           =         2.849047	       1.507651
	 R(2,4)           =         2.245292	       1.188158
	 R(3,5)           =         2.901503	       1.535409
	 R(3,6)           =         2.048340	       1.083935
	 R(3,7)           =         2.058120	       1.089110
	 R(5,8)           =         2.889751	       1.529191
	 R(5,9)           =         2.051037	       1.085362
	 R(5,10)          =         2.055932	       1.087953
	 R(8,11)          =         2.051486	       1.085600
	 R(8,12)          =         2.050433	       1.085042
	 R(8,13)          =         2.052237	       1.085997
	 B(1,2,3)         =         2.007348	     115.012560
	 B(1,2,4)         =         2.097245	     120.163288
	 B(2,3,5)         =         1.962207	     112.426178
	 B(2,3,6)         =         1.891774	     108.390688
	 B(2,3,7)         =         1.871105	     107.206402
	 B(3,2,4)         =         2.178584	     124.823650
	 B(3,5,8)         =         1.977167	     113.283306
	 B(3,5,9)         =         1.893485	     108.488679
	 B(3,5,10)        =         1.909406	     109.400878
	 B(5,3,6)         =         1.945228	     111.453355
	 B(5,3,7)         =         1.906539	     109.236665
	 B(5,8,11)        =         1.936627	     110.960527
	 B(5,8,12)        =         1.934533	     110.840572
	 B(5,8,13)        =         1.950749	     111.769660
	 B(6,3,7)         =         1.883967	     107.943354
	 B(8,5,9)         =         1.910769	     109.479020
	 B(8,5,10)        =         1.915611	     109.756398
	 B(9,5,10)        =         1.853179	     106.179310
	 B(11,8,12)       =         1.883359	     107.908534
	 B(11,8,13)       =         1.876682	     107.525935
	 B(12,8,13)       =         1.879065	     107.662488
	 D(1,2,3,5)       =        -0.938264	     -53.758581
	 D(1,2,3,6)       =        -3.096434	    -177.412613
	 D(1,2,3,7)       =         1.157205	      66.302966
	 D(2,3,5,8)       =         2.440843	     139.850014
	 D(2,3,5,9)       =         0.315366	      18.069135
	 D(2,3,5,10)      =        -1.699098	     -97.351116
	 D(3,5,8,11)      =        -1.036361	     -59.379133
	 D(3,5,8,12)      =        -3.128641	    -179.257944
	 D(3,5,8,13)      =         1.058293	      60.635717
	 D(4,2,3,5)       =         2.207844	     126.500133
	 D(4,2,3,6)       =         0.049674	       2.846100
	 D(4,2,3,7)       =        -1.979872	    -113.438320
	 D(6,3,5,8)       =        -1.714247	     -98.219118
	*D(6,3,5,9)       =         2.443461	     140.000003
	 D(6,3,5,10)      =         0.428998	      24.579752
	 D(7,3,5,8)       =         0.366018	      20.971314
	 D(7,3,5,9)       =        -1.759459	    -100.809565
	 D(7,3,5,10)      =         2.509263	     143.770184
	 D(9,5,8,11)      =         1.079414	      61.845847
	 D(9,5,8,12)      =        -1.012866	     -58.032965
	 D(9,5,8,13)      =        -3.109117	    -178.139304
	 D(10,5,8,11)     =         3.107017	     178.018955
	 D(10,5,8,12)     =         1.014737	      58.140144
	 D(10,5,8,13)     =        -1.081514	     -61.966195

	Current energy   :      -230.9813398272

	Generating empirical Hessian (Schlegel '84) for each fragment.
	Taking RFO optimization step.
	Going to follow RFO solution 1.
	Using RFO vector 1.
	Norm of target step-size    0.24340
	Projected energy change by RFO approximation:        -0.0008434465

	Back-transformation to cartesian coordinates...
	Successfully converged to displaced geometry.

	Back-transformation to cartesian coordinates to adjust frozen coordinates...
	Successfully converged to displaced geometry.

	--- Internal Coordinate Step in ANG or DEG, aJ/ANG or AJ/DEG ---
	 ---------------------------------------------------------------------------
	   Coordinate                Previous        Force       Change         New 
	   ----------                --------       ------       ------       ------
	    1 R(1,2)          =      1.097134    -0.001696    -0.000319     1.096815
	    2 R(2,3)          =      1.507651    -0.000217    -0.000044     1.507607
	    3 R(2,4)          =      1.188158    -0.005869    -0.000339     1.187818
	    4 R(3,5)          =      1.535409     0.054055     0.011959     1.547369
	    5 R(3,6)          =      1.083935    -0.006048    -0.001090     1.082845
	    6 R(3,7)          =      1.089110    -0.000950    -0.000174     1.088936
	    7 R(5,8)          =      1.529191    -0.009144    -0.001984     1.527206
	    8 R(5,9)          =      1.085362     0.016202     0.002935     1.088297
	    9 R(5,10)         =      1.087953    -0.018082    -0.003304     1.084649
	   10 R(8,11)         =      1.085600     0.002680     0.000486     1.086086
	   11 R(8,12)         =      1.085042     0.000961     0.000174     1.085216
	   12 R(8,13)         =      1.085997    -0.000091    -0.000017     1.085981
	   13 B(1,2,3)        =    115.012560    -0.000035    -0.143541   114.869018
	   14 B(1,2,4)        =    120.163288     0.000006     0.045769   120.209057
	   15 B(2,3,5)        =    112.426178     0.000005    -0.226381   112.199797
	   16 B(2,3,6)        =    108.390688    -0.000120    -1.767015   106.623672
	   17 B(2,3,7)        =    107.206402    -0.000038    -0.190905   107.015497
	   18 B(3,2,4)        =    124.823650     0.000029     0.097281   124.920931
	   19 B(3,5,8)        =    113.283306     0.000026     0.441960   113.725265
	   20 B(3,5,9)        =    108.488679     0.000215     2.267765   110.756444
	   21 B(3,5,10)       =    109.400878    -0.000070    -1.047952   108.352926
	   22 B(5,3,6)        =    111.453355     0.000102     0.535946   111.989302
	   23 B(5,3,7)        =    109.236665     0.000079     1.177700   110.414364
	   24 B(5,8,11)       =    110.960527     0.000011     0.078118   111.038645
	   25 B(5,8,12)       =    110.840572     0.000060     0.305657   111.146229
	   26 B(5,8,13)       =    111.769660    -0.000151    -0.762472   111.007188
	   27 B(6,3,7)        =    107.943354    -0.000035     0.417081   108.360435
	   28 B(8,5,9)        =    109.479020    -0.000132     0.282283   109.761303
	   29 B(8,5,10)       =    109.756398     0.000002    -0.741766   109.014632
	   30 B(9,5,10)       =    106.179310    -0.000044    -1.355557   104.823753
	   31 B(11,8,12)      =    107.908534    -0.000022     0.000566   107.909101
	   32 B(11,8,13)      =    107.525935     0.000067     0.262847   107.788782
	   33 B(12,8,13)      =    107.662488     0.000041     0.137036   107.799524
	   34 D(1,2,3,5)      =    -53.758581    -0.000001     0.138943   -53.619637
	   35 D(1,2,3,6)      =   -177.412613    -0.000012     0.844022  -176.568591
	   36 D(1,2,3,7)      =     66.302966     0.000016     1.333585    67.636551
	   37 D(2,3,5,8)      =    139.850014     0.000019     4.441556   144.291570
	   38 D(2,3,5,9)      =     18.069135     0.000018     2.061775    20.130909
	   39 D(2,3,5,10)     =    -97.351116     0.000012     3.025888   -94.325229
	   40 D(3,5,8,11)     =    -59.379133    -0.000021    -4.732026   -64.111159
	   41 D(3,5,8,12)     =   -179.257944    -0.000025    -4.987898  -184.245842
	   42 D(3,5,8,13)     =     60.635717    -0.000023    -4.856776    55.778941
	   43 D(4,2,3,5)      =    126.500133    -0.000002    -0.483435   126.016698
	   44 D(4,2,3,6)      =      2.846100    -0.000013     0.221644     3.067744
	   45 D(4,2,3,7)      =   -113.438320     0.000015     0.711206  -112.727114
	   46 D(6,3,5,8)      =    -98.219118     0.000001     2.379781   -95.839336
	   47 *D(6,3,5,9)     =    140.000003     0.000000    -0.000000   140.000003
	   48 D(6,3,5,10)     =     24.579752    -0.000006     0.964113    25.543865
	   49 D(7,3,5,8)      =     20.971314     0.000017     4.037311    25.008625
	   50 D(7,3,5,9)      =   -100.809565     0.000016     1.657530   -99.152036
	   51 D(7,3,5,10)     =    143.770184     0.000010     2.621643   146.391826
	   52 D(9,5,8,11)     =     61.845847     0.000025    -1.260478    60.585369
	   53 D(9,5,8,12)     =    -58.032965     0.000021    -1.516350   -59.549315
	   54 D(9,5,8,13)     =   -178.139304     0.000023    -1.385227  -179.524531
	   55 D(10,5,8,11)    =    178.018955    -0.000004    -3.143808   174.875148
	   56 D(10,5,8,12)    =     58.140144    -0.000009    -3.399680    54.740464
	   57 D(10,5,8,13)    =    -61.966195    -0.000006    -3.268558   -65.234752
	 ---------------------------------------------------------------------------

  ==> Convergence Check <==

  Measures of convergence in internal coordinates in au.
  Criteria marked as inactive (o), active & met (*), and active & unmet ( ).
  --------------------------------------------------------------------------------------------- ~
   Step     Total Energy     Delta E     MAX Force     RMS Force      MAX Disp      RMS Disp    ~
  --------------------------------------------------------------------------------------------- ~
    Convergence Criteria    1.00e-06 *    3.00e-04 *             o    1.20e-03 *             o  ~
  --------------------------------------------------------------------------------------------- ~
      1    -230.98133983   -2.31e+02      6.56e-03      1.30e-03 o    8.71e-02      3.22e-02 o  ~
  ---------------------------------------------------------------------------------------------

	Writing optimization data to binary file.
	Structure for next step:
	Cartesian Geometry (in Angstrom)
	    H    -0.1562403752   1.3122162090  -1.3555899072
	    C     0.5819473232   1.0699724941  -0.5813807918
	    C     0.4547827477  -0.3129329510   0.0053734085
	    O     1.3960254283   1.8728941139  -0.2596575855
	    C    -0.9720140741  -0.5949725583   0.5336289380
	    H     1.1990290660  -0.3868427039   0.7884361015
	    H     0.7145090467  -1.0184473715  -0.7823912140
	    C    -1.4283179927  -2.0381984667   0.3305407253
	    H    -1.6917698259   0.0854234284   0.0826263514
	    H    -0.9962332179  -0.3624037884   1.5927737995
	    H    -1.5026615096  -2.2786104135  -0.7259900007
	    H    -2.4009881573  -2.2082923157   0.7807355031
	    H    -0.7276431737  -2.7350606886   0.7808648973
			--------------------------
			 OPTKING Finished Execution 
			--------------------------

    Structure for next step:
    Molecular point group: c1
    Full point group: C1

    Geometry (in Angstrom), charge = 0, multiplicity = 1:

    H           -0.161244179903     1.315105769249    -1.362185929741
    C            0.576943462125     1.072862072851    -0.587976873461
    C            0.449778896304    -0.310043266714    -0.001222717921
    O            1.391021505021     1.875783631292    -0.266253691716
    C           -0.977017816532    -0.592082852393     0.527032771254
    H            1.194025157786    -0.383953013976     0.781839915301
    H            0.709505175483    -1.015557633333    -0.788987280262
    C           -1.433321700287    -2.035308650632     0.323944574044
    H           -1.696773513351     0.088313082336     0.076030219058
    H           -1.001236958459    -0.359514100330     1.586177551867
    H           -1.507665211506    -2.275720579100    -0.732586071306
    H           -2.405991790655    -2.205402486668     0.774139317433
    H           -0.732646934760    -2.732170819280     0.774268711643

gradient() will perform analytic gradient computation.

*** tstart() called on cx1-1-2-2.cx1.hpc.ic.ac.uk
*** at Fri Sep  2 11:55:27 2016


         ---------------------------------------------------------
                                   SCF
            by Justin Turney, Rob Parrish, and Andy Simmonett
                              RHF Reference
                        4 Threads,   2000 MiB Core
         ---------------------------------------------------------

  ==> Geometry <==

    Molecular point group: c1
    Full point group: C1

    Geometry (in Angstrom), charge = 0, multiplicity = 1:

       Center              X                  Y                   Z               Mass       
    ------------   -----------------  -----------------  -----------------  -----------------
           H         -0.161244179903     1.315105769249    -1.362185929741     1.007825032070
           C          0.576943462125     1.072862072851    -0.587976873461    12.000000000000
           C          0.449778896304    -0.310043266714    -0.001222717921    12.000000000000
           O          1.391021505021     1.875783631292    -0.266253691716    15.994914619560
           C         -0.977017816532    -0.592082852393     0.527032771254    12.000000000000
           H          1.194025157786    -0.383953013976     0.781839915301     1.007825032070
           H          0.709505175483    -1.015557633333    -0.788987280262     1.007825032070
           C         -1.433321700287    -2.035308650632     0.323944574044    12.000000000000
           H         -1.696773513351     0.088313082336     0.076030219058     1.007825032070
           H         -1.001236958459    -0.359514100330     1.586177551867     1.007825032070
           H         -1.507665211506    -2.275720579100    -0.732586071306     1.007825032070
           H         -2.405991790655    -2.205402486668     0.774139317433     1.007825032070
           H         -0.732646934760    -2.732170819280     0.774268711643     1.007825032070

  Running in c1 symmetry.

  Rotational constants: A =      0.71454  B =      0.07103  C =      0.06982 [cm^-1]
  Rotational constants: A =  21421.39456  B =   2129.34189  C =   2093.27545 [MHz]
  Nuclear repulsion =  170.127899790151929

  Charge       = 0
  Multiplicity = 1
  Electrons    = 40
  Nalpha       = 20
  Nbeta        = 20

  ==> Algorithm <==

  SCF Algorithm Type is DF.
  DIIS enabled.
  MOM disabled.
  Fractional occupation disabled.
  Guess Type is READ.
  Energy threshold   = 1.00e-08
  Density threshold  = 1.00e-08
  Integral threshold = 0.00e+00

  ==> Primary Basis <==

  Basis Set: 6-31G*
    Number of shells: 46
    Number of basis function: 91
    Number of Cartesian functions: 91
    Spherical Harmonics?: false
    Max angular momentum: 2

  ==> Pre-Iterations <==

   -------------------------------------------------------
    Irrep   Nso     Nmo     Nalpha   Nbeta   Ndocc  Nsocc
   -------------------------------------------------------
     A         91      91       0       0       0       0
   -------------------------------------------------------
    Total      91      91      20      20      20       0
   -------------------------------------------------------

 OEINTS: Overlap, kinetic, potential, dipole, and quadrupole integrals
         stored in file 35.

  ==> Integral Setup <==

  ==> DFJK: Density-Fitted J/K Matrices <==

    J tasked:                  Yes
    K tasked:                  Yes
    wK tasked:                  No
    OpenMP threads:              4
    Integrals threads:           4
    Memory (MB):              1430
    Algorithm:                Core
    Integral Cache:           NONE
    Schwarz Cutoff:          1E-12
    Fitting Condition:       1E-12

   => Auxiliary Basis Set <=

  Basis Set: 
    Number of shells: 192
    Number of basis function: 605
    Number of Cartesian functions: 605
    Spherical Harmonics?: false
    Max angular momentum: 3

  Minimum eigenvalue in the overlap matrix is 4.1596904064E-03.
  Using Symmetric Orthogonalization.
  SCF Guess: Reading in previously saved MOs, projecting if necessary.

  Using orbitals from previous SCF, no projection.
  Recomputing DOCC and SOCC from number of alpha and beta electrons from previous calculation.
              A 
    DOCC [    20 ]

  ==> Iterations <==

                           Total Energy        Delta E     RMS |[F,P]|

   @DF-RHF iter   0:  -230.97552895203344   -2.30976e+02   1.06194e-03 
   @DF-RHF iter   1:  -230.98141585321159   -5.88690e-03   1.67298e-04 
   @DF-RHF iter   2:  -230.98162509149549   -2.09238e-04   5.59438e-05 DIIS
   @DF-RHF iter   3:  -230.98165326235718   -2.81709e-05   2.32781e-05 DIIS
   @DF-RHF iter   4:  -230.98165566746999   -2.40511e-06   6.38723e-06 DIIS
   @DF-RHF iter   5:  -230.98165618936562   -5.21896e-07   2.87394e-06 DIIS
   @DF-RHF iter   6:  -230.98165635970540   -1.70340e-07   1.25578e-06 DIIS
   @DF-RHF iter   7:  -230.98165639931048   -3.96051e-08   4.97188e-07 DIIS
   @DF-RHF iter   8:  -230.98165640576073   -6.45025e-09   2.03377e-07 DIIS
   @DF-RHF iter   9:  -230.98165640675936   -9.98625e-10   7.86710e-08 DIIS
   @DF-RHF iter  10:  -230.98165640689004   -1.30683e-10   2.01909e-08 DIIS
   @DF-RHF iter  11:  -230.98165640689703   -6.99174e-12   3.75690e-09 DIIS

  ==> Post-Iterations <==

    Orbital Energies (a.u.)
    -----------------------

    Doubly Occupied:                                                      

       1A    -20.563035     2A    -11.327097     3A    -11.239610  
       4A    -11.236440     5A    -11.224587     6A     -1.403194  
       7A     -1.084519     8A     -0.977478     9A     -0.842170  
      10A     -0.794016    11A     -0.675099    12A     -0.644048  
      13A     -0.620526    14A     -0.589536    15A     -0.570289  
      16A     -0.525555    17A     -0.514540    18A     -0.490393  
      19A     -0.483001    20A     -0.410758  

    Virtual:                                                              

      21A      0.161394    22A      0.229626    23A      0.267549  
      24A      0.272924    25A      0.277982    26A      0.306211  
      27A      0.315618    28A      0.323849    29A      0.355132  
      30A      0.391719    31A      0.419571    32A      0.447722  
      33A      0.488153    34A      0.702876    35A      0.731549  
      36A      0.747139    37A      0.776936    38A      0.802302  
      39A      0.823202    40A      0.866262    41A      0.919890  
      42A      0.933699    43A      0.984668    44A      1.034298  
      45A      1.044886    46A      1.099682    47A      1.115022  
      48A      1.128850    49A      1.145058    50A      1.162104  
      51A      1.173286    52A      1.203260    53A      1.212617  
      54A      1.245921    55A      1.293215    56A      1.313030  
      57A      1.344688    58A      1.390871    59A      1.573304  
      60A      1.639048    61A      1.762828    62A      1.786605  
      63A      1.853985    64A      1.902656    65A      1.960054  
      66A      2.034012    67A      2.105787    68A      2.128446  
      69A      2.158066    70A      2.238978    71A      2.266566  
      72A      2.316130    73A      2.366596    74A      2.415701  
      75A      2.501722    76A      2.584288    77A      2.656319  
      78A      2.676856    79A      2.707167    80A      2.760777  
      81A      2.918466    82A      2.948271    83A      2.987785  
      84A      3.035998    85A      3.262157    86A      3.365492  
      87A      4.281854    88A      4.519139    89A      4.611530  
      90A      4.779499    91A      4.938839  

    Final Occupation by Irrep:
              A 
    DOCC [    20 ]

  Energy converged.

  @DF-RHF Final Energy:  -230.98165640689703

   => Energetics <=

    Nuclear Repulsion Energy =            170.1278997901519290
    One-Electron Energy =                -649.7873273849589850
    Two-Electron Energy =                 248.6777711879102526
    DFT Exchange-Correlation Energy =       0.0000000000000000
    Empirical Dispersion Energy =           0.0000000000000000
    PCM Polarization Energy =               0.0000000000000000
    EFP Energy =                            0.0000000000000000
    Total Energy =                       -230.9816564068968319

    Alert: EFP and PCM quantities not currently incorporated into SCF psivars.

Properties will be evaluated at   0.000000,   0.000000,   0.000000 Bohr
  ==> Properties <==


Properties computed using the SCF density matrix

  Nuclear Dipole Moment: (a.u.)
     X:    -5.2450      Y:    -7.0866      Z:     1.0381

  Electronic Dipole Moment: (a.u.)
     X:     4.4537      Y:     6.1528      Z:    -1.1839

  Dipole Moment: (a.u.)
     X:    -0.7913      Y:    -0.9338      Z:    -0.1459     Total:     1.2326

  Dipole Moment: (Debye)
     X:    -2.0113      Y:    -2.3734      Z:    -0.3707     Total:     3.1330


  Saving occupied orbitals to File 180.

*** tstop() called on cx1-1-2-2.cx1.hpc.ic.ac.uk at Fri Sep  2 11:55:30 2016
Module time:
	user time   =       7.95 seconds =       0.13 minutes
	system time =       0.13 seconds =       0.00 minutes
	total time  =          3 seconds =       0.05 minutes
Total time:
	user time   =      26.58 seconds =       0.44 minutes
	system time =       0.40 seconds =       0.01 minutes
	total time  =         10 seconds =       0.17 minutes

*** tstart() called on cx1-1-2-2.cx1.hpc.ic.ac.uk
*** at Fri Sep  2 11:55:30 2016


         ------------------------------------------------------------
                                   SCF GRAD                          
                          Rob Parrish, Justin Turney,                
                       Andy Simmonett, and Alex Sokolov              
         ------------------------------------------------------------

  ==> Geometry <==

    Molecular point group: c1
    Full point group: C1

    Geometry (in Angstrom), charge = 0, multiplicity = 1:

       Center              X                  Y                   Z               Mass       
    ------------   -----------------  -----------------  -----------------  -----------------
           H         -0.161244179903     1.315105769249    -1.362185929741     1.007825032070
           C          0.576943462125     1.072862072851    -0.587976873461    12.000000000000
           C          0.449778896304    -0.310043266714    -0.001222717921    12.000000000000
           O          1.391021505021     1.875783631292    -0.266253691716    15.994914619560
           C         -0.977017816532    -0.592082852393     0.527032771254    12.000000000000
           H          1.194025157786    -0.383953013976     0.781839915301     1.007825032070
           H          0.709505175483    -1.015557633333    -0.788987280262     1.007825032070
           C         -1.433321700287    -2.035308650632     0.323944574044    12.000000000000
           H         -1.696773513351     0.088313082336     0.076030219058     1.007825032070
           H         -1.001236958459    -0.359514100330     1.586177551867     1.007825032070
           H         -1.507665211506    -2.275720579100    -0.732586071306     1.007825032070
           H         -2.405991790655    -2.205402486668     0.774139317433     1.007825032070
           H         -0.732646934760    -2.732170819280     0.774268711643     1.007825032070

  Nuclear repulsion =  170.127899790151957

  ==> Basis Set <==

  Basis Set: 6-31G*
    Number of shells: 46
    Number of basis function: 91
    Number of Cartesian functions: 91
    Spherical Harmonics?: false
    Max angular momentum: 2

  ==> DFJKGrad: Density-Fitted SCF Gradients <==

    Gradient:                    1
    J tasked:                  Yes
    K tasked:                  Yes
    wK tasked:                  No
    OpenMP threads:              4
    Integrals threads:           4
    Memory (MB):              1430
    Schwarz Cutoff:          0E+00
    Fitting Condition:       1E-12

   => Auxiliary Basis Set <=

  Basis Set: 
    Number of shells: 192
    Number of basis function: 605
    Number of Cartesian functions: 605
    Spherical Harmonics?: false
    Max angular momentum: 3


  -Total Gradient:
     Atom            X                  Y                   Z
    ------   -----------------  -----------------  -----------------
       1       -0.000365782618    -0.000210748536     0.000509840964
       2        0.002207701413    -0.001264572870     0.000124125572
       3        0.001574026155    -0.003255688928    -0.000120829090
       4       -0.000463490218     0.000504821288    -0.000010493334
       5       -0.001753021469    -0.001443246801    -0.003932831359
       6        0.000314899270     0.004118561248    -0.000011510519
       7        0.000669851283     0.000200288416    -0.000145579096
       8       -0.000852977488     0.000202655126     0.000915129401
       9       -0.000861202766     0.001792862553     0.003332805932
      10       -0.000420655084    -0.000670812866    -0.000741678338
      11       -0.000039602427     0.000340452880    -0.000030782816
      12       -0.000107411055    -0.000340556540     0.000154413254
      13        0.000097665002     0.000025985028    -0.000042610570


*** tstop() called on cx1-1-2-2.cx1.hpc.ic.ac.uk at Fri Sep  2 11:55:33 2016
Module time:
	user time   =      11.11 seconds =       0.19 minutes
	system time =       0.14 seconds =       0.00 minutes
	total time  =          3 seconds =       0.05 minutes
Total time:
	user time   =      37.71 seconds =       0.63 minutes
	system time =       0.54 seconds =       0.01 minutes
	total time  =         13 seconds =       0.22 minutes
CURRENT ENERGY: -230.9816564069

			-----------------------------------------
			 OPTKING 2.0: for geometry optimizations 
			  - R.A. King,  Bethel University        
			-----------------------------------------

	Previous internal coordinate definitions found.
	---Fragment 1 Geometry and Gradient---
	 H          -0.3047073405        2.4851897397       -2.5741583493
	 C           1.0902651376        2.0274154960       -1.1111152633
	 C           0.8499589344       -0.5858968634       -0.0023106020
	 O           2.6286496894        3.5447173477       -0.5031465592
	 C          -1.8462961002       -1.1188744390        0.9959476007
	 H           2.2563805440       -0.7255660443        1.4774633197
	 H           1.3407704715       -1.9191257992       -1.4909698820
	 C          -2.7085854739       -3.8461759456        0.6121665272
	 H          -3.2064372498        0.1668875396        0.1436762918
	 H          -1.8920636456       -0.6793831905        2.9974411712
	 H          -2.8490743498       -4.3004886495       -1.3843870435
	 H          -4.5466655623       -4.1676067126        1.4629112986
	 H          -1.3845020588       -5.1630545967        1.4631558183
	            -0.0003657826       -0.0002107485        0.0005098410
	             0.0022077014       -0.0012645729        0.0001241256
	             0.0015740262       -0.0032556889       -0.0001208291
	            -0.0004634902        0.0005048213       -0.0000104933
	            -0.0017530215       -0.0014432468       -0.0039328314
	             0.0003148993        0.0041185612       -0.0000115105
	             0.0006698513        0.0002002884       -0.0001455791
	            -0.0008529775        0.0002026551        0.0009151294
	            -0.0008612028        0.0017928626        0.0033328059
	            -0.0004206551       -0.0006708129       -0.0007416783
	            -0.0000396024        0.0003404529       -0.0000307828
	            -0.0001074111       -0.0003405565        0.0001544133
	             0.0000976650        0.0000259850       -0.0000426106

	---Fragment 1 Intrafragment Coordinates---
	 - Coordinate -           - BOHR/RAD -       - ANG/DEG -
	 R(1,2)           =         2.072680	       1.096815
	 R(2,3)           =         2.848964	       1.507607
	 R(2,4)           =         2.244651	       1.187818
	 R(3,5)           =         2.924103	       1.547369
	 R(3,6)           =         2.046280	       1.082845
	 R(3,7)           =         2.057791	       1.088936
	 R(5,8)           =         2.886001	       1.527206
	 R(5,9)           =         2.056583	       1.088297
	 R(5,10)          =         2.049689	       1.084649
	 R(8,11)          =         2.052404	       1.086086
	 R(8,12)          =         2.050762	       1.085216
	 R(8,13)          =         2.052206	       1.085981
	 B(1,2,3)         =         2.004843	     114.869018
	 B(1,2,4)         =         2.098044	     120.209057
	 B(2,3,5)         =         1.958256	     112.199797
	 B(2,3,6)         =         1.860934	     106.623672
	 B(2,3,7)         =         1.867773	     107.015497
	 B(3,2,4)         =         2.180282	     124.920931
	 B(3,5,8)         =         1.984880	     113.725265
	 B(3,5,9)         =         1.933065	     110.756444
	 B(3,5,10)        =         1.891115	     108.352926
	 B(5,3,6)         =         1.954582	     111.989302
	 B(5,3,7)         =         1.927094	     110.414364
	 B(5,8,11)        =         1.937990	     111.038645
	 B(5,8,12)        =         1.939868	     111.146229
	 B(5,8,13)        =         1.937441	     111.007188
	 B(6,3,7)         =         1.891246	     108.360435
	 B(8,5,9)         =         1.915696	     109.761303
	 B(8,5,10)        =         1.902664	     109.014632
	 B(9,5,10)        =         1.829520	     104.823753
	 B(11,8,12)       =         1.883369	     107.909101
	 B(11,8,13)       =         1.881269	     107.788782
	 B(12,8,13)       =         1.881457	     107.799524
	 D(1,2,3,5)       =        -0.935839	     -53.619637
	 D(1,2,3,6)       =        -3.081703	    -176.568591
	 D(1,2,3,7)       =         1.180481	      67.636551
	 D(2,3,5,8)       =         2.518363	     144.291570
	 D(2,3,5,9)       =         0.351351	      20.130909
	 D(2,3,5,10)      =        -1.646286	     -94.325229
	 D(3,5,8,11)      =        -1.118951	     -64.111159
	 D(3,5,8,12)      =         3.067489	     175.754158
	 D(3,5,8,13)      =         0.973526	      55.778941
	 D(4,2,3,5)       =         2.199406	     126.016698
	 D(4,2,3,6)       =         0.053542	       3.067744
	 D(4,2,3,7)       =        -1.967459	    -112.727114
	 D(6,3,5,8)       =        -1.672712	     -95.839336
	*D(6,3,5,9)       =         2.443461	     140.000003
	 D(6,3,5,10)      =         0.445825	      25.543865
	 D(7,3,5,8)       =         0.436483	      25.008625
	 D(7,3,5,9)       =        -1.730529	     -99.152036
	 D(7,3,5,10)      =         2.555019	     146.391826
	 D(9,5,8,11)      =         1.057414	      60.585369
	 D(9,5,8,12)      =        -1.039332	     -59.549315
	 D(9,5,8,13)      =        -3.133294	    -179.524531
	 D(10,5,8,11)     =         3.052147	     174.875148
	 D(10,5,8,12)     =         0.955401	      54.740464
	 D(10,5,8,13)     =        -1.138561	     -65.234752

	Current energy   :      -230.9816564069

	Energy change for the previous step:
		Projected    :        -0.0008434465
		Actual       :        -0.0003165797

	Performing BFGS update.
	Previous computed or guess Hessian on step 1.
	Steps to be used in Hessian update: 1
	Taking RFO optimization step.
	Going to follow RFO solution 1.
	Using RFO vector 1.
	Norm of target step-size    0.16051
	Projected energy change by RFO approximation:        -0.0010605586

	Back-transformation to cartesian coordinates...
	Successfully converged to displaced geometry.

	Back-transformation to cartesian coordinates to adjust frozen coordinates...
	Successfully converged to displaced geometry.

	--- Internal Coordinate Step in ANG or DEG, aJ/ANG or AJ/DEG ---
	 ---------------------------------------------------------------------------
	   Coordinate                Previous        Force       Change         New 
	   ----------                --------       ------       ------       ------
	    1 R(1,2)          =      1.096815     0.001320     0.000146     1.096961
	    2 R(2,3)          =      1.507607     0.008376     0.001245     1.508852
	    3 R(2,4)          =      1.187818    -0.000171    -0.000047     1.187772
	    4 R(3,5)          =      1.547369    -0.029077    -0.003345     1.544024
	    5 R(3,6)          =      1.082845     0.000601    -0.000047     1.082798
	    6 R(3,7)          =      1.088936    -0.001115    -0.000171     1.088765
	    7 R(5,8)          =      1.527206     0.000650    -0.000127     1.527079
	    8 R(5,9)          =      1.088297    -0.002548     0.000002     1.088299
	    9 R(5,10)         =      1.084649     0.007074     0.000567     1.085216
	   10 R(8,11)         =      1.086086     0.000352     0.000103     1.086189
	   11 R(8,12)         =      1.085216    -0.001761    -0.000214     1.085002
	   12 R(8,13)         =      1.085981    -0.000236    -0.000033     1.085947
	   13 B(1,2,3)        =    114.869018     0.000070     0.108306   114.977325
	   14 B(1,2,4)        =    120.209057     0.000008    -0.083036   120.126021
	   15 B(2,3,5)        =    112.199797    -0.000048    -0.177853   112.021944
	   16 B(2,3,6)        =    106.623672     0.000073     0.134222   106.757894
	   17 B(2,3,7)        =    107.015497     0.000033     0.142476   107.157973
	   18 B(3,2,4)        =    124.920931    -0.000078    -0.262050   124.658880
	   19 B(3,5,8)        =    113.725265    -0.000069    -0.162587   113.562678
	   20 B(3,5,9)        =    110.756444    -0.000078    -0.437621   110.318823
	   21 B(3,5,10)       =    108.352926     0.000015    -0.036251   108.316675
	   22 B(5,3,6)        =    111.989302    -0.000056    -0.271417   111.717885
	   23 B(5,3,7)        =    110.414364    -0.000016    -0.034835   110.379529
	   24 B(5,8,11)       =    111.038645     0.000039     0.158459   111.197104
	   25 B(5,8,12)       =    111.146229    -0.000038    -0.115878   111.030350
	   26 B(5,8,13)       =    111.007188     0.000007    -0.061595   110.945594
	   27 B(6,3,7)        =    108.360435     0.000022     0.242046   108.602481
	   28 B(8,5,9)        =    109.761303     0.000088     0.294350   110.055653
	   29 B(8,5,10)       =    109.014632     0.000051     0.374430   109.389062
	   30 B(9,5,10)       =    104.823753    -0.000001    -0.013452   104.810301
	   31 B(11,8,12)      =    107.909101    -0.000002    -0.015308   107.893792
	   32 B(11,8,13)      =    107.788782    -0.000017     0.010343   107.799125
	   33 B(12,8,13)      =    107.799524     0.000011     0.024997   107.824521
	   34 D(1,2,3,5)      =    -53.619637    -0.000007    -3.198396   -56.818033
	   35 D(1,2,3,6)      =   -176.568591     0.000004    -2.841620  -179.410211
	   36 D(1,2,3,7)      =     67.636551    -0.000014    -3.255010    64.381540
	   37 D(2,3,5,8)      =    144.291570    -0.000004     0.066064   144.357635
	   38 D(2,3,5,9)      =     20.130909    -0.000005     0.140689    20.271599
	   39 D(2,3,5,10)     =    -94.325229     0.000003     0.410326   -93.914903
	   40 D(3,5,8,11)     =    -64.111159     0.000008     1.959805   -62.151354
	   41 D(3,5,8,12)     =    175.754158     0.000008     1.950662   177.704820
	   42 D(3,5,8,13)     =     55.778941     0.000010     2.037140    57.816081
	   43 D(4,2,3,5)      =    126.016698     0.000003     2.786084   128.802782
	   44 D(4,2,3,6)      =      3.067744     0.000015     3.142860     6.210604
	   45 D(4,2,3,7)      =   -112.727114    -0.000003     2.729469  -109.997645
	   46 D(6,3,5,8)      =    -95.839336     0.000001    -0.074625   -95.913961
	   47 *D(6,3,5,9)     =    140.000003     0.000000    -0.000000   140.000003
	   48 D(6,3,5,10)     =     25.543865     0.000008     0.269637    25.813502
	   49 D(7,3,5,8)      =     25.008625    -0.000004     0.026110    25.034736
	   50 D(7,3,5,9)      =    -99.152036    -0.000005     0.100736   -99.051300
	   51 D(7,3,5,10)     =    146.391826     0.000003     0.370372   146.762199
	   52 D(9,5,8,11)     =     60.585369    -0.000012     1.491921    62.077290
	   53 D(9,5,8,12)     =    -59.549315    -0.000011     1.482778   -58.066536
	   54 D(9,5,8,13)     =   -179.524531    -0.000010     1.569256  -177.955275
	   55 D(10,5,8,11)    =    174.875148     0.000006     1.845283   176.720431
	   56 D(10,5,8,12)    =     54.740464     0.000006     1.836141    56.576605
	   57 D(10,5,8,13)    =    -65.234752     0.000008     1.922618   -63.312134
	 ---------------------------------------------------------------------------

  ==> Convergence Check <==

  Measures of convergence in internal coordinates in au.
  Criteria marked as inactive (o), active & met (*), and active & unmet ( ).
  ---------------------------------------------------------------------------------------------
   Step     Total Energy     Delta E     MAX Force     RMS Force      MAX Disp      RMS Disp   
  ---------------------------------------------------------------------------------------------
    Convergence Criteria    1.00e-06 *    3.00e-04 *             o    1.20e-03 *             o
  ---------------------------------------------------------------------------------------------
      2    -230.98165641   -3.17e-04      3.53e-03      6.92e-04 o    5.68e-02      2.13e-02 o  ~
  ---------------------------------------------------------------------------------------------

	Writing optimization data to binary file.
	Structure for next step:
	Cartesian Geometry (in Angstrom)
	    H    -0.1518659056   1.3147609722  -1.3769623545
	    C     0.5587905068   1.0836169703  -0.5739288576
	    C     0.4418058617  -0.3070551330  -0.0003615286
	    O     1.4039386103   1.8656299934  -0.2824124870
	    C    -0.9770746235  -0.5944307102   0.5364838150
	    H     1.1889956775  -0.3871112467   0.7792210479
	    H     0.6945118129  -1.0052290983  -0.7966669482
	    C    -1.4300860791  -2.0370118058   0.3226832938
	    H    -1.6953705570   0.0920265938   0.0923878218
	    H    -0.9933636470  -0.3651284459   1.5970725405
	    H    -1.4798345960  -2.2804221182  -0.7347113079
	    H    -2.4134770652  -2.2036685277   0.7497630481
	    H    -0.7415943318  -2.7336668678   0.7916524971
			--------------------------
			 OPTKING Finished Execution 
			--------------------------

    Structure for next step:
    Molecular point group: c1
    Full point group: C1

    Geometry (in Angstrom), charge = 0, multiplicity = 1:

    H           -0.151051961153     1.315394222849    -1.377125100881
    C            0.559604397025     1.084250238507    -0.574091665275
    C            0.442619760866    -0.306421758538    -0.000524380088
    O            1.404752436020     1.866263201958    -0.282575316945
    C           -0.976260616011    -0.593797313811     0.536320922467
    H            1.189809519563    -0.386477866096     0.779058136889
    H            0.695325692755    -1.004595670544    -0.796829738898
    C           -1.429272036958    -2.036378299243     0.322520417581
    H           -1.694556494623     0.092659937749     0.092224963191
    H           -0.992549638228    -0.364495066971     1.596909567008
    H           -1.479020550085    -2.279788593084    -0.734874103377
    H           -2.412662947987    -2.203035008387     0.749600139303
    H           -0.740780342326    -2.733033308040     0.791489585138

gradient() will perform analytic gradient computation.

*** tstart() called on cx1-1-2-2.cx1.hpc.ic.ac.uk
*** at Fri Sep  2 11:55:33 2016


         ---------------------------------------------------------
                                   SCF
            by Justin Turney, Rob Parrish, and Andy Simmonett
                              RHF Reference
                        4 Threads,   2000 MiB Core
         ---------------------------------------------------------

  ==> Geometry <==

    Molecular point group: c1
    Full point group: C1

    Geometry (in Angstrom), charge = 0, multiplicity = 1:

       Center              X                  Y                   Z               Mass       
    ------------   -----------------  -----------------  -----------------  -----------------
           H         -0.151051961153     1.315394222849    -1.377125100881     1.007825032070
           C          0.559604397025     1.084250238507    -0.574091665275    12.000000000000
           C          0.442619760866    -0.306421758538    -0.000524380088    12.000000000000
           O          1.404752436020     1.866263201958    -0.282575316945    15.994914619560
           C         -0.976260616011    -0.593797313811     0.536320922467    12.000000000000
           H          1.189809519563    -0.386477866096     0.779058136889     1.007825032070
           H          0.695325692755    -1.004595670544    -0.796829738898     1.007825032070
           C         -1.429272036958    -2.036378299243     0.322520417581    12.000000000000
           H         -1.694556494623     0.092659937749     0.092224963191     1.007825032070
           H         -0.992549638228    -0.364495066971     1.596909567008     1.007825032070
           H         -1.479020550085    -2.279788593084    -0.734874103377     1.007825032070
           H         -2.412662947987    -2.203035008387     0.749600139303     1.007825032070
           H         -0.740780342326    -2.733033308040     0.791489585138     1.007825032070

  Running in c1 symmetry.

  Rotational constants: A =      0.71882  B =      0.07101  C =      0.06983 [cm^-1]
  Rotational constants: A =  21549.60397  B =   2128.89496  C =   2093.30632 [MHz]
  Nuclear repulsion =  170.184304421791381

  Charge       = 0
  Multiplicity = 1
  Electrons    = 40
  Nalpha       = 20
  Nbeta        = 20

  ==> Algorithm <==

  SCF Algorithm Type is DF.
  DIIS enabled.
  MOM disabled.
  Fractional occupation disabled.
  Guess Type is READ.
  Energy threshold   = 1.00e-08
  Density threshold  = 1.00e-08
  Integral threshold = 0.00e+00

  ==> Primary Basis <==

  Basis Set: 6-31G*
    Number of shells: 46
    Number of basis function: 91
    Number of Cartesian functions: 91
    Spherical Harmonics?: false
    Max angular momentum: 2

  ==> Pre-Iterations <==

   -------------------------------------------------------
    Irrep   Nso     Nmo     Nalpha   Nbeta   Ndocc  Nsocc
   -------------------------------------------------------
     A         91      91       0       0       0       0
   -------------------------------------------------------
    Total      91      91      20      20      20       0
   -------------------------------------------------------

 OEINTS: Overlap, kinetic, potential, dipole, and quadrupole integrals
         stored in file 35.

  ==> Integral Setup <==

  ==> DFJK: Density-Fitted J/K Matrices <==

    J tasked:                  Yes
    K tasked:                  Yes
    wK tasked:                  No
    OpenMP threads:              4
    Integrals threads:           4
    Memory (MB):              1430
    Algorithm:                Core
    Integral Cache:           NONE
    Schwarz Cutoff:          1E-12
    Fitting Condition:       1E-12

   => Auxiliary Basis Set <=

  Basis Set: 
    Number of shells: 192
    Number of basis function: 605
    Number of Cartesian functions: 605
    Spherical Harmonics?: false
    Max angular momentum: 3

  Minimum eigenvalue in the overlap matrix is 4.1093406840E-03.
  Using Symmetric Orthogonalization.
  SCF Guess: Reading in previously saved MOs, projecting if necessary.

  Using orbitals from previous SCF, no projection.
  Recomputing DOCC and SOCC from number of alpha and beta electrons from previous calculation.
              A 
    DOCC [    20 ]

  ==> Iterations <==

                           Total Energy        Delta E     RMS |[F,P]|

   @DF-RHF iter   0:  -230.97814929457266   -2.30978e+02   9.19392e-04 
   @DF-RHF iter   1:  -230.98115601259448   -3.00672e-03   1.27549e-04 
   @DF-RHF iter   2:  -230.98128978563361   -1.33773e-04   4.65859e-05 DIIS
   @DF-RHF iter   3:  -230.98131500678798   -2.52212e-05   1.54309e-05 DIIS
   @DF-RHF iter   4:  -230.98131760167453   -2.59489e-06   7.84860e-06 DIIS
   @DF-RHF iter   5:  -230.98131860139605   -9.99722e-07   3.91080e-06 DIIS
   @DF-RHF iter   6:  -230.98131882990239   -2.28506e-07   1.37010e-06 DIIS
   @DF-RHF iter   7:  -230.98131887282577   -4.29234e-08   6.19144e-07 DIIS
   @DF-RHF iter   8:  -230.98131888307469   -1.02489e-08   2.37441e-07 DIIS
   @DF-RHF iter   9:  -230.98131888448737   -1.41267e-09   7.25233e-08 DIIS
   @DF-RHF iter  10:  -230.98131888458178   -9.44169e-11   1.51576e-08 DIIS
   @DF-RHF iter  11:  -230.98131888458570   -3.92220e-12   2.93394e-09 DIIS

  ==> Post-Iterations <==

    Orbital Energies (a.u.)
    -----------------------

    Doubly Occupied:                                                      

       1A    -20.563129     2A    -11.327111     3A    -11.238927  
       4A    -11.236021     5A    -11.224454     6A     -1.403330  
       7A     -1.085007     8A     -0.976845     9A     -0.842128  
      10A     -0.793824    11A     -0.675564    12A     -0.644319  
      13A     -0.620567    14A     -0.589472    15A     -0.569962  
      16A     -0.525968    17A     -0.514615    18A     -0.489603  
      19A     -0.483480    20A     -0.410486  

    Virtual:                                                              

      21A      0.160230    22A      0.229584    23A      0.268692  
      24A      0.271321    25A      0.278389    26A      0.306704  
      27A      0.315125    28A      0.325601    29A      0.355817  
      30A      0.391559    31A      0.420361    32A      0.447745  
      33A      0.487038    34A      0.703137    35A      0.732044  
      36A      0.747127    37A      0.775606    38A      0.803359  
      39A      0.822208    40A      0.863832    41A      0.921959  
      42A      0.936369    43A      0.984776    44A      1.032518  
      45A      1.042594    46A      1.099648    47A      1.115435  
      48A      1.129910    49A      1.144979    50A      1.161828  
      51A      1.173037    52A      1.204039    53A      1.211900  
      54A      1.245669    55A      1.299981    56A      1.310298  
      57A      1.341058    58A      1.390424    59A      1.575083  
      60A      1.638677    61A      1.762648    62A      1.793503  
      63A      1.852151    64A      1.894285    65A      1.969319  
      66A      2.035180    67A      2.108449    68A      2.123621  
      69A      2.164842    70A      2.234916    71A      2.270904  
      72A      2.315508    73A      2.369634    74A      2.406208  
      75A      2.505805    76A      2.586363    77A      2.660285  
      78A      2.679084    79A      2.702592    80A      2.761969  
      81A      2.914360    82A      2.947194    83A      2.990328  
      84A      3.036345    85A      3.262386    86A      3.365608  
      87A      4.279997    88A      4.521836    89A      4.611617  
      90A      4.779397    91A      4.939333  

    Final Occupation by Irrep:
              A 
    DOCC [    20 ]

  Energy converged.

  @DF-RHF Final Energy:  -230.98131888458570

   => Energetics <=

    Nuclear Repulsion Energy =            170.1843044217913814
    One-Electron Energy =                -649.9016239437062268
    Two-Electron Energy =                 248.7360006373290844
    DFT Exchange-Correlation Energy =       0.0000000000000000
    Empirical Dispersion Energy =           0.0000000000000000
    PCM Polarization Energy =               0.0000000000000000
    EFP Energy =                            0.0000000000000000
    Total Energy =                       -230.9813188845857894

    Alert: EFP and PCM quantities not currently incorporated into SCF psivars.

Properties will be evaluated at   0.000000,   0.000000,   0.000000 Bohr
  ==> Properties <==


Properties computed using the SCF density matrix

  Nuclear Dipole Moment: (a.u.)
     X:    -5.2295      Y:    -7.0815      Z:     1.0303

  Electronic Dipole Moment: (a.u.)
     X:     4.4229      Y:     6.1636      Z:    -1.1604

  Dipole Moment: (a.u.)
     X:    -0.8065      Y:    -0.9178      Z:    -0.1302     Total:     1.2288

  Dipole Moment: (Debye)
     X:    -2.0500      Y:    -2.3329      Z:    -0.3308     Total:     3.1232


  Saving occupied orbitals to File 180.

*** tstop() called on cx1-1-2-2.cx1.hpc.ic.ac.uk at Fri Sep  2 11:55:37 2016
Module time:
	user time   =       8.70 seconds =       0.15 minutes
	system time =       0.13 seconds =       0.00 minutes
	total time  =          4 seconds =       0.07 minutes
Total time:
	user time   =      47.21 seconds =       0.79 minutes
	system time =       0.69 seconds =       0.01 minutes
	total time  =         17 seconds =       0.28 minutes

*** tstart() called on cx1-1-2-2.cx1.hpc.ic.ac.uk
*** at Fri Sep  2 11:55:37 2016


         ------------------------------------------------------------
                                   SCF GRAD                          
                          Rob Parrish, Justin Turney,                
                       Andy Simmonett, and Alex Sokolov              
         ------------------------------------------------------------

  ==> Geometry <==

    Molecular point group: c1
    Full point group: C1

    Geometry (in Angstrom), charge = 0, multiplicity = 1:

       Center              X                  Y                   Z               Mass       
    ------------   -----------------  -----------------  -----------------  -----------------
           H         -0.151051961153     1.315394222849    -1.377125100881     1.007825032070
           C          0.559604397025     1.084250238507    -0.574091665275    12.000000000000
           C          0.442619760866    -0.306421758538    -0.000524380088    12.000000000000
           O          1.404752436020     1.866263201958    -0.282575316945    15.994914619560
           C         -0.976260616011    -0.593797313811     0.536320922467    12.000000000000
           H          1.189809519563    -0.386477866096     0.779058136889     1.007825032070
           H          0.695325692755    -1.004595670544    -0.796829738898     1.007825032070
           C         -1.429272036958    -2.036378299243     0.322520417581    12.000000000000
           H         -1.694556494623     0.092659937749     0.092224963191     1.007825032070
           H         -0.992549638228    -0.364495066971     1.596909567008     1.007825032070
           H         -1.479020550085    -2.279788593084    -0.734874103377     1.007825032070
           H         -2.412662947987    -2.203035008387     0.749600139303     1.007825032070
           H         -0.740780342326    -2.733033308040     0.791489585138     1.007825032070

  Nuclear repulsion =  170.184304421791381

  ==> Basis Set <==

  Basis Set: 6-31G*
    Number of shells: 46
    Number of basis function: 91
    Number of Cartesian functions: 91
    Spherical Harmonics?: false
    Max angular momentum: 2

  ==> DFJKGrad: Density-Fitted SCF Gradients <==

    Gradient:                    1
    J tasked:                  Yes
    K tasked:                  Yes
    wK tasked:                  No
    OpenMP threads:              4
    Integrals threads:           4
    Memory (MB):              1430
    Schwarz Cutoff:          0E+00
    Fitting Condition:       1E-12

   => Auxiliary Basis Set <=

  Basis Set: 
    Number of shells: 192
    Number of basis function: 605
    Number of Cartesian functions: 605
    Spherical Harmonics?: false
    Max angular momentum: 3


  -Total Gradient:
     Atom            X                  Y                   Z
    ------   -----------------  -----------------  -----------------
       1        0.002921776824    -0.001793554005    -0.003080243808
       2       -0.007870458286     0.005075900985     0.009863343601
       3        0.003849118874    -0.005731601905    -0.003652175500
       4        0.002365582914    -0.001938635961    -0.003311657291
       5       -0.001229546903    -0.001283280956    -0.003311131425
       6       -0.000342327939     0.004030614326     0.000582750850
       7        0.000122649879    -0.000813115207     0.000262291243
       8        0.000011777041    -0.000178018122    -0.000105704341
       9        0.000045630414     0.002437331401     0.003220095373
      10        0.000109454795     0.000077504260    -0.000479893227
      11       -0.000019356619    -0.000062938427    -0.000087357864
      12        0.000011138309     0.000098338184     0.000015215418
      13        0.000024560697     0.000081455423     0.000084466971


*** tstop() called on cx1-1-2-2.cx1.hpc.ic.ac.uk at Fri Sep  2 11:55:40 2016
Module time:
	user time   =      10.02 seconds =       0.17 minutes
	system time =       0.16 seconds =       0.00 minutes
	total time  =          3 seconds =       0.05 minutes
Total time:
	user time   =      57.25 seconds =       0.95 minutes
	system time =       0.85 seconds =       0.01 minutes
	total time  =         20 seconds =       0.33 minutes
CURRENT ENERGY: -230.9813188846

			-----------------------------------------
			 OPTKING 2.0: for geometry optimizations 
			  - R.A. King,  Bethel University        
			-----------------------------------------

	Previous internal coordinate definitions found.
	---Fragment 1 Geometry and Gradient---
	 H          -0.2854468384        2.4857348380       -2.6023892914
	 C           1.0574990531        2.0489360103       -1.0848760225
	 C           0.8364301290       -0.5790532048       -0.0009909348
	 O           2.6545973886        3.5267263436       -0.5339899609
	 C          -1.8448651986       -1.1221143015        1.0134996628
	 H           2.2484141423       -0.7303373233        1.4722065203
	 H           1.3139751325       -1.8984106916       -1.5057899811
	 C          -2.7009327192       -3.8481972885        0.6094752615
	 H          -3.2022476915        0.1751019058        0.1742799230
	 H          -1.8756469895       -0.6887958534        3.0177217406
	 H          -2.7949437846       -4.3081760818       -1.3887107975
	 H          -4.5592722227       -4.1631328270        1.4165389725
	 H          -1.3998719716       -5.1646844642        1.4956985529
	             0.0029217768       -0.0017935540       -0.0030802438
	            -0.0078704583        0.0050759010        0.0098633436
	             0.0038491189       -0.0057316019       -0.0036521755
	             0.0023655829       -0.0019386360       -0.0033116573
	            -0.0012295469       -0.0012832810       -0.0033111314
	            -0.0003423279        0.0040306143        0.0005827509
	             0.0001226499       -0.0008131152        0.0002622912
	             0.0000117770       -0.0001780181       -0.0001057043
	             0.0000456304        0.0024373314        0.0032200954
	             0.0001094548        0.0000775043       -0.0004798932
	            -0.0000193566       -0.0000629384       -0.0000873579
	             0.0000111383        0.0000983382        0.0000152154
	             0.0000245607        0.0000814554        0.0000844670

	---Fragment 1 Intrafragment Coordinates---
	 - Coordinate -           - BOHR/RAD -       - ANG/DEG -
	 R(1,2)           =         2.072955	       1.096961
	 R(2,3)           =         2.851316	       1.508852
	 R(2,4)           =         2.244563	       1.187772
	 R(3,5)           =         2.917782	       1.544024
	 R(3,6)           =         2.046191	       1.082798
	 R(3,7)           =         2.057468	       1.088765
	 R(5,8)           =         2.885761	       1.527079
	 R(5,9)           =         2.056586	       1.088299
	 R(5,10)          =         2.050760	       1.085216
	 R(8,11)          =         2.052600	       1.086189
	 R(8,12)          =         2.050357	       1.085002
	 R(8,13)          =         2.052143	       1.085947
	 B(1,2,3)         =         2.006733	     114.977325
	 B(1,2,4)         =         2.096595	     120.126021
	 B(2,3,5)         =         1.955152	     112.021944
	 B(2,3,6)         =         1.863277	     106.757894
	 B(2,3,7)         =         1.870259	     107.157973
	 B(3,2,4)         =         2.175708	     124.658880
	 B(3,5,8)         =         1.982043	     113.562678
	 B(3,5,9)         =         1.925427	     110.318823
	 B(3,5,10)        =         1.890483	     108.316675
	 B(5,3,6)         =         1.949845	     111.717885
	 B(5,3,7)         =         1.926486	     110.379529
	 B(5,8,11)        =         1.940756	     111.197104
	 B(5,8,12)        =         1.937845	     111.030350
	 B(5,8,13)        =         1.936366	     110.945594
	 B(6,3,7)         =         1.895471	     108.602481
	 B(8,5,9)         =         1.920834	     110.055653
	 B(8,5,10)        =         1.909199	     109.389062
	 B(9,5,10)        =         1.829285	     104.810301
	 B(11,8,12)       =         1.883102	     107.893792
	 B(11,8,13)       =         1.881450	     107.799125
	 B(12,8,13)       =         1.881893	     107.824521
	 D(1,2,3,5)       =        -0.991662	     -56.818033
	 D(1,2,3,6)       =        -3.131299	    -179.410211
	 D(1,2,3,7)       =         1.123670	      64.381540
	 D(2,3,5,8)       =         2.519516	     144.357635
	 D(2,3,5,9)       =         0.353806	      20.271599
	 D(2,3,5,10)      =        -1.639124	     -93.914903
	 D(3,5,8,11)      =        -1.084746	     -62.151354
	 D(3,5,8,12)      =         3.101534	     177.704820
	 D(3,5,8,13)      =         1.009081	      57.816081
	 D(4,2,3,5)       =         2.248033	     128.802782
	 D(4,2,3,6)       =         0.108395	       6.210604
	 D(4,2,3,7)       =        -1.919821	    -109.997645
	 D(6,3,5,8)       =        -1.674014	     -95.913961
	*D(6,3,5,9)       =         2.443461	     140.000003
	 D(6,3,5,10)      =         0.450531	      25.813502
	 D(7,3,5,8)       =         0.436939	      25.034736
	 D(7,3,5,9)       =        -1.728771	     -99.051300
	 D(7,3,5,10)      =         2.561484	     146.762199
	 D(9,5,8,11)      =         1.083453	      62.077290
	 D(9,5,8,12)      =        -1.013452	     -58.066536
	 D(9,5,8,13)      =        -3.105905	    -177.955275
	 D(10,5,8,11)     =         3.084353	     176.720431
	 D(10,5,8,12)     =         0.987448	      56.576605
	 D(10,5,8,13)     =        -1.105005	     -63.312134

	Current energy   :      -230.9813188846

	Energy change for the previous step:
		Projected    :        -0.0010605586
		Actual       :         0.0003375223

	Performing BFGS update.
	Previous computed or guess Hessian on step 1.
	Steps to be used in Hessian update: 2 1
	Taking RFO optimization step.
	Going to follow RFO solution 1.
	Using RFO vector 1.
	Norm of target step-size    0.12607
	Projected energy change by RFO approximation:         0.0022143659

	Back-transformation to cartesian coordinates...
	Successfully converged to displaced geometry.

	Back-transformation to cartesian coordinates to adjust frozen coordinates...
	Successfully converged to displaced geometry.

	--- Internal Coordinate Step in ANG or DEG, aJ/ANG or AJ/DEG ---
	 ---------------------------------------------------------------------------
	   Coordinate                Previous        Force       Change         New 
	   ----------                --------       ------       ------       ------
	    1 R(1,2)          =      1.096961     0.000131    -0.000064     1.096897
	    2 R(2,3)          =      1.508852     0.002319    -0.000907     1.507945
	    3 R(2,4)          =      1.187772     0.003344     0.000088     1.187860
	    4 R(3,5)          =      1.544024    -0.004224     0.000812     1.544836
	    5 R(3,6)          =      1.082798     0.000945     0.000192     1.082989
	    6 R(3,7)          =      1.088765    -0.002950     0.000133     1.088898
	    7 R(5,8)          =      1.527079    -0.000515     0.000365     1.527444
	    8 R(5,9)          =      1.088299    -0.001592    -0.000417     1.087882
	    9 R(5,10)         =      1.085216     0.003743     0.000057     1.085272
	   10 R(8,11)         =      1.086189    -0.000824    -0.000150     1.086040
	   11 R(8,12)         =      1.085002     0.000158     0.000137     1.085139
	   12 R(8,13)         =      1.085947     0.000002     0.000027     1.085974
	   13 B(1,2,3)        =    114.977325     0.000033    -0.036849   114.940476
	   14 B(1,2,4)        =    120.126021    -0.000010     0.072787   120.198808
	   15 B(2,3,5)        =    112.021944     0.000111     0.172792   112.194737
	   16 B(2,3,6)        =    106.757894    -0.000009     0.140040   106.897934
	   17 B(2,3,7)        =    107.157973    -0.000086    -0.099755   107.058218
	   18 B(3,2,4)        =    124.658880     0.000013     0.201806   124.860686
	   19 B(3,5,8)        =    113.562678     0.000018     0.068374   113.631053
	   20 B(3,5,9)        =    110.318823    -0.000042     0.003103   110.321926
	   21 B(3,5,10)       =    108.316675     0.000011     0.169888   108.486563
	   22 B(5,3,6)        =    111.717885    -0.000042     0.127788   111.845673
	   23 B(5,3,7)        =    110.379529    -0.000006    -0.133309   110.246220
	   24 B(5,8,11)       =    111.197104    -0.000010    -0.130297   111.066807
	   25 B(5,8,12)       =    111.030350     0.000011     0.046019   111.076369
	   26 B(5,8,13)       =    110.945594     0.000011     0.152538   111.098131
	   27 B(6,3,7)        =    108.602481     0.000029    -0.221102   108.381380
	   28 B(8,5,9)        =    110.055653     0.000020    -0.241644   109.814009
	   29 B(8,5,10)       =    109.389062    -0.000015    -0.174813   109.214249
	   30 B(9,5,10)       =    104.810301     0.000007     0.188801   104.999102
	   31 B(11,8,12)      =    107.893792    -0.000002     0.011131   107.904923
	   32 B(11,8,13)      =    107.799125    -0.000003    -0.044760   107.754366
	   33 B(12,8,13)      =    107.824521    -0.000007    -0.038320   107.786201
	   34 D(1,2,3,5)      =    -56.818033     0.000051     3.038034   -53.779999
	   35 D(1,2,3,6)      =   -179.410211     0.000049     2.676621  -176.733589
[...]
           C         -1.427988310978    -2.033449573027     0.322144024931    12.000000000000
           H         -1.682247035526     0.095276610517     0.081976682215     1.007825032070
           H         -0.988396505688    -0.359003461794     1.593252655441     1.007825032070
           H         -1.480756815722    -2.277108190572    -0.734914971864     1.007825032070
           H         -2.411043255803    -2.196878818370     0.751269230040     1.007825032070
           H         -0.741030529317    -2.732691130873     0.789497140949     1.007825032070

  Nuclear repulsion =  170.267195723945235

  ==> Basis Set <==

  Basis Set: 6-31G*
    Number of shells: 46
    Number of basis function: 91
    Number of Cartesian functions: 91
    Spherical Harmonics?: false
    Max angular momentum: 2

  ==> DFJKGrad: Density-Fitted SCF Gradients <==

    Gradient:                    1
    J tasked:                  Yes
    K tasked:                  Yes
    wK tasked:                  No
    OpenMP threads:              4
    Integrals threads:           4
    Memory (MB):              1430
    Schwarz Cutoff:          0E+00
    Fitting Condition:       1E-12

   => Auxiliary Basis Set <=

  Basis Set: 
    Number of shells: 192
    Number of basis function: 605
    Number of Cartesian functions: 605
    Spherical Harmonics?: false
    Max angular momentum: 3


  -Total Gradient:
     Atom            X                  Y                   Z
    ------   -----------------  -----------------  -----------------
       1       -0.000001088511    -0.000002694158     0.000006422361
       2        0.000010714090     0.000007876511    -0.000007945357
       3        0.000643337953    -0.004037161832    -0.000283736634
       4        0.000005793464    -0.000010381462    -0.000003962347
       5       -0.000814514346    -0.002040898750    -0.003257399761
       6       -0.000417200205     0.003679266334     0.000768275059
       7        0.000015007690     0.000002755022    -0.000003380081
       8       -0.000003847837     0.000003560204     0.000002416506
       9        0.000564417858     0.002409833645     0.002778202078
      10       -0.000003325822    -0.000003708001     0.000003177431
      11       -0.000000135251    -0.000002718879    -0.000001899564
      12        0.000003296388    -0.000002288232    -0.000001232905
      13       -0.000002455474    -0.000003440399     0.000001063214


*** tstop() called on cx1-1-2-2.cx1.hpc.ic.ac.uk at Fri Sep  2 11:56:12 2016
Module time:
	user time   =       9.56 seconds =       0.16 minutes
	system time =       0.16 seconds =       0.00 minutes
	total time  =          3 seconds =       0.05 minutes
Total time:
	user time   =     151.73 seconds =       2.53 minutes
	system time =       2.38 seconds =       0.04 minutes
	total time  =         52 seconds =       0.87 minutes
CURRENT ENERGY: -230.9817310572

			-----------------------------------------
			 OPTKING 2.0: for geometry optimizations 
			  - R.A. King,  Bethel University        
			-----------------------------------------

	Previous internal coordinate definitions found.
	---Fragment 1 Geometry and Gradient---
	 H          -0.3092347715        2.4850564630       -2.5841728155
	 C           1.0783854572        2.0281301790       -1.1137229685
	 C           0.8497200640       -0.5904267890       -0.0071127074
	 O           2.6163208061        3.5445844036       -0.5021818942
	 C          -1.8325630496       -1.1192058694        1.0073380500
	 H           2.2595227803       -0.7370828659        1.4687949302
	 H           1.3214187983       -1.9244485775       -1.5002457961
	 C          -2.6985068287       -3.8426627981        0.6087639825
	 H          -3.1789861850        0.1800467007        0.1549134787
	 H          -1.8677987065       -0.6784182235        3.0108111793
	 H          -2.7982248511       -4.3031108551       -1.3887880278
	 H          -4.5562114480       -4.1514993139        1.4196930968
	 H          -1.4003447565       -5.1640378431        1.4919333791
	            -0.0000010885       -0.0000026942        0.0000064224
	             0.0000107141        0.0000078765       -0.0000079454
	             0.0006433380       -0.0040371618       -0.0002837366
	             0.0000057935       -0.0000103815       -0.0000039623
	            -0.0008145143       -0.0020408987       -0.0032573998
	            -0.0004172002        0.0036792663        0.0007682751
	             0.0000150077        0.0000027550       -0.0000033801
	            -0.0000038478        0.0000035602        0.0000024165
	             0.0005644179        0.0024098336        0.0027782021
	            -0.0000033258       -0.0000037080        0.0000031774
	            -0.0000001353       -0.0000027189       -0.0000018996
	             0.0000032964       -0.0000022882       -0.0000012329
	            -0.0000024555       -0.0000034404        0.0000010632

	---Fragment 1 Intrafragment Coordinates---
	 - Coordinate -           - BOHR/RAD -       - ANG/DEG -
	 R(1,2)           =         2.072799	       1.096878
	 R(2,3)           =         2.851967	       1.509196
	 R(2,4)           =         2.244741	       1.187866
	 R(3,5)           =         2.916052	       1.543108
	 R(3,6)           =         2.046303	       1.082857
	 R(3,7)           =         2.057076	       1.088558
	 R(5,8)           =         2.885470	       1.526925
	 R(5,9)           =         2.056098	       1.088040
	 R(5,10)          =         2.051692	       1.085709
	 R(8,11)          =         2.052357	       1.086061
	 R(8,12)          =         2.050379	       1.085014
	 R(8,13)          =         2.052132	       1.085941
	 B(1,2,3)         =         2.008636	     115.086347
	 B(1,2,4)         =         2.097862	     120.198626
	 B(2,3,5)         =         1.955440	     112.038460
	 B(2,3,6)         =         1.865466	     106.883320
	 B(2,3,7)         =         1.870672	     107.181605
	 B(3,2,4)         =         2.176686	     124.714929
	 B(3,5,8)         =         1.981381	     113.524749
	 B(3,5,9)         =         1.921474	     110.092376
	 B(3,5,10)        =         1.892885	     108.454303
	 B(5,3,6)         =         1.949601	     111.703931
	 B(5,3,7)         =         1.923931	     110.233098
	 B(5,8,11)        =         1.939898	     111.147986
	 B(5,8,12)        =         1.938464	     111.065791
	 B(5,8,13)        =         1.937413	     111.005564
	 B(6,3,7)         =         1.895542	     108.606531
	 B(8,5,9)         =         1.920515	     110.037381
	 B(8,5,10)        =         1.909759	     109.421147
	 B(9,5,10)        =         1.831577	     104.941655
	 B(11,8,12)       =         1.882969	     107.886165
	 B(11,8,13)       =         1.880892	     107.767186
	 B(12,8,13)       =         1.881731	     107.815261
	 D(1,2,3,5)       =        -0.950317	     -54.449161
	 D(1,2,3,6)       =        -3.091305	    -177.118740
	 D(1,2,3,7)       =         1.162300	      66.594860
	 D(2,3,5,8)       =         2.512717	     143.968093
	 D(2,3,5,9)       =         0.350972	      20.109218
	 D(2,3,5,10)      =        -1.643920	     -94.189701
	 D(3,5,8,11)      =        -1.087710	     -62.321187
	 D(3,5,8,12)      =         3.098897	     177.553740
	 D(3,5,8,13)      =         1.005542	      57.613296
	 D(4,2,3,5)       =         2.193265	     125.664816
	 D(4,2,3,6)       =         0.052277	       2.995237
	 D(4,2,3,7)       =        -1.977304	    -113.291163
	 D(6,3,5,8)       =        -1.677979	     -96.141121
	*D(6,3,5,9)       =         2.443461	     140.000003
	 D(6,3,5,10)      =         0.448569	      25.701084
	 D(7,3,5,8)       =         0.431149	      24.702997
	 D(7,3,5,9)       =        -1.730597	     -99.155879
	 D(7,3,5,10)      =         2.557696	     146.545203
	 D(9,5,8,11)      =         1.074558	      61.567611
	 D(9,5,8,12)      =        -1.022021	     -58.557462
	 D(9,5,8,13)      =        -3.115376	    -178.497906
	 D(10,5,8,11)     =         3.078349	     176.376429
	 D(10,5,8,12)     =         0.981771	      56.251357
	 D(10,5,8,13)     =        -1.111584	     -63.689088

	Current energy   :      -230.9817310572

	Energy change for the previous step:
		Projected    :         0.0000002068
		Actual       :        -0.0000001296

	Performing BFGS update.
	Previous computed or guess Hessian on step 1.
	Steps to be used in Hessian update: 7 6
	Taking RFO optimization step.
	Going to follow RFO solution 1.
	Rejecting RFO root 1 because normalization gives large value.
	Rejecting RFO root 2 because normalization gives large value.
	Rejecting RFO root 3 because normalization gives large value.
	Using RFO vector 4.
	Norm of target step-size    0.00456
	Projected energy change by RFO approximation:         0.0000003987

	Back-transformation to cartesian coordinates...
	Successfully converged to displaced geometry.

	Back-transformation to cartesian coordinates to adjust frozen coordinates...
	Successfully converged to displaced geometry.

	--- Internal Coordinate Step in ANG or DEG, aJ/ANG or AJ/DEG ---
	 ---------------------------------------------------------------------------
	   Coordinate                Previous        Force       Change         New 
	   ----------                --------       ------       ------       ------
	    1 R(1,2)          =      1.096878     0.000036     0.000005     1.096883
	    2 R(2,3)          =      1.509196     0.000012    -0.000026     1.509170
	    3 R(2,4)          =      1.187866     0.000034     0.000002     1.187868
	    4 R(3,5)          =      1.543108    -0.000043     0.000017     1.543125
	    5 R(3,6)          =      1.082857    -0.000025    -0.000004     1.082853
	    6 R(3,7)          =      1.088558    -0.000034    -0.000008     1.088550
	    7 R(5,8)          =      1.526925    -0.000045    -0.000002     1.526923
	    8 R(5,9)          =      1.088040    -0.000011    -0.000004     1.088036
	    9 R(5,10)         =      1.085709    -0.000019    -0.000013     1.085696
	   10 R(8,11)         =      1.086061    -0.000020     0.000003     1.086063
	   11 R(8,12)         =      1.085014     0.000026     0.000004     1.085017
	   12 R(8,13)         =      1.085941    -0.000009     0.000001     1.085942
	   13 B(1,2,3)        =    115.086347     0.000000    -0.001278   115.085069
	   14 B(1,2,4)        =    120.198626    -0.000001    -0.001138   120.197489
	   15 B(2,3,5)        =    112.038460    -0.000002    -0.002206   112.036254
	   16 B(2,3,6)        =    106.883320     0.000002     0.006383   106.889703
	   17 B(2,3,7)        =    107.181605     0.000001     0.020112   107.201717
	   18 B(3,2,4)        =    124.714929     0.000001     0.002444   124.717373
	   19 B(3,5,8)        =    113.524749     0.000000    -0.000175   113.524573
	   20 B(3,5,9)        =    110.092376    -0.000001     0.009606   110.101982
	   21 B(3,5,10)       =    108.454303    -0.000000    -0.005459   108.448844
	   22 B(5,3,6)        =    111.703931    -0.000001    -0.005502   111.698429
	   23 B(5,3,7)        =    110.233098     0.000000    -0.011069   110.222029
	   24 B(5,8,11)       =    111.147986    -0.000000     0.001509   111.149495
	   25 B(5,8,12)       =    111.065791    -0.000000    -0.003133   111.062658
	   26 B(5,8,13)       =    111.005564    -0.000000    -0.000151   111.005413
	   27 B(6,3,7)        =    108.606531     0.000000    -0.006367   108.600164
	   28 B(8,5,9)        =    110.037381     0.000000     0.001044   110.038425
	   29 B(8,5,10)       =    109.421147     0.000000    -0.014916   109.406231
	   30 B(9,5,10)       =    104.941655     0.000000     0.010381   104.952036
	   31 B(11,8,12)      =    107.886165     0.000000     0.000531   107.886696
	   32 B(11,8,13)      =    107.767186     0.000000     0.001161   107.768347
	   33 B(12,8,13)      =    107.815261     0.000000     0.000185   107.815446
	   34 D(1,2,3,5)      =    -54.449161    -0.000000    -0.094161   -54.543322
	   35 D(1,2,3,6)      =   -177.118740     0.000000    -0.090258  -177.208998
	   36 D(1,2,3,7)      =     66.594860    -0.000000    -0.095939    66.498922
	   37 D(2,3,5,8)      =    143.968093     0.000000     0.005811   143.973905
	   38 D(2,3,5,9)      =     20.109218     0.000000    -0.002827    20.106391
	   39 D(2,3,5,10)     =    -94.189701     0.000000    -0.017271   -94.206971
	   40 D(3,5,8,11)     =    -62.321187     0.000000    -0.001117   -62.322304
	   41 D(3,5,8,12)     =    177.553740     0.000000    -0.000698   177.553042
	   42 D(3,5,8,13)     =     57.613296     0.000000     0.001253    57.614548
	   43 D(4,2,3,5)      =    125.664816    -0.000000    -0.112012   125.552803
	   44 D(4,2,3,6)      =      2.995237     0.000000    -0.108109     2.887127
	   45 D(4,2,3,7)      =   -113.291163    -0.000000    -0.113790  -113.404953
	   46 D(6,3,5,8)      =    -96.141121     0.000000     0.008638   -96.132484
	   47 *D(6,3,5,9)     =    140.000003    -0.000000    -0.000000   140.000003
	   48 D(6,3,5,10)     =     25.701084     0.000000    -0.014444    25.686641
	   49 D(7,3,5,8)      =     24.702997    -0.000000    -0.010657    24.692340
	   50 D(7,3,5,9)      =    -99.155879    -0.000000    -0.019295   -99.175174
	   51 D(7,3,5,10)     =    146.545203     0.000000    -0.033738   146.511464
	   52 D(9,5,8,11)     =     61.567611    -0.000000     0.012175    61.579786
	   53 D(9,5,8,12)     =    -58.557462    -0.000000     0.012594   -58.544867
	   54 D(9,5,8,13)     =   -178.497906    -0.000000     0.014545  -178.483361
	   55 D(10,5,8,11)    =    176.376429     0.000000     0.016804   176.393233
	   56 D(10,5,8,12)    =     56.251357     0.000000     0.017223    56.268579
	   57 D(10,5,8,13)    =    -63.689088     0.000000     0.019173   -63.669914
	 ---------------------------------------------------------------------------

  ==> Convergence Check <==

  Measures of convergence in internal coordinates in au.
  Criteria marked as inactive (o), active & met (*), and active & unmet ( ).
  ---------------------------------------------------------------------------------------------
   Step     Total Energy     Delta E     MAX Force     RMS Force      MAX Disp      RMS Disp   
  ---------------------------------------------------------------------------------------------
    Convergence Criteria    1.00e-06 *    3.00e-04 *             o    1.20e-03 *             o
  ---------------------------------------------------------------------------------------------
      8    -230.98173106   -1.30e-07 *    2.99e-05 *    6.88e-06 o    1.99e-03      6.04e-04 o  ~
  ---------------------------------------------------------------------------------------------


  **** Optimization is complete! (in 8 steps) ****

  ==> Optimization Summary <==

  Measures of convergence in internal coordinates in au.
  --------------------------------------------------------------------------------------------------------------- ~
   Step         Total Energy             Delta E       MAX Force       RMS Force        MAX Disp        RMS Disp  ~
  --------------------------------------------------------------------------------------------------------------- ~
      1    -230.981339827201   -230.981339827201      0.00656112      0.00130205      0.08705524      0.03223804  ~
      2    -230.981656406897     -0.000316579696      0.00352934      0.00069189      0.05681065      0.02125033  ~
      3    -230.981318884586      0.000337522311      0.00295863      0.00097600      0.05302370      0.01668850  ~
      4    -230.981716293317     -0.000397408731      0.00146956      0.00031585      0.01595940      0.00575353  ~
      5    -230.981726927314     -0.000010633998      0.00061787      0.00012027      0.02094059      0.00778339  ~
      6    -230.981729790541     -0.000002863226      0.00010982      0.00003796      0.00764864      0.00299425  ~
      7    -230.981730927592     -0.000001137052      0.00006256      0.00001997      0.00198740      0.00056965  ~
      8    -230.981731057199     -0.000000129607      0.00002993      0.00000688      0.00198600      0.00060394  ~
  --------------------------------------------------------------------------------------------------------------- ~

	Writing optimization data to binary file.
	Final energy is   -230.9817310571994
	Final (previous) structure:
	Cartesian Geometry (in Angstrom)
	    H    -0.1636400057   1.3150353427  -1.3674854614
	    C     0.5706570496   1.0732403488  -0.5893568566
	    C     0.4496525259  -0.3124404240  -0.0037638829
	    O     1.3844974467   1.8757134235  -0.2657432333
	    C    -0.9697506732  -0.5922582830   0.5330603781
	    H     1.1956880489  -0.3900474833   0.7772528605
	    H     0.6992647645  -1.0183744041  -0.7938959432
	    C    -1.4279884200  -2.0334497283   0.3221440495
	    H    -1.6822471640   0.0952766178   0.0819766885
	    H    -0.9883965812  -0.3590034892   1.5932527771
	    H    -1.4807569288  -2.2771083645  -0.7349150280
	    H    -2.4110434399  -2.1968789861   0.7512692874
	    H    -0.7410305859  -2.7326913396   0.7894972012
	Saving final (previous) structure.
			--------------------------
			 OPTKING Finished Execution 
			--------------------------

    Final optimized geometry and variables:
    Molecular point group: c1
    Full point group: C1

    Geometry (in Angstrom), charge = 0, multiplicity = 1:

    H           -0.163639993183     1.315035242254    -1.367485357010
    C            0.570657006006     1.073240266801    -0.589356811630
    C            0.449652491551    -0.312440400097    -0.003763882653
    O            1.384497340967     1.875713280303    -0.265743212960
    C           -0.969750599166    -0.592258237786     0.533060337415
    H            1.195687957604    -0.390047453493     0.777252801166
    H            0.699264711066    -1.018374326305    -0.793895882586
    C           -1.427988310978    -2.033449573027     0.322144024931
    H           -1.682247035526     0.095276610517     0.081976682215
    H           -0.988396505688    -0.359003461794     1.593252655441
    H           -1.480756815722    -2.277108190572    -0.734914971864
    H           -2.411043255803    -2.196878818370     0.751269230040
    H           -0.741030529317    -2.732691130873     0.789497140949

	Cleaning optimization helper files.


Properties will be evaluated at   0.000000,   0.000000,   0.000000 Bohr

Properties computed using the  density matrix

  Nuclear Dipole Moment: (a.u.)
     X:    -5.2171      Y:    -7.0818      Z:     1.0271

  Electronic Dipole Moment: (a.u.)
     X:     4.4283      Y:     6.1499      Z:    -1.1763

  Dipole Moment: (a.u.)
     X:    -0.7888      Y:    -0.9319      Z:    -0.1492     Total:     1.2300

  Dipole Moment: (Debye)
     X:    -2.0048      Y:    -2.3687      Z:    -0.3792     Total:     3.1263

  Quadrupole Moment: (Debye Ang)
    XX:   -34.8374     YY:   -37.4179     ZZ:   -30.3022
    XY:    -4.9047     XZ:     0.0566     YZ:    -0.1646

  Traceless Quadrupole Moment: (Debye Ang)
    XX:    -0.6516     YY:    -3.2321     ZZ:     3.8836
    XY:    -4.9047     XZ:     0.0566     YZ:    -0.1646

  Mulliken Charges: (a.u.)
   Center  Symbol    Alpha    Beta     Spin     Total
       1     H     0.43215  0.43215  0.00000  0.13570
       2     C     2.83273  2.83273  0.00000  0.33453
       3     C     3.20823  3.20823  0.00000 -0.41646
       4     O     4.23666  4.23666  0.00000 -0.47331
       5     C     3.16641  3.16641  0.00000 -0.33281
       6     H     0.39728  0.39728  0.00000  0.20545
       7     H     0.40768  0.40768  0.00000  0.18464
       8     C     3.24023  3.24023  0.00000 -0.48045
       9     H     0.41680  0.41680  0.00000  0.16640
      10     H     0.40977  0.40977  0.00000  0.18046
      11     H     0.41973  0.41973  0.00000  0.16053
      12     H     0.41525  0.41525  0.00000  0.16950
      13     H     0.41709  0.41709  0.00000  0.16582

   Total alpha = 20.00000, Total beta = 20.00000, Total charge =  0.00000


*** PSI4 exiting successfully. Buy a developer a beer!
