    -----------------------------------------------------------------------
          Psi4: An Open-Source Ab Initio Electronic Structure Package
                              Psi4 (no tag) Driver

                          Git: Rev {detached?}  

    J. M. Turney, A. C. Simmonett, R. M. Parrish, E. G. Hohenstein,
    F. A. Evangelista, J. T. Fermann, B. J. Mintz, L. A. Burns, J. J. Wilke,
    M. L. Abrams, N. J. Russ, M. L. Leininger, C. L. Janssen, E. T. Seidl,
    W. D. Allen, H. F. Schaefer, R. A. King, E. F. Valeev, C. D. Sherrill,
    and T. D. Crawford, WIREs Comput. Mol. Sci. 2, 556-565 (2012)
    (doi: 10.1002/wcms.93)

                         Additional Contributions by
    A. E. DePrince, M. Saitow, U. Bozkaya, A. Yu. Sokolov
    -----------------------------------------------------------------------


    Psi4 started on: Thu Sep  1 22:18:31 2016

    Process ID:  31622
    PSI4DATADIR: /export131/home/mjharvey/miniconda3/share
    Memory level set to 256.000 MB

  ==> Input File <==

--------------------------------------------------------------------------
set {
	reference rhf
	basis 6-31G*
}


set_num_threads( 1 )
memory 2 gb

molecule MOL {
0 1

H	 2.121956	 -1.182019	 0.891705
O	 2.016064	 -0.864478	 0.000222
C	 1.050492	 0.053836	 0.000068
C	 -0.318135	 -0.576402	 0.000164
O	 1.285279	 1.218255	 -0.000078
C	 -1.454360	 0.441875	 -0.000474
H	 -0.374042	 -1.230163	 -0.866135
H	 -0.374274	 -1.229227	 0.867154
C	 -2.826123	 -0.230780	 0.000056
H	 -1.357605	 1.085198	 -0.868380
H	 -1.357504	 1.086451	 0.866496
H	 -2.959731	 -0.858053	 -0.876869
H	 -3.619374	 0.509403	 -0.000080
H	 -2.959371	 -0.857318	 0.877556

	symmetry c1
}
set optking {
	frozen_dihedral = ("
		7 4 6 10,
		2 3 4 7
	")
}

ee = energy('scf')
oeprop('DIPOLE', 'QUADRUPOLE', 'MULLIKEN_CHARGES')
f=open( 'psi4out.xyz', 'w' )
f.write( "14  " )
f.write( str(ee) + "\n" )
f.write( MOL.save_string_xyz() )
f.close()
--------------------------------------------------------------------------

  Memory set to   2.000 GiB by Python script.

*** tstart() called on cx1-3-4-3.cx1.hpc.ic.ac.uk
*** at Thu Sep  1 22:18:31 2016


         ---------------------------------------------------------
                                   SCF
            by Justin Turney, Rob Parrish, and Andy Simmonett
                              RHF Reference
                        1 Threads,   2000 MiB Core
         ---------------------------------------------------------

  ==> Geometry <==

    Molecular point group: c1
    Full point group: C1

    Geometry (in Angstrom), charge = 0, multiplicity = 1:

       Center              X                  Y                   Z               Mass       
    ------------   -----------------  -----------------  -----------------  -----------------
           H          2.130336160637    -1.173209649111     0.881500921882     1.007825032070
           O          2.024444160637    -0.855668649111    -0.009982078118    15.994914619560
           C          1.058872160637     0.062645350889    -0.010136078118    12.000000000000
           C         -0.309754839363    -0.567592649111    -0.010040078118    12.000000000000
           O          1.293659160637     1.227064350889    -0.010282078118    15.994914619560
           C         -1.445979839363     0.450684350889    -0.010678078118    12.000000000000
           H         -0.365661839363    -1.221353649111    -0.876339078118     1.007825032070
           H         -0.365893839363    -1.220417649111     0.856949921882     1.007825032070
           C         -2.817742839363    -0.221970649111    -0.010148078118    12.000000000000
           H         -1.349224839363     1.094007350889    -0.878584078118     1.007825032070
           H         -1.349123839363     1.095260350889     0.856291921882     1.007825032070
           H         -2.951350839363    -0.849243649111    -0.887073078118     1.007825032070
           H         -3.610993839363     0.518212350889    -0.010284078118     1.007825032070
           H         -2.950990839363    -0.848508649111     0.867351921882     1.007825032070

  Running in c1 symmetry.

  Rotational constants: A =      0.29774  B =      0.06201  C =      0.05304 [cm^-1]
  Rotational constants: A =   8925.92671  B =   1858.97715  C =   1590.20631 [MHz]
  Nuclear repulsion =  240.103766108553287

  Charge       = 0
  Multiplicity = 1
  Electrons    = 48
  Nalpha       = 24
  Nbeta        = 24

  ==> Algorithm <==

  SCF Algorithm Type is DF.
  DIIS enabled.
  MOM disabled.
  Fractional occupation disabled.
  Guess Type is CORE.
  Energy threshold   = 1.00e-06
  Density threshold  = 1.00e-06
  Integral threshold = 0.00e+00

  ==> Primary Basis <==

  Basis Set: 6-31G*
    Number of shells: 52
    Number of basis function: 106
    Number of Cartesian functions: 106
    Spherical Harmonics?: false
    Max angular momentum: 2

  ==> Pre-Iterations <==

   -------------------------------------------------------
    Irrep   Nso     Nmo     Nalpha   Nbeta   Ndocc  Nsocc
   -------------------------------------------------------
     A        106     106       0       0       0       0
   -------------------------------------------------------
    Total     106     106      24      24      24       0
   -------------------------------------------------------

 OEINTS: Overlap, kinetic, potential, dipole, and quadrupole integrals
         stored in file 35.

  ==> Integral Setup <==

  ==> DFJK: Density-Fitted J/K Matrices <==

    J tasked:                  Yes
    K tasked:                  Yes
    wK tasked:                  No
    OpenMP threads:              1
    Integrals threads:           1
    Memory (MB):              1430
    Algorithm:                Core
    Integral Cache:           NONE
    Schwarz Cutoff:          1E-12
    Fitting Condition:       1E-12

   => Auxiliary Basis Set <=

  Basis Set: 
    Number of shells: 216
    Number of basis function: 686
    Number of Cartesian functions: 686
    Spherical Harmonics?: false
    Max angular momentum: 3

  Minimum eigenvalue in the overlap matrix is 3.2622995535E-03.
  Using Symmetric Orthogonalization.
  SCF Guess: Core (One-Electron) Hamiltonian.

  ==> Iterations <==

                           Total Energy        Delta E     RMS |[F,P]|

   @DF-RHF iter   1:  -241.96670598467321   -2.41967e+02   7.38446e-02 
   @DF-RHF iter   2:  -135.47212782094576    1.06495e+02   9.51896e-02 DIIS
   @DF-RHF iter   3:  -284.60628886251766   -1.49134e+02   3.10356e-02 DIIS
   @DF-RHF iter   4:  -207.39378157266484    7.72125e+01   9.52765e-02 DIIS
   @DF-RHF iter   5:  -230.72323120076575   -2.33294e+01   8.19345e-02 DIIS
   @DF-RHF iter   6:  -243.10597198445274   -1.23827e+01   7.09781e-02 DIIS
   @DF-RHF iter   7:  -248.37184532933568   -5.26587e+00   6.33939e-02 DIIS
   @DF-RHF iter   8:  -276.20557770252719   -2.78337e+01   4.91093e-02 DIIS
   @DF-RHF iter   9:  -280.21595232693960   -4.01037e+00   4.36324e-02 DIIS
   @DF-RHF iter  10:  -289.57447496983491   -9.35852e+00   3.51249e-02 DIIS
   @DF-RHF iter  11:  -303.50684216267575   -1.39324e+01   1.71584e-02 DIIS
   @DF-RHF iter  12:  -305.55216305401689   -2.04532e+00   6.88403e-03 DIIS
   @DF-RHF iter  13:  -305.79522285076951   -2.43060e-01   3.06605e-03 DIIS
   @DF-RHF iter  14:  -305.84388095181851   -4.86581e-02   1.23892e-03 DIIS
   @DF-RHF iter  15:  -305.85564035874052   -1.17594e-02   5.08201e-04 DIIS
   @DF-RHF iter  16:  -305.85711457409013   -1.47422e-03   1.81277e-04 DIIS
   @DF-RHF iter  17:  -305.85737573097754   -2.61157e-04   6.51625e-05 DIIS
   @DF-RHF iter  18:  -305.85741357501490   -3.78440e-05   1.34991e-05 DIIS
   @DF-RHF iter  19:  -305.85741577001397   -2.19500e-06   3.25476e-06 DIIS
   @DF-RHF iter  20:  -305.85741595301636   -1.83002e-07   1.53925e-06 DIIS
   @DF-RHF iter  21:  -305.85741599488836   -4.18720e-08   6.30496e-07 DIIS

  ==> Post-Iterations <==

    Orbital Energies (a.u.)
    -----------------------

    Doubly Occupied:                                                      

       1A    -20.599281     2A    -20.560618     3A    -11.380466  
       4A    -11.243903     5A    -11.226986     6A    -11.218874  
       7A     -1.469150     8A     -1.370121     9A     -1.084231  
      10A     -0.977112    11A     -0.852003    12A     -0.803931  
      13A     -0.715065    14A     -0.678080    15A     -0.664314  
      16A     -0.634595    17A     -0.579743    18A     -0.561386  
      19A     -0.544984    20A     -0.502609    21A     -0.497426  
      22A     -0.484968    23A     -0.480269    24A     -0.444349  

    Virtual:                                                              

      25A      0.168683    26A      0.206370    27A      0.234533  
      28A      0.284856    29A      0.287580    30A      0.301612  
      31A      0.325823    32A      0.337149    33A      0.352228  
      34A      0.391033    35A      0.415026    36A      0.454330  
      37A      0.522922    38A      0.557480    39A      0.730683  
      40A      0.735710    41A      0.749680    42A      0.757593  
      43A      0.782121    44A      0.840355    45A      0.862652  
      46A      0.933795    47A      0.951979    48A      0.956706  
      49A      1.026469    50A      1.050885    51A      1.061372  
      52A      1.102384    53A      1.116994    54A      1.128772  
      55A      1.160319    56A      1.173063    57A      1.191735  
      58A      1.215165    59A      1.220516    60A      1.235463  
      61A      1.254894    62A      1.269510    63A      1.325921  
      64A      1.348243    65A      1.396337    66A      1.440824  
      67A      1.628175    68A      1.639061    69A      1.693425  
      70A      1.771696    71A      1.812397    72A      1.904622  
      73A      1.983535    74A      2.007854    75A      2.051766  
      76A      2.064330    77A      2.101718    78A      2.132848  
      79A      2.145099    80A      2.252745    81A      2.265889  
      82A      2.280882    83A      2.290832    84A      2.362889  
      85A      2.369897    86A      2.462100    87A      2.544555  
      88A      2.636895    89A      2.677548    90A      2.696106  
      91A      2.732710    92A      2.791338    93A      2.848538  
      94A      2.941245    95A      2.991268    96A      3.013558  
      97A      3.164406    98A      3.268509    99A      3.386311  
     100A      3.501568   101A      4.249218   102A      4.511690  
     103A      4.572913   104A      4.707158   105A      4.818800  
     106A      4.975568  

    Final Occupation by Irrep:
              A 
    DOCC [    24 ]

  Energy converged.

  @DF-RHF Final Energy:  -305.85741599488836

   => Energetics <=

    Nuclear Repulsion Energy =            240.1037661085532875
    One-Electron Energy =                -892.7734933869498946
    Two-Electron Energy =                 346.8123112835079382
    DFT Exchange-Correlation Energy =       0.0000000000000000
    Empirical Dispersion Energy =           0.0000000000000000
    PCM Polarization Energy =               0.0000000000000000
    EFP Energy =                            0.0000000000000000
    Total Energy =                       -305.8574159948886972

    Alert: EFP and PCM quantities not currently incorporated into SCF psivars.

Properties will be evaluated at   0.000000,   0.000000,   0.000000 Bohr
  ==> Properties <==


Properties computed using the SCF density matrix

  Nuclear Dipole Moment: (a.u.)
     X:   -10.1208      Y:    -2.4406      Z:     0.7591

  Electronic Dipole Moment: (a.u.)
     X:     9.4640      Y:     1.3923      Z:    -0.1343

  Dipole Moment: (a.u.)
     X:    -0.6569      Y:    -1.0482      Z:     0.6248     Total:     1.3859

  Dipole Moment: (Debye)
     X:    -1.6696      Y:    -2.6644      Z:     1.5881     Total:     3.5225


  Saving occupied orbitals to File 180.

*** tstop() called on cx1-3-4-3.cx1.hpc.ic.ac.uk at Thu Sep  1 22:18:39 2016
Module time:
	user time   =       7.25 seconds =       0.12 minutes
	system time =       0.06 seconds =       0.00 minutes
	total time  =          8 seconds =       0.13 minutes
Total time:
	user time   =       7.25 seconds =       0.12 minutes
	system time =       0.06 seconds =       0.00 minutes
	total time  =          8 seconds =       0.13 minutes


Properties will be evaluated at   0.000000,   0.000000,   0.000000 Bohr

Properties computed using the  density matrix

  Nuclear Dipole Moment: (a.u.)
     X:   -10.1208      Y:    -2.4406      Z:     0.7591

  Electronic Dipole Moment: (a.u.)
     X:     9.4640      Y:     1.3923      Z:    -0.1343

  Dipole Moment: (a.u.)
     X:    -0.6569      Y:    -1.0482      Z:     0.6248     Total:     1.3859

  Dipole Moment: (Debye)
     X:    -1.6696      Y:    -2.6644      Z:     1.5881     Total:     3.5225

  Quadrupole Moment: (Debye Ang)
    XX:   -40.1473     YY:   -39.5730     ZZ:   -33.7450
    XY:    -3.9770     XZ:     3.9357     YZ:    -2.2065

  Traceless Quadrupole Moment: (Debye Ang)
    XX:    -2.3255     YY:    -1.7512     ZZ:     4.0768
    XY:    -3.9770     XZ:     3.9357     YZ:    -2.2065

  Mulliken Charges: (a.u.)
   Center  Symbol    Alpha    Beta     Spin     Total
       1     H     0.26610  0.26610  0.00000  0.46781
       2     O     4.35624  4.35624  0.00000 -0.71249
       3     C     2.63419  2.63419  0.00000  0.73162
       4     C     3.21034  3.21034  0.00000 -0.42067
       5     O     4.25143  4.25143  0.00000 -0.50285
       6     C     3.15295  3.15295  0.00000 -0.30591
       7     H     0.39676  0.39676  0.00000  0.20647
       8     H     0.41231  0.41231  0.00000  0.17539
       9     C     3.24279  3.24279  0.00000 -0.48558
      10     H     0.40845  0.40845  0.00000  0.18310
      11     H     0.41154  0.41154  0.00000  0.17692
      12     H     0.42052  0.42052  0.00000  0.15897
      13     H     0.41415  0.41415  0.00000  0.17169
      14     H     0.42223  0.42223  0.00000  0.15554

   Total alpha = 24.00000, Total beta = 24.00000, Total charge = -0.00000


*** PSI4 exiting successfully. Buy a developer a beer!
