    -----------------------------------------------------------------------
          Psi4: An Open-Source Ab Initio Electronic Structure Package
                              Psi4 (no tag) Driver

                          Git: Rev {detached?}  

    J. M. Turney, A. C. Simmonett, R. M. Parrish, E. G. Hohenstein,
    F. A. Evangelista, J. T. Fermann, B. J. Mintz, L. A. Burns, J. J. Wilke,
    M. L. Abrams, N. J. Russ, M. L. Leininger, C. L. Janssen, E. T. Seidl,
    W. D. Allen, H. F. Schaefer, R. A. King, E. F. Valeev, C. D. Sherrill,
    and T. D. Crawford, WIREs Comput. Mol. Sci. 2, 556-565 (2012)
    (doi: 10.1002/wcms.93)

                         Additional Contributions by
    A. E. DePrince, M. Saitow, U. Bozkaya, A. Yu. Sokolov
    -----------------------------------------------------------------------


    Psi4 started on: Fri Sep  2 13:10:07 2016

    Process ID:  30656
    PSI4DATADIR: /export131/home/mjharvey/miniconda3/share
    Memory level set to 256.000 MB

  ==> Input File <==

--------------------------------------------------------------------------
set {
	reference rhf
	basis 6-31G*
}


set_num_threads( 4 )
memory 2 gb

molecule MOL {
0 1

H	 2.845955	 -0.323208	 0.022310
C	 1.900140	 0.071967	 -0.330070
C	 0.778463	 -0.508087	 0.517968
H	 1.782469	 -0.206877	 -1.370777
H	 1.922247	 1.149867	 -0.254252
N	 -0.540928	 0.005139	 0.058438
H	 0.716718	 -1.581298	 0.454712
H	 0.859711	 -0.198647	 1.550086
O	 -1.519591	 -0.502251	 0.510154
O	 -0.526495	 0.896461	 -0.735185

	symmetry c1
}
set optking {
	frozen_dihedral = ("
		9 6 3 2
	")
}

ee = optimize('scf')
oeprop('DIPOLE', 'QUADRUPOLE', 'MULLIKEN_CHARGES')
f=open( 'psi4out.xyz', 'w' )
f.write( "10  " )
f.write( str(ee) + "\n" )
f.write( MOL.save_string_xyz() )
f.close()
--------------------------------------------------------------------------

  Memory set to   2.000 GiB by Python script.
gradient() will perform analytic gradient computation.

*** tstart() called on cx1-1-4-2.cx1.hpc.ic.ac.uk
*** at Fri Sep  2 13:10:07 2016


         ---------------------------------------------------------
                                   SCF
            by Justin Turney, Rob Parrish, and Andy Simmonett
                              RHF Reference
                        4 Threads,   2000 MiB Core
         ---------------------------------------------------------

  ==> Geometry <==

    Molecular point group: c1
    Full point group: C1

    Geometry (in Angstrom), charge = 0, multiplicity = 1:

       Center              X                  Y                   Z               Mass       
    ------------   -----------------  -----------------  -----------------  -----------------
           H          2.845524448817    -0.322869954718     0.023923160600     1.007825032070
           C          1.899709448817     0.072305045282    -0.328456839400    12.000000000000
           C          0.778032448817    -0.507748954718     0.519581160600    12.000000000000
           H          1.782038448817    -0.206538954718    -1.369163839400     1.007825032070
           H          1.921816448817     1.150205045282    -0.252638839400     1.007825032070
           N         -0.541358551183     0.005477045282     0.060051160600    14.003074004780
           H          0.716287448817    -1.580959954718     0.456325160600     1.007825032070
           H          0.859280448817    -0.198308954718     1.551699160600     1.007825032070
           O         -1.520021551183    -0.501912954718     0.511767160600    15.994914619560
           O         -0.526925551183     0.896799045282    -0.733571839400    15.994914619560

  Running in c1 symmetry.

  Rotational constants: A =      0.37698  B =      0.14385  C =      0.10872 [cm^-1]
  Rotational constants: A =  11301.44133  B =   4312.53836  C =   3259.48140 [MHz]
  Nuclear repulsion =  186.798323894109302

  Charge       = 0
  Multiplicity = 1
  Electrons    = 40
  Nalpha       = 20
  Nbeta        = 20

  ==> Algorithm <==

  SCF Algorithm Type is DF.
  DIIS enabled.
  MOM disabled.
  Fractional occupation disabled.
  Guess Type is CORE.
  Energy threshold   = 1.00e-08
  Density threshold  = 1.00e-08
  Integral threshold = 0.00e+00

  ==> Primary Basis <==

  Basis Set: 6-31G*
    Number of shells: 40
    Number of basis function: 85
    Number of Cartesian functions: 85
    Spherical Harmonics?: false
    Max angular momentum: 2

  ==> Pre-Iterations <==

   -------------------------------------------------------
    Irrep   Nso     Nmo     Nalpha   Nbeta   Ndocc  Nsocc
   -------------------------------------------------------
     A         85      85       0       0       0       0
   -------------------------------------------------------
    Total      85      85      20      20      20       0
   -------------------------------------------------------

 OEINTS: Overlap, kinetic, potential, dipole, and quadrupole integrals
         stored in file 35.

  ==> Integral Setup <==

  ==> DFJK: Density-Fitted J/K Matrices <==

    J tasked:                  Yes
    K tasked:                  Yes
    wK tasked:                  No
    OpenMP threads:              4
    Integrals threads:           4
    Memory (MB):              1430
    Algorithm:                Core
    Integral Cache:           NONE
    Schwarz Cutoff:          1E-12
    Fitting Condition:       1E-12

   => Auxiliary Basis Set <=

  Basis Set: 
    Number of shells: 165
    Number of basis function: 530
    Number of Cartesian functions: 530
    Spherical Harmonics?: false
    Max angular momentum: 3

  Minimum eigenvalue in the overlap matrix is 3.1504729319E-03.
  Using Symmetric Orthogonalization.
  SCF Guess: Core (One-Electron) Hamiltonian.

  ==> Iterations <==

                           Total Energy        Delta E     RMS |[F,P]|

   @DF-RHF iter   1:  -233.56437889442597   -2.33564e+02   8.48717e-02 
   @DF-RHF iter   2:  -169.24346930376512    6.43209e+01   1.00139e-01 DIIS
   @DF-RHF iter   3:  -269.37065953082720   -1.00127e+02   3.47549e-02 DIIS
   @DF-RHF iter   4:  -254.86913584171506    1.45015e+01   6.26944e-02 DIIS
   @DF-RHF iter   5:  -281.87248255346287   -2.70033e+01   1.46721e-02 DIIS
   @DF-RHF iter   6:  -282.40847723396064   -5.35995e-01   8.79678e-03 DIIS
   @DF-RHF iter   7:  -282.61929350383184   -2.10816e-01   4.43502e-03 DIIS
   @DF-RHF iter   8:  -282.68827188837020   -6.89784e-02   1.42581e-03 DIIS
   @DF-RHF iter   9:  -282.69791566817696   -9.64378e-03   5.12418e-04 DIIS
   @DF-RHF iter  10:  -282.69898111071029   -1.06544e-03   2.01795e-04 DIIS
   @DF-RHF iter  11:  -282.69923464293856   -2.53532e-04   5.93000e-05 DIIS
   @DF-RHF iter  12:  -282.69927174368399   -3.71007e-05   3.27921e-05 DIIS
   @DF-RHF iter  13:  -282.69927850633883   -6.76265e-06   1.38008e-05 DIIS
   @DF-RHF iter  14:  -282.69927997674802   -1.47041e-06   3.21520e-06 DIIS
   @DF-RHF iter  15:  -282.69928010292836   -1.26180e-07   8.11698e-07 DIIS
   @DF-RHF iter  16:  -282.69928010914975   -6.22140e-09   1.68379e-07 DIIS
   @DF-RHF iter  17:  -282.69928010941351   -2.63753e-10   5.33301e-08 DIIS
   @DF-RHF iter  18:  -282.69928010944966   -3.61524e-11   1.90481e-08 DIIS
   @DF-RHF iter  19:  -282.69928010945625   -6.59384e-12   8.31783e-09 DIIS

  ==> Post-Iterations <==

    Orbital Energies (a.u.)
    -----------------------

    Doubly Occupied:                                                      

       1A    -20.603867     2A    -20.601700     3A    -15.850136  
       4A    -11.305032     5A    -11.244068     6A     -1.633336  
       7A     -1.419101     8A     -1.126230     9A     -0.964638  
      10A     -0.832132    11A     -0.762118    12A     -0.751518  
      13A     -0.727774    14A     -0.638812    15A     -0.591037  
      16A     -0.559299    17A     -0.541461    18A     -0.486752  
      19A     -0.479186    20A     -0.450357  

    Virtual:                                                              

      21A      0.118428    22A      0.220462    23A      0.271225  
      24A      0.284632    25A      0.294662    26A      0.323726  
      27A      0.330644    28A      0.375592    29A      0.526953  
      30A      0.598490    31A      0.687072    32A      0.705877  
      33A      0.745617    34A      0.794991    35A      0.834648  
      36A      0.858557    37A      0.928581    38A      1.001050  
      39A      1.017580    40A      1.070358    41A      1.092798  
      42A      1.105951    43A      1.123522    44A      1.159699  
      45A      1.171872    46A      1.193457    47A      1.228641  
      48A      1.245725    49A      1.305041    50A      1.306315  
      51A      1.333111    52A      1.379588    53A      1.581179  
      54A      1.678177    55A      1.709196    56A      1.732884  
      57A      1.821329    58A      1.985817    59A      2.035734  
      60A      2.095218    61A      2.106185    62A      2.139725  
      63A      2.172481    64A      2.195519    65A      2.283964  
      66A      2.331701    67A      2.366834    68A      2.402114  
      69A      2.506046    70A      2.563875    71A      2.633981  
      72A      2.661029    73A      2.815710    74A      2.834261  
      75A      2.866475    76A      3.070359    77A      3.219075  
      78A      3.281785    79A      3.311072    80A      3.501762  
      81A      4.095503    82A      4.203112    83A      4.274241  
      84A      4.607448    85A      4.838375  

    Final Occupation by Irrep:
              A 
    DOCC [    20 ]

  Energy converged.

  @DF-RHF Final Energy:  -282.69928010945625

   => Energetics <=

    Nuclear Repulsion Energy =            186.7983238941093020
    One-Electron Energy =                -755.8581049120748503
    Two-Electron Energy =                 286.3605009085093798
    DFT Exchange-Correlation Energy =       0.0000000000000000
    Empirical Dispersion Energy =           0.0000000000000000
    PCM Polarization Energy =               0.0000000000000000
    EFP Energy =                            0.0000000000000000
    Total Energy =                       -282.6992801094561401

    Alert: EFP and PCM quantities not currently incorporated into SCF psivars.

Properties will be evaluated at   0.000000,   0.000000,   0.000000 Bohr
  ==> Properties <==


Properties computed using the SCF density matrix

  Nuclear Dipole Moment: (a.u.)
     X:     7.6086      Y:    -1.0842      Z:     0.3833

  Electronic Dipole Moment: (a.u.)
     X:    -6.1375      Y:     0.6070      Z:     0.0371

  Dipole Moment: (a.u.)
     X:     1.4711      Y:    -0.4771      Z:     0.4203     Total:     1.6027

  Dipole Moment: (Debye)
     X:     3.7392      Y:    -1.2127      Z:     1.0684     Total:     4.0736


  Saving occupied orbitals to File 180.

*** tstop() called on cx1-1-4-2.cx1.hpc.ic.ac.uk at Fri Sep  2 13:10:10 2016
Module time:
	user time   =       5.82 seconds =       0.10 minutes
	system time =       0.10 seconds =       0.00 minutes
	total time  =          3 seconds =       0.05 minutes
Total time:
	user time   =       5.82 seconds =       0.10 minutes
	system time =       0.10 seconds =       0.00 minutes
	total time  =          3 seconds =       0.05 minutes

*** tstart() called on cx1-1-4-2.cx1.hpc.ic.ac.uk
*** at Fri Sep  2 13:10:10 2016


         ------------------------------------------------------------
                                   SCF GRAD                          
                          Rob Parrish, Justin Turney,                
                       Andy Simmonett, and Alex Sokolov              
         ------------------------------------------------------------

  ==> Geometry <==

    Molecular point group: c1
    Full point group: C1

    Geometry (in Angstrom), charge = 0, multiplicity = 1:

       Center              X                  Y                   Z               Mass       
    ------------   -----------------  -----------------  -----------------  -----------------
           H          2.845524448817    -0.322869954718     0.023923160600     1.007825032070
           C          1.899709448817     0.072305045282    -0.328456839400    12.000000000000
           C          0.778032448817    -0.507748954718     0.519581160600    12.000000000000
           H          1.782038448817    -0.206538954718    -1.369163839400     1.007825032070
           H          1.921816448817     1.150205045282    -0.252638839400     1.007825032070
           N         -0.541358551183     0.005477045282     0.060051160600    14.003074004780
           H          0.716287448817    -1.580959954718     0.456325160600     1.007825032070
           H          0.859280448817    -0.198308954718     1.551699160600     1.007825032070
           O         -1.520021551183    -0.501912954718     0.511767160600    15.994914619560
           O         -0.526925551183     0.896799045282    -0.733571839400    15.994914619560

  Nuclear repulsion =  186.798323894109245

  ==> Basis Set <==

  Basis Set: 6-31G*
    Number of shells: 40
    Number of basis function: 85
    Number of Cartesian functions: 85
    Spherical Harmonics?: false
    Max angular momentum: 2

  ==> DFJKGrad: Density-Fitted SCF Gradients <==

    Gradient:                    1
    J tasked:                  Yes
    K tasked:                  Yes
    wK tasked:                  No
    OpenMP threads:              4
    Integrals threads:           4
    Memory (MB):              1430
    Schwarz Cutoff:          0E+00
    Fitting Condition:       1E-12

   => Auxiliary Basis Set <=

  Basis Set: 
    Number of shells: 165
    Number of basis function: 530
    Number of Cartesian functions: 530
    Spherical Harmonics?: false
    Max angular momentum: 3


  -Total Gradient:
     Atom            X                  Y                   Z
    ------   -----------------  -----------------  -----------------
       1       -0.000413708430     0.000463136972    -0.000963710442
       2       -0.001700511763     0.004123725576    -0.001538612632
       3       -0.005812042542    -0.007088471018     0.005255307296
       4       -0.000401848961    -0.001488079667    -0.001258345598
       5       -0.000803977043     0.000848726747     0.000946406263
       6       -0.000056297422    -0.003350205883     0.006414532030
       7        0.001672734385     0.001472005141    -0.002535945422
       8        0.001883460348     0.003060570708    -0.001467343704
       9       -0.001275724729     0.001152885321    -0.002252950754
      10        0.006907916161     0.000805706102    -0.002599337036


*** tstop() called on cx1-1-4-2.cx1.hpc.ic.ac.uk at Fri Sep  2 13:10:12 2016
Module time:
	user time   =       8.14 seconds =       0.14 minutes
	system time =       0.16 seconds =       0.00 minutes
	total time  =          2 seconds =       0.03 minutes
Total time:
	user time   =      13.97 seconds =       0.23 minutes
	system time =       0.26 seconds =       0.00 minutes
	total time  =          5 seconds =       0.08 minutes
CURRENT ENERGY: -282.6992801095

			-----------------------------------------
			 OPTKING 2.0: for geometry optimizations 
			  - R.A. King,  Bethel University        
			-----------------------------------------

	Internal coordinates to be generated automatically.
	Detected frag with atoms:  1 2 3 4 5 6 7 8 9 10
	---Fragment 1 Bond Connectivity---
	 1 : 2
	 2 : 1 3 4 5
	 3 : 2 6 7 8
	 4 : 2
	 5 : 2
	 6 : 3 9 10
	 7 : 3
	 8 : 3
	 9 : 6
	 10 : 6

	Assuming in current code that numbering for constraints corresponds to unified fragment.
	Frozen dihedral atom list: 
	     9     6     3     2
	---Fragment 1 Geometry and Gradient---
	 H           5.3772619127       -0.6101357910        0.0452082218
	 C           3.5899305903        0.1366367336       -0.6206934729
	 C           1.4702682508       -0.9595064687        0.9818660973
	 H           3.3675646265       -0.3903020602       -2.5873446875
	 H           3.6317067659        2.1735725322       -0.4774182170
	 N          -1.0230194014        0.0103501156        0.1134802475
	 H           1.3535871107       -2.9875813415        0.8623295811
	 H           1.6238047196       -0.3747496141        2.9322864542
	 O          -2.8724244478       -0.9484780270        0.9670997773
	 O          -0.9957449842        1.6947045918       -1.3862498753
	            -0.0004137084        0.0004631370       -0.0009637104
	            -0.0017005118        0.0041237256       -0.0015386126
	            -0.0058120425       -0.0070884710        0.0052553073
	            -0.0004018490       -0.0014880797       -0.0012583456
	            -0.0008039770        0.0008487267        0.0009464063
	            -0.0000562974       -0.0033502059        0.0064145320
	             0.0016727344        0.0014720051       -0.0025359454
	             0.0018834603        0.0030605707       -0.0014673437
	            -0.0012757247        0.0011528853       -0.0022529508
	             0.0069079162        0.0008057061       -0.0025993370

	Previous optimization step data not found.  Starting new optimization.

	---Fragment 1 Intrafragment Coordinates---
	 - Coordinate -           - BOHR/RAD -       - ANG/DEG -
	 R(1,2)           =         2.048328	       1.083929
	 R(2,3)           =         2.874490	       1.521115
	 R(2,4)           =         2.048128	       1.083823
	 R(2,5)           =         2.042396	       1.080789
	 R(3,6)           =         2.812685	       1.488409
	 R(3,7)           =         2.034943	       1.076845
	 R(3,8)           =         2.041973	       1.080566
	 R(6,9)           =         2.251292	       1.191333
	 R(6,10)          =         2.255434	       1.193525
	 B(1,2,3)         =         1.899879	     108.855047
	 B(1,2,4)         =         1.889253	     108.246232
	 B(1,2,5)         =         1.899639	     108.841313
	 B(2,3,6)         =         1.928423	     110.490516
	 B(2,3,7)         =         1.970972	     112.928395
	 B(2,3,8)         =         1.947510	     111.584111
	 B(3,2,4)         =         1.936025	     110.926070
	 B(3,2,5)         =         1.935089	     110.872458
	 B(3,6,9)         =         2.053618	     117.663623
	 B(3,6,10)        =         2.039893	     116.877276
	 B(4,2,5)         =         1.903047	     109.036543
	 B(6,3,7)         =         1.849061	     105.943416
	 B(6,3,8)         =         1.836724	     105.236528
	 B(7,3,8)         =         1.923911	     110.231961
	 B(9,6,10)        =         2.189674	     125.459055
	 D(1,2,3,6)       =        -3.135264	    -179.637383
	 D(1,2,3,7)       =        -1.067831	     -61.182234
	 D(1,2,3,8)       =         1.110866	      63.647908
	*D(2,3,6,9)       =         2.967059	     169.999983
	 D(2,3,6,10)      =        -0.175816	     -10.073518
	 D(4,2,3,6)       =        -1.058329	     -60.637805
	 D(4,2,3,7)       =         1.009103	      57.817344
	 D(4,2,3,8)       =        -3.095385	    -177.352514
	 D(5,2,3,6)       =         1.058776	      60.663421
	 D(5,2,3,7)       =         3.126209	     179.118570
	 D(5,2,3,8)       =        -0.978280	     -56.051288
	 D(7,3,6,9)       =         0.826671	      47.364777
	 D(7,3,6,10)      =        -2.316204	    -132.708724
	 D(8,3,6,9)       =        -1.211530	     -69.415580
	 D(8,3,6,10)      =         1.928779	     110.510918

	Current energy   :      -282.6992801095

	Generating empirical Hessian (Schlegel '84) for each fragment.
	Taking RFO optimization step.
	Going to follow RFO solution 1.
	Using RFO vector 1.
	Norm of target step-size    0.31625
	Projected energy change by RFO approximation:        -0.0053891309

	Back-transformation to cartesian coordinates...
	Successfully converged to displaced geometry.

	Back-transformation to cartesian coordinates to adjust frozen coordinates...
	Successfully converged to displaced geometry.

	--- Internal Coordinate Step in ANG or DEG, aJ/ANG or AJ/DEG ---
	 ---------------------------------------------------------------------------
	   Coordinate                Previous        Force       Change         New 
	   ----------                --------       ------       ------       ------
	    1 R(1,2)          =      1.083929     0.006946     0.001243     1.085172
	    2 R(2,3)          =      1.521115    -0.005158    -0.001082     1.520033
	    3 R(2,4)          =      1.083823    -0.013468    -0.002410     1.081413
	    4 R(2,5)          =      1.080789    -0.007385    -0.001308     1.079481
	    5 R(3,6)          =      1.488409     0.048649     0.009193     1.497602
	    6 R(3,7)          =      1.076845     0.011649     0.002036     1.078882
	    7 R(3,8)          =      1.080566     0.003159     0.000559     1.081125
	    8 R(6,9)          =      1.191333     0.002449     0.000143     1.191476
	    9 R(6,10)         =      1.193525    -0.019885    -0.001177     1.192348
	   10 B(1,2,3)        =    108.855047    -0.000109    -0.523679   108.331368
	   11 B(1,2,4)        =    108.246232     0.000023     0.153753   108.399985
	   12 B(1,2,5)        =    108.841313    -0.000018    -0.166868   108.674445
	   13 B(2,3,6)        =    110.490516     0.001126     4.353764   114.844280
	   14 B(2,3,7)        =    112.928395    -0.000173    -0.518373   112.410022
	   15 B(2,3,8)        =    111.584111    -0.000070     0.836456   112.420567
	   16 B(3,2,4)        =    110.926070     0.000081     0.415523   111.341593
	   17 B(3,2,5)        =    110.872458     0.000122     0.538645   111.411102
	   18 B(3,6,9)        =    117.663623    -0.000698    -2.344465   115.319158
	   19 B(3,6,10)       =    116.877276     0.000939     2.515645   119.392921
	   20 B(4,2,5)        =    109.036543    -0.000103    -0.434433   108.602111
	   21 B(6,3,7)        =    105.943416    -0.000467    -1.800393   104.143023
	   22 B(6,3,8)        =    105.236528    -0.000415    -0.872738   104.363789
	   23 B(7,3,8)        =    110.231961    -0.000021    -2.292369   107.939592
	   24 B(9,6,10)       =    125.459055    -0.000241    -0.992872   124.466183
	   25 D(1,2,3,6)      =   -179.637383     0.000006     1.268904  -178.368479
	   26 D(1,2,3,7)      =    -61.182234     0.000021     1.642256   -59.539978
	   27 D(1,2,3,8)      =     63.647908    -0.000029    -1.144446    62.503462
	   28 *D(2,3,6,9)     =    169.999983     0.000000    -0.000000   169.999983
	   29 D(2,3,6,10)     =    -10.073518    -0.000026    -9.842664   -19.916182
	   30 D(4,2,3,6)      =    -60.637805     0.000008     1.377473   -59.260331
	   31 D(4,2,3,7)      =     57.817344     0.000023     1.750826    59.568170
	   32 D(4,2,3,8)      =   -177.352514    -0.000027    -1.035876  -178.388390
	   33 D(5,2,3,6)      =     60.663421     0.000010     1.480715    62.144136
	   34 D(5,2,3,7)      =    179.118570     0.000025     1.854068   180.972638
	   35 D(5,2,3,8)      =    -56.051288    -0.000025    -0.932635   -56.983923
	   36 D(7,3,6,9)      =     47.364777    -0.000034    -0.725794    46.638984
	   37 D(7,3,6,10)     =   -132.708724    -0.000060   -10.568458  -143.277182
	   38 D(8,3,6,9)      =    -69.415580     0.000063     2.949395   -66.466185
	   39 D(8,3,6,10)     =    110.510918     0.000037    -6.893269   103.617650
	 ---------------------------------------------------------------------------

  ==> Convergence Check <==

  Measures of convergence in internal coordinates in au.
  Criteria marked as inactive (o), active & met (*), and active & unmet ( ).
  --------------------------------------------------------------------------------------------- ~
   Step     Total Energy     Delta E     MAX Force     RMS Force      MAX Disp      RMS Disp    ~
  --------------------------------------------------------------------------------------------- ~
    Convergence Criteria    1.00e-06 *    3.00e-04 *             o    1.20e-03 *             o  ~
  --------------------------------------------------------------------------------------------- ~
      1    -282.69928011   -2.83e+02      1.48e-02      4.06e-03 o    1.84e-01      5.06e-02 o  ~
  ---------------------------------------------------------------------------------------------

	Writing optimization data to binary file.
	Structure for next step:
	Cartesian Geometry (in Angstrom)
	    H     2.8565723957  -0.3581137728   0.0649613669
	    C     1.9389406063   0.0603660485  -0.3355686029
	    C     0.7737344115  -0.4717611150   0.4827442648
	    H     1.8559051992  -0.2303181198  -1.3738663748
	    H     1.9982400806   1.1369377823  -0.2830629714
	    N    -0.5769087642  -0.0126879126   0.0268637137
	    H     0.7094340516  -1.5483701644   0.4551021300
	    H     0.8247066176  -0.1677063276   1.5189794620
	    O    -1.5015910689  -0.5643671131   0.5369891624
	    O    -0.6646494139   0.9624670564  -0.6536265109
			--------------------------
			 OPTKING Finished Execution 
			--------------------------

    Structure for next step:
    Molecular point group: c1
    Full point group: C1

    Geometry (in Angstrom), charge = 0, multiplicity = 1:

    H            2.881439594121    -0.359132738827     0.056141372511
    C            1.963807874768     0.059347050497    -0.344388566651
    C            0.798601768973    -0.472780072355     0.473924238498
    H            1.880772473997    -0.231337095593    -1.382686259261
    H            2.023107344573     1.135918702083    -0.291882939205
    N           -0.552041303641    -0.013706905044     0.018043722254
    H            0.734301413966    -1.549389039572     0.446282105812
    H            0.849573971156    -0.168725308185     1.510159356618
    O           -1.476723537636    -0.565386063377     0.528169131955
    O           -0.639781946577     0.961447989543    -0.662446450422

gradient() will perform analytic gradient computation.

*** tstart() called on cx1-1-4-2.cx1.hpc.ic.ac.uk
*** at Fri Sep  2 13:10:13 2016


         ---------------------------------------------------------
                                   SCF
            by Justin Turney, Rob Parrish, and Andy Simmonett
                              RHF Reference
                        4 Threads,   2000 MiB Core
         ---------------------------------------------------------

  ==> Geometry <==

    Molecular point group: c1
    Full point group: C1

    Geometry (in Angstrom), charge = 0, multiplicity = 1:

       Center              X                  Y                   Z               Mass       
    ------------   -----------------  -----------------  -----------------  -----------------
           H          2.881439594121    -0.359132738827     0.056141372511     1.007825032070
           C          1.963807874768     0.059347050497    -0.344388566651    12.000000000000
           C          0.798601768973    -0.472780072355     0.473924238498    12.000000000000
           H          1.880772473997    -0.231337095593    -1.382686259261     1.007825032070
           H          2.023107344573     1.135918702083    -0.291882939205     1.007825032070
           N         -0.552041303641    -0.013706905044     0.018043722254    14.003074004780
           H          0.734301413966    -1.549389039572     0.446282105812     1.007825032070
           H          0.849573971156    -0.168725308185     1.510159356618     1.007825032070
           O         -1.476723537636    -0.565386063377     0.528169131955    15.994914619560
           O         -0.639781946577     0.961447989543    -0.662446450422    15.994914619560

  Running in c1 symmetry.

  Rotational constants: A =      0.37108  B =      0.13843  C =      0.10532 [cm^-1]
  Rotational constants: A =  11124.81478  B =   4150.13004  C =   3157.40124 [MHz]
  Nuclear repulsion =  185.427464325420345

  Charge       = 0
  Multiplicity = 1
  Electrons    = 40
  Nalpha       = 20
  Nbeta        = 20

  ==> Algorithm <==

  SCF Algorithm Type is DF.
  DIIS enabled.
  MOM disabled.
  Fractional occupation disabled.
  Guess Type is READ.
  Energy threshold   = 1.00e-08
  Density threshold  = 1.00e-08
  Integral threshold = 0.00e+00

  ==> Primary Basis <==

  Basis Set: 6-31G*
    Number of shells: 40
    Number of basis function: 85
    Number of Cartesian functions: 85
    Spherical Harmonics?: false
    Max angular momentum: 2

  ==> Pre-Iterations <==

   -------------------------------------------------------
    Irrep   Nso     Nmo     Nalpha   Nbeta   Ndocc  Nsocc
   -------------------------------------------------------
     A         85      85       0       0       0       0
   -------------------------------------------------------
    Total      85      85      20      20      20       0
   -------------------------------------------------------

 OEINTS: Overlap, kinetic, potential, dipole, and quadrupole integrals
         stored in file 35.

  ==> Integral Setup <==

  ==> DFJK: Density-Fitted J/K Matrices <==

    J tasked:                  Yes
    K tasked:                  Yes
    wK tasked:                  No
    OpenMP threads:              4
    Integrals threads:           4
    Memory (MB):              1430
    Algorithm:                Core
    Integral Cache:           NONE
    Schwarz Cutoff:          1E-12
    Fitting Condition:       1E-12

   => Auxiliary Basis Set <=

  Basis Set: 
    Number of shells: 165
    Number of basis function: 530
    Number of Cartesian functions: 530
    Spherical Harmonics?: false
    Max angular momentum: 3

  Minimum eigenvalue in the overlap matrix is 3.3811694743E-03.
  Using Symmetric Orthogonalization.
  SCF Guess: Reading in previously saved MOs, projecting if necessary.

  Using orbitals from previous SCF, no projection.
  Recomputing DOCC and SOCC from number of alpha and beta electrons from previous calculation.
              A 
    DOCC [    20 ]

  ==> Iterations <==

                           Total Energy        Delta E     RMS |[F,P]|

   @DF-RHF iter   0:  -282.66991076721149   -2.82670e+02   4.46454e-03 
   @DF-RHF iter   1:  -282.69592557915666   -2.60148e-02   5.85426e-04 
   @DF-RHF iter   2:  -282.69805569184200   -2.13011e-03   2.17707e-04 DIIS
   @DF-RHF iter   3:  -282.69839673326351   -3.41041e-04   1.03021e-04 DIIS
   @DF-RHF iter   4:  -282.69846546599069   -6.87327e-05   3.71879e-05 DIIS
   @DF-RHF iter   5:  -282.69848026204227   -1.47961e-05   2.15137e-05 DIIS
   @DF-RHF iter   6:  -282.69848952114580   -9.25910e-06   8.17124e-06 DIIS
   @DF-RHF iter   7:  -282.69849110378061   -1.58263e-06   2.62082e-06 DIIS
   @DF-RHF iter   8:  -282.69849120200377   -9.82232e-08   9.83629e-07 DIIS
   @DF-RHF iter   9:  -282.69849121181255   -9.80879e-09   4.29527e-07 DIIS
   @DF-RHF iter  10:  -282.69849121284051   -1.02796e-09   1.43854e-07 DIIS
   @DF-RHF iter  11:  -282.69849121306345   -2.22940e-10   4.46615e-08 DIIS
   @DF-RHF iter  12:  -282.69849121310006   -3.66072e-11   2.07949e-08 DIIS
   @DF-RHF iter  13:  -282.69849121310961   -9.54969e-12   9.40904e-09 DIIS

  ==> Post-Iterations <==

    Orbital Energies (a.u.)
    -----------------------

    Doubly Occupied:                                                      

       1A    -20.604396     2A    -20.599418     3A    -15.849722  
       4A    -11.306790     5A    -11.248102     6A     -1.633189  
       7A     -1.416502     8A     -1.123678     9A     -0.968188  
      10A     -0.834446    11A     -0.759048    12A     -0.747811  
      13A     -0.725822    14A     -0.639609    15A     -0.595643  
      16A     -0.564395    17A     -0.540234    18A     -0.485666  
      19A     -0.478712    20A     -0.449218  

    Virtual:                                                              

      21A      0.116018    22A      0.220197    23A      0.270258  
      24A      0.283351    25A      0.289413    26A      0.321693  
      27A      0.329634    28A      0.377120    29A      0.532507  
      30A      0.587700    31A      0.693066    32A      0.698877  
      33A      0.744816    34A      0.775728    35A      0.833820  
      36A      0.858749    37A      0.932196    38A      1.001869  
      39A      1.012472    40A      1.069067    41A      1.089364  
      42A      1.106257    43A      1.126599    44A      1.152434  
      45A      1.167233    46A      1.199872    47A      1.225698  
      48A      1.244506    49A      1.291583    50A      1.309154  
      51A      1.338314    52A      1.366636    53A      1.571584  
      54A      1.674307    55A      1.710421    56A      1.746333  
      57A      1.759854    58A      1.946858    59A      2.032584  
      60A      2.092473    61A      2.112097    62A      2.132863  
      63A      2.163811    64A      2.195861    65A      2.259313  
      66A      2.333690    67A      2.343649    68A      2.416258  
      69A      2.515365    70A      2.565542    71A      2.629627  
      72A      2.672568    73A      2.772157    74A      2.849107  
      75A      2.876998    76A      3.062465    77A      3.216048  
      78A      3.275051    79A      3.297566    80A      3.490862  
      81A      4.067361    82A      4.196798    83A      4.242849  
      84A      4.602048    85A      4.823944  

    Final Occupation by Irrep:
              A 
    DOCC [    20 ]

  Energy converged.

  @DF-RHF Final Energy:  -282.69849121310961

   => Energetics <=

    Nuclear Repulsion Energy =            185.4274643254203454
    One-Electron Energy =                -753.1107341789773955
    Two-Electron Energy =                 284.9847786404474164
    DFT Exchange-Correlation Energy =       0.0000000000000000
    Empirical Dispersion Energy =           0.0000000000000000
    PCM Polarization Energy =               0.0000000000000000
    EFP Energy =                            0.0000000000000000
    Total Energy =                       -282.6984912131096053

    Alert: EFP and PCM quantities not currently incorporated into SCF psivars.

Properties will be evaluated at   0.000000,   0.000000,   0.000000 Bohr
  ==> Properties <==


Properties computed using the SCF density matrix

  Nuclear Dipole Moment: (a.u.)
     X:     7.8373      Y:    -1.0974      Z:     0.3162

  Electronic Dipole Moment: (a.u.)
     X:    -6.2843      Y:     0.6193      Z:     0.0088

  Dipole Moment: (a.u.)
     X:     1.5530      Y:    -0.4781      Z:     0.3250     Total:     1.6571

  Dipole Moment: (Debye)
     X:     3.9472      Y:    -1.2151      Z:     0.8260     Total:     4.2118


  Saving occupied orbitals to File 180.

*** tstop() called on cx1-1-4-2.cx1.hpc.ic.ac.uk at Fri Sep  2 13:10:16 2016
Module time:
	user time   =       7.65 seconds =       0.13 minutes
	system time =       0.12 seconds =       0.00 minutes
	total time  =          3 seconds =       0.05 minutes
Total time:
	user time   =      22.95 seconds =       0.38 minutes
	system time =       0.43 seconds =       0.01 minutes
	total time  =          9 seconds =       0.15 minutes

*** tstart() called on cx1-1-4-2.cx1.hpc.ic.ac.uk
*** at Fri Sep  2 13:10:16 2016


         ------------------------------------------------------------
                                   SCF GRAD                          
                          Rob Parrish, Justin Turney,                
                       Andy Simmonett, and Alex Sokolov              
         ------------------------------------------------------------

  ==> Geometry <==

    Molecular point group: c1
    Full point group: C1

    Geometry (in Angstrom), charge = 0, multiplicity = 1:

       Center              X                  Y                   Z               Mass       
    ------------   -----------------  -----------------  -----------------  -----------------
           H          2.881439594121    -0.359132738827     0.056141372511     1.007825032070
           C          1.963807874768     0.059347050497    -0.344388566651    12.000000000000
           C          0.798601768973    -0.472780072355     0.473924238498    12.000000000000
           H          1.880772473997    -0.231337095593    -1.382686259261     1.007825032070
           H          2.023107344573     1.135918702083    -0.291882939205     1.007825032070
           N         -0.552041303641    -0.013706905044     0.018043722254    14.003074004780
           H          0.734301413966    -1.549389039572     0.446282105812     1.007825032070
           H          0.849573971156    -0.168725308185     1.510159356618     1.007825032070
           O         -1.476723537636    -0.565386063377     0.528169131955    15.994914619560
           O         -0.639781946577     0.961447989543    -0.662446450422    15.994914619560

  Nuclear repulsion =  185.427464325420345

  ==> Basis Set <==

  Basis Set: 6-31G*
    Number of shells: 40
    Number of basis function: 85
    Number of Cartesian functions: 85
    Spherical Harmonics?: false
    Max angular momentum: 2

  ==> DFJKGrad: Density-Fitted SCF Gradients <==

    Gradient:                    1
    J tasked:                  Yes
    K tasked:                  Yes
    wK tasked:                  No
    OpenMP threads:              4
    Integrals threads:           4
    Memory (MB):              1430
    Schwarz Cutoff:          0E+00
    Fitting Condition:       1E-12

   => Auxiliary Basis Set <=

  Basis Set: 
    Number of shells: 165
    Number of basis function: 530
    Number of Cartesian functions: 530
    Spherical Harmonics?: false
    Max angular momentum: 3


  -Total Gradient:
     Atom            X                  Y                   Z
    ------   -----------------  -----------------  -----------------
       1        0.000829440678    -0.000002179334    -0.000120402198
       2        0.004535394893    -0.000289987872    -0.000870880185
       3       -0.002342384611     0.006790053808     0.007847998217
       4        0.000141742593     0.000182760720     0.000899858082
       5        0.000042752810    -0.001271957298     0.000188241148
       6        0.000117508640    -0.021188487742    -0.020897981734
       7       -0.000628765616     0.000528222592    -0.000896157363
       8        0.001822175867    -0.001296432236     0.000676399373
       9        0.001838198264     0.010041387370     0.005362432875
      10       -0.006356063511     0.006506619990     0.007810491784


*** tstop() called on cx1-1-4-2.cx1.hpc.ic.ac.uk at Fri Sep  2 13:10:18 2016
Module time:
	user time   =       9.50 seconds =       0.16 minutes
	system time =       0.14 seconds =       0.00 minutes
	total time  =          2 seconds =       0.03 minutes
Total time:
	user time   =      32.46 seconds =       0.54 minutes
	system time =       0.58 seconds =       0.01 minutes
	total time  =         11 seconds =       0.18 minutes
CURRENT ENERGY: -282.6984912131

			-----------------------------------------
			 OPTKING 2.0: for geometry optimizations 
			  - R.A. King,  Bethel University        
			-----------------------------------------

	Previous internal coordinate definitions found.
	---Fragment 1 Geometry and Gradient---
	 H           5.4451317013       -0.6786625217        0.1060918188
	 C           3.7110590609        0.1121496722       -0.6508000743
	 C           1.5091386326       -0.8934248578        0.8955870185
	 H           3.5541448941       -0.4371637550       -2.6128983577
	 H           3.8231188187        2.1465752562       -0.5515788180
	 N          -1.0432068779       -0.0259022967        0.0340976935
	 H           1.3876285714       -2.9279209581        0.8433509580
	 H           1.6054621351       -0.3188446242        2.8537876010
	 O          -2.7906030601       -1.0684248191        0.9980950112
	 O          -1.2090126638        1.8168733912       -1.2518423690
	             0.0008294407       -0.0000021793       -0.0001204022
	             0.0045353949       -0.0002899879       -0.0008708802
	            -0.0023423846        0.0067900538        0.0078479982
	             0.0001417426        0.0001827607        0.0008998581
	             0.0000427528       -0.0012719573        0.0001882411
	             0.0001175086       -0.0211884877       -0.0208979817
	            -0.0006287656        0.0005282226       -0.0008961574
	             0.0018221759       -0.0012964322        0.0006763994
	             0.0018381983        0.0100413874        0.0053624329
	            -0.0063560635        0.0065066200        0.0078104918

	---Fragment 1 Intrafragment Coordinates---
	 - Coordinate -           - BOHR/RAD -       - ANG/DEG -
	 R(1,2)           =         2.050677	       1.085172
	 R(2,3)           =         2.872446	       1.520033
	 R(2,4)           =         2.043575	       1.081413
	 R(2,5)           =         2.039924	       1.079481
	 R(3,6)           =         2.830058	       1.497602
	 R(3,7)           =         2.038791	       1.078882
	 R(3,8)           =         2.043030	       1.081125
	 R(6,9)           =         2.251563	       1.191476
	 R(6,10)          =         2.253210	       1.192348
	 B(1,2,3)         =         1.890739	     108.331368
	 B(1,2,4)         =         1.891937	     108.399985
	 B(1,2,5)         =         1.896727	     108.674445
	 B(2,3,6)         =         2.004411	     114.844280
	 B(2,3,7)         =         1.961925	     112.410022
	 B(2,3,8)         =         1.962109	     112.420567
	 B(3,2,4)         =         1.943277	     111.341593
	 B(3,2,5)         =         1.944491	     111.411102
	 B(3,6,9)         =         2.012699	     115.319158
	 B(3,6,10)        =         2.083800	     119.392921
	 B(4,2,5)         =         1.895464	     108.602111
	 B(6,3,7)         =         1.817639	     104.143023
	 B(6,3,8)         =         1.821492	     104.363789
	 B(7,3,8)         =         1.883901	     107.939592
	 B(9,6,10)        =         2.172345	     124.466183
	 D(1,2,3,6)       =        -3.113117	    -178.368479
	 D(1,2,3,7)       =        -1.039169	     -59.539978
	 D(1,2,3,8)       =         1.090891	      62.503462
	*D(2,3,6,9)       =         2.967059	     169.999983
	 D(2,3,6,10)      =        -0.347603	     -19.916182
	 D(4,2,3,6)       =        -1.034288	     -59.260331
	 D(4,2,3,7)       =         1.039661	      59.568170
	 D(4,2,3,8)       =        -3.113465	    -178.388390
	 D(5,2,3,6)       =         1.084620	      62.144136
	 D(5,2,3,7)       =        -3.124617	    -179.027362
	 D(5,2,3,8)       =        -0.994557	     -56.983923
	 D(7,3,6,9)       =         0.814004	      46.638984
	 D(7,3,6,10)      =        -2.500659	    -143.277182
	 D(8,3,6,9)       =        -1.160054	     -66.466185
	 D(8,3,6,10)      =         1.808469	     103.617650

	Current energy   :      -282.6984912131

	Energy change for the previous step:
		Projected    :        -0.0053891309
		Actual       :         0.0007888963

	Performing BFGS update.
	Previous computed or guess Hessian on step 1.
	Steps to be used in Hessian update: 1
	Taking RFO optimization step.
	Going to follow RFO solution 1.
	Using RFO vector 1.

	Determining step-restricting scale parameter for RS-RFO.
	Maximum step size allowed    0.50000

	 Iter      |step|        alpha        rfo_root  
	------------------------------------------------
	    0     0.60325       1.00000           1
	    1     0.52093       1.46878           1
	    2     0.50119       1.61731           1
	    3     0.50000       1.62681           1
	------------------------------------------------
	Norm of target step-size    0.50000
	Projected energy change by RFO approximation:        -0.0087143407

	Back-transformation to cartesian coordinates...
	Successfully converged to displaced geometry.

	Back-transformation to cartesian coordinates to adjust frozen coordinates...
	Successfully converged to displaced geometry.

	--- Internal Coordinate Step in ANG or DEG, aJ/ANG or AJ/DEG ---
	 ---------------------------------------------------------------------------
	   Coordinate                Previous        Force       Change         New 
	   ----------                --------       ------       ------       ------
	    1 R(1,2)          =      1.085172    -0.005419     0.000707     1.085879
	    2 R(2,3)          =      1.520033    -0.030633    -0.004540     1.515493
	    3 R(2,4)          =      1.081413     0.007612    -0.001652     1.079762
	    4 R(2,5)          =      1.079481     0.010356    -0.000304     1.079178
	    5 R(3,6)          =      1.497602    -0.040350     0.004980     1.502582
	    6 R(3,7)          =      1.078882     0.003845     0.002384     1.081266
	    7 R(3,8)          =      1.081125    -0.003045     0.000263     1.081387
	    8 R(6,9)          =      1.191476     0.031143     0.001141     1.192617
	    9 R(6,10)         =      1.192348    -0.010970    -0.001537     1.190811
	   10 B(1,2,3)        =    108.331368    -0.000056    -0.640667   107.690701
	   11 B(1,2,4)        =    108.399985     0.000024     0.195764   108.595748
	   12 B(1,2,5)        =    108.674445     0.000024    -0.081347   108.593097
	   13 B(2,3,6)        =    114.844280    -0.000560     3.037300   117.881580
	   14 B(2,3,7)        =    112.410022     0.000299     1.174934   113.584956
	   15 B(2,3,8)        =    112.420567     0.000019    -0.213387   112.207180
	   16 B(3,2,4)        =    111.341593     0.000003     0.398525   111.740118
	   17 B(3,2,5)        =    111.411102     0.000016     0.567173   111.978275
	   18 B(3,6,9)        =    115.319158     0.000163    -1.692499   113.626659
	   19 B(3,6,10)       =    119.392921    -0.000495     2.036821   121.429742
	   20 B(4,2,5)        =    108.602111    -0.000009    -0.452126   108.149985
	   21 B(6,3,7)        =    104.143023     0.000271    -0.613941   103.529081
	   22 B(6,3,8)        =    104.363789     0.000053    -2.088064   102.275725
	   23 B(7,3,8)        =    107.939592    -0.000067    -1.887400   106.052191
	   24 B(9,6,10)       =    124.466183     0.000437     0.069407   124.535590
	   25 D(1,2,3,6)      =   -178.368479    -0.000039    -1.012732  -179.381211
	   26 D(1,2,3,7)      =    -59.539978     0.000002     1.474951   -58.065026
	   27 D(1,2,3,8)      =     62.503462     0.000036    -0.295754    62.207708
	   28 *D(2,3,6,9)     =    169.999983    -0.000000     0.000000   169.999983
	   29 D(2,3,6,10)     =    -19.916182     0.000155    16.930983    -2.985200
	   30 D(4,2,3,6)      =    -59.260331    -0.000039    -0.942061   -60.202393
	   31 D(4,2,3,7)      =     59.568170     0.000001     1.545622    61.113792
	   32 D(4,2,3,8)      =   -178.388390     0.000035    -0.225084  -178.613474
	   33 D(5,2,3,6)      =     62.144136    -0.000039    -0.841471    61.302665
	   34 D(5,2,3,7)      =   -179.027362     0.000001     1.646212  -177.381151
	   35 D(5,2,3,8)      =    -56.983923     0.000035    -0.124493   -57.108416
	   36 D(7,3,6,9)      =     46.638984    -0.000053    -3.000208    43.638775
	   37 D(7,3,6,10)     =   -143.277182     0.000102    13.930774  -129.346407
	   38 D(8,3,6,9)      =    -66.466185    -0.000065     0.019858   -66.446327
	   39 D(8,3,6,10)     =    103.617650     0.000090    16.950841   120.568491
	 ---------------------------------------------------------------------------

  ==> Convergence Check <==

  Measures of convergence in internal coordinates in au.
  Criteria marked as inactive (o), active & met (*), and active & unmet ( ).
  ---------------------------------------------------------------------------------------------
   Step     Total Energy     Delta E     MAX Force     RMS Force      MAX Disp      RMS Disp   
  ---------------------------------------------------------------------------------------------
    Convergence Criteria    1.00e-06 *    3.00e-04 *             o    1.20e-03 *             o
  ---------------------------------------------------------------------------------------------
      2    -282.69849121    7.89e-04      8.89e-03      3.25e-03 o    2.96e-01      7.98e-02 o  ~
  ---------------------------------------------------------------------------------------------

	Writing optimization data to binary file.
	Structure for next step:
	Cartesian Geometry (in Angstrom)
	    H     2.8779456043  -0.4007296560   0.0623045955
	    C     1.9837921355   0.0689537286  -0.3364694162
	    C     0.7986817827  -0.4554399274   0.4491793270
	    H     1.9065728543  -0.1730178115  -1.3859320795
	    H     2.0873306451   1.1392504181  -0.2449876686
	    N    -0.5688837785   0.0402024408   0.0725428265
	    H     0.6969084963  -1.5312665174   0.4121000449
	    H     0.8564270880  -0.1965052697   1.4975195463
	    O    -1.4558295410  -0.5545117678   0.6035580835
	    O    -0.7198869868   0.8593207896  -0.7784995206
			--------------------------
			 OPTKING Finished Execution 
			--------------------------

    Structure for next step:
    Molecular point group: c1
    Full point group: C1

    Geometry (in Angstrom), charge = 0, multiplicity = 1:

    H            2.889749978558    -0.395787123394     0.063452887451
    C            1.995596578061     0.073896225340    -0.335321093711
    C            0.810486315686    -0.450497390600     0.450327589485
    H            1.918377302780    -0.168075296228    -1.384783676905
    H            2.099135079713     1.144192833151    -0.243839353106
    N           -0.557079140992     0.045144939750     0.073691117758
    H            0.708713037081    -1.526323898382     0.413248310152
    H            0.868231616673    -0.191562752678     1.498667728726
    O           -1.444024835790    -0.549569223455     0.604706334206
    O           -0.708082337813     0.864263226027    -0.777351164422

gradient() will perform analytic gradient computation.

*** tstart() called on cx1-1-4-2.cx1.hpc.ic.ac.uk
*** at Fri Sep  2 13:10:19 2016


         ---------------------------------------------------------
                                   SCF
            by Justin Turney, Rob Parrish, and Andy Simmonett
                              RHF Reference
                        4 Threads,   2000 MiB Core
         ---------------------------------------------------------

  ==> Geometry <==

    Molecular point group: c1
    Full point group: C1

    Geometry (in Angstrom), charge = 0, multiplicity = 1:

       Center              X                  Y                   Z               Mass       
    ------------   -----------------  -----------------  -----------------  -----------------
           H          2.889749978558    -0.395787123394     0.063452887451     1.007825032070
           C          1.995596578061     0.073896225340    -0.335321093711    12.000000000000
           C          0.810486315686    -0.450497390600     0.450327589485    12.000000000000
           H          1.918377302780    -0.168075296228    -1.384783676905     1.007825032070
           H          2.099135079713     1.144192833151    -0.243839353106     1.007825032070
           N         -0.557079140992     0.045144939750     0.073691117758    14.003074004780
           H          0.708713037081    -1.526323898382     0.413248310152     1.007825032070
           H          0.868231616673    -0.191562752678     1.498667728726     1.007825032070
           O         -1.444024835790    -0.549569223455     0.604706334206    15.994914619560
           O         -0.708082337813     0.864263226027    -0.777351164422    15.994914619560

  Running in c1 symmetry.

  Rotational constants: A =      0.36837  B =      0.13630  C =      0.10342 [cm^-1]
  Rotational constants: A =  11043.31413  B =   4086.12876  C =   3100.39120 [MHz]
  Nuclear repulsion =  184.818318229955338

  Charge       = 0
  Multiplicity = 1
  Electrons    = 40
  Nalpha       = 20
  Nbeta        = 20

  ==> Algorithm <==

  SCF Algorithm Type is DF.
  DIIS enabled.
  MOM disabled.
  Fractional occupation disabled.
  Guess Type is READ.
  Energy threshold   = 1.00e-08
  Density threshold  = 1.00e-08
  Integral threshold = 0.00e+00

  ==> Primary Basis <==

  Basis Set: 6-31G*
    Number of shells: 40
    Number of basis function: 85
    Number of Cartesian functions: 85
    Spherical Harmonics?: false
    Max angular momentum: 2

  ==> Pre-Iterations <==

   -------------------------------------------------------
    Irrep   Nso     Nmo     Nalpha   Nbeta   Ndocc  Nsocc
   -------------------------------------------------------
     A         85      85       0       0       0       0
   -------------------------------------------------------
    Total      85      85      20      20      20       0
   -------------------------------------------------------

 OEINTS: Overlap, kinetic, potential, dipole, and quadrupole integrals
         stored in file 35.

  ==> Integral Setup <==

  ==> DFJK: Density-Fitted J/K Matrices <==

    J tasked:                  Yes
    K tasked:                  Yes
    wK tasked:                  No
    OpenMP threads:              4
    Integrals threads:           4
    Memory (MB):              1430
    Algorithm:                Core
    Integral Cache:           NONE
    Schwarz Cutoff:          1E-12
    Fitting Condition:       1E-12

   => Auxiliary Basis Set <=

  Basis Set: 
    Number of shells: 165
    Number of basis function: 530
    Number of Cartesian functions: 530
    Spherical Harmonics?: false
    Max angular momentum: 3

  Minimum eigenvalue in the overlap matrix is 3.2118353201E-03.
  Using Symmetric Orthogonalization.
  SCF Guess: Reading in previously saved MOs, projecting if necessary.

  Using orbitals from previous SCF, no projection.
  Recomputing DOCC and SOCC from number of alpha and beta electrons from previous calculation.
              A 
    DOCC [    20 ]

  ==> Iterations <==

                           Total Energy        Delta E     RMS |[F,P]|

   @DF-RHF iter   0:  -282.63109158435270   -2.82631e+02   5.45255e-03 
   @DF-RHF iter   1:  -282.69176433215262   -6.06727e-02   9.00613e-04 
   @DF-RHF iter   2:  -282.69587162312871   -4.10729e-03   4.79089e-04 DIIS
   @DF-RHF iter   3:  -282.69668885817998   -8.17235e-04   2.15282e-04 DIIS
   @DF-RHF iter   4:  -282.69697636313572   -2.87505e-04   7.00624e-05 DIIS
   @DF-RHF iter   5:  -282.69701781409867   -4.14510e-05   3.15707e-05 DIIS
   @DF-RHF iter   6:  -282.69703824450778   -2.04304e-05   1.78417e-05 DIIS
   @DF-RHF iter   7:  -282.69704350895654   -5.26445e-06   6.56129e-06 DIIS
   @DF-RHF iter   8:  -282.69704423417568   -7.25219e-07   1.61533e-06 DIIS
   @DF-RHF iter   9:  -282.69704426094700   -2.67713e-08   5.96998e-07 DIIS
   @DF-RHF iter  10:  -282.69704426482406   -3.87706e-09   2.00282e-07 DIIS
   @DF-RHF iter  11:  -282.69704426545820   -6.34145e-10   7.09548e-08 DIIS
   @DF-RHF iter  12:  -282.69704426555336   -9.51559e-11   2.78390e-08 DIIS
   @DF-RHF iter  13:  -282.69704426556916   -1.58025e-11   1.13568e-08 DIIS
   @DF-RHF iter  14:  -282.69704426557178   -2.61480e-12   3.75818e-09 DIIS

  ==> Post-Iterations <==

    Orbital Energies (a.u.)
    -----------------------

    Doubly Occupied:                                                      

       1A    -20.605835     2A    -20.596928     3A    -15.849998  
       4A    -11.306855     5A    -11.249958     6A     -1.632648  
       7A     -1.416352     8A     -1.122567     9A     -0.970919  
      10A     -0.834456    11A     -0.755726    12A     -0.748322  
      13A     -0.725280    14A     -0.637743    15A     -0.599006  
      16A     -0.568131    17A     -0.538888    18A     -0.485312  
      19A     -0.477538    20A     -0.448783  

    Virtual:                                                              

      21A      0.118633    22A      0.217054    23A      0.270110  
      24A      0.279813    25A      0.288662    26A      0.321239  
      27A      0.329079    28A      0.380009    29A      0.532954  
      30A      0.586031    31A      0.690690    32A      0.703011  
      33A      0.745155    34A      0.777279    35A      0.830924  
      36A      0.860974    37A      0.935930    38A      1.004455  
      39A      1.009695    40A      1.076641    41A      1.093621  
      42A      1.096527    43A      1.127386    44A      1.154242  
      45A      1.157869    46A      1.199279    47A      1.222478  
      48A      1.247469    49A      1.294996    50A      1.308604  
      51A      1.333932    52A      1.367212    53A      1.573861  
      54A      1.678131    55A      1.698288    56A      1.731123  
      57A      1.761718    58A      1.945369    59A      2.022116  
      60A      2.094368    61A      2.110078    62A      2.133776  
      63A      2.156086    64A      2.199336    65A      2.247069  
      66A      2.330427    67A      2.369373    68A      2.421091  
      69A      2.498093    70A      2.567241    71A      2.634102  
      72A      2.669063    73A      2.795324    74A      2.845378  
      75A      2.855865    76A      3.064737    77A      3.217699  
      78A      3.278939    79A      3.302788    80A      3.490909  
      81A      4.065166    82A      4.193793    83A      4.255631  
      84A      4.599825    85A      4.830535  

    Final Occupation by Irrep:
              A 
    DOCC [    20 ]

  Energy converged.

  @DF-RHF Final Energy:  -282.69704426557178

   => Energetics <=

    Nuclear Repulsion Energy =            184.8183182299553380
    One-Electron Energy =                -751.8882349403157832
    Two-Electron Energy =                 284.3728724447886407
    DFT Exchange-Correlation Energy =       0.0000000000000000
    Empirical Dispersion Energy =           0.0000000000000000
    PCM Polarization Energy =               0.0000000000000000
    EFP Energy =                            0.0000000000000000
    Total Energy =                       -282.6970442655717761

    Alert: EFP and PCM quantities not currently incorporated into SCF psivars.

Properties will be evaluated at   0.000000,   0.000000,   0.000000 Bohr
  ==> Properties <==


Properties computed using the SCF density matrix

  Nuclear Dipole Moment: (a.u.)
     X:     7.9450      Y:    -1.0650      Z:     0.3240

  Electronic Dipole Moment: (a.u.)
     X:    -6.3478      Y:     0.6794      Z:     0.0331

  Dipole Moment: (a.u.)
     X:     1.5972      Y:    -0.3856      Z:     0.3571     Total:     1.6814

  Dipole Moment: (Debye)
     X:     4.0596      Y:    -0.9801      Z:     0.9078     Total:     4.2738


  Saving occupied orbitals to File 180.

*** tstop() called on cx1-1-4-2.cx1.hpc.ic.ac.uk at Fri Sep  2 13:10:21 2016
Module time:
	user time   =       7.17 seconds =       0.12 minutes
	system time =       0.13 seconds =       0.00 minutes
	total time  =          2 seconds =       0.03 minutes
Total time:
	user time   =      40.41 seconds =       0.67 minutes
	system time =       0.73 seconds =       0.01 minutes
	total time  =         14 seconds =       0.23 minutes

*** tstart() called on cx1-1-4-2.cx1.hpc.ic.ac.uk
*** at Fri Sep  2 13:10:21 2016


         ------------------------------------------------------------
                                   SCF GRAD                          
                          Rob Parrish, Justin Turney,                
                       Andy Simmonett, and Alex Sokolov              
         ------------------------------------------------------------

  ==> Geometry <==

    Molecular point group: c1
    Full point group: C1

    Geometry (in Angstrom), charge = 0, multiplicity = 1:

       Center              X                  Y                   Z               Mass       
    ------------   -----------------  -----------------  -----------------  -----------------
           H          2.889749978558    -0.395787123394     0.063452887451     1.007825032070
           C          1.995596578061     0.073896225340    -0.335321093711    12.000000000000
           C          0.810486315686    -0.450497390600     0.450327589485    12.000000000000
           H          1.918377302780    -0.168075296228    -1.384783676905     1.007825032070
           H          2.099135079713     1.144192833151    -0.243839353106     1.007825032070
           N         -0.557079140992     0.045144939750     0.073691117758    14.003074004780
           H          0.708713037081    -1.526323898382     0.413248310152     1.007825032070
           H          0.868231616673    -0.191562752678     1.498667728726     1.007825032070
           O         -1.444024835790    -0.549569223455     0.604706334206    15.994914619560
           O         -0.708082337813     0.864263226027    -0.777351164422    15.994914619560

  Nuclear repulsion =  184.818318229955338

  ==> Basis Set <==

  Basis Set: 6-31G*
    Number of shells: 40
    Number of basis function: 85
    Number of Cartesian functions: 85
    Spherical Harmonics?: false
    Max angular momentum: 2

  ==> DFJKGrad: Density-Fitted SCF Gradients <==

    Gradient:                    1
    J tasked:                  Yes
    K tasked:                  Yes
    wK tasked:                  No
    OpenMP threads:              4
    Integrals threads:           4
    Memory (MB):              1430
    Schwarz Cutoff:          0E+00
    Fitting Condition:       1E-12

   => Auxiliary Basis Set <=

  Basis Set: 
    Number of shells: 165
    Number of basis function: 530
    Number of Cartesian functions: 530
    Spherical Harmonics?: false
    Max angular momentum: 3


  -Total Gradient:
     Atom            X                  Y                   Z
    ------   -----------------  -----------------  -----------------
       1        0.001148336651    -0.000513302964     0.000396603598
       2        0.005968746856    -0.001284669938     0.002223003690
       3        0.002387682245    -0.003421935267    -0.013098775047
       4        0.000294236658     0.001072375625     0.001880950761
       5        0.000412346168    -0.002167016219    -0.000875495734
       6        0.000516548761     0.020599161937     0.021353069808
       7       -0.000444981002    -0.002086354650     0.003737483004
       8       -0.003203396908    -0.000507275760    -0.000603114983
       9        0.003486233698    -0.005476222364    -0.008718298251
      10       -0.010565753125    -0.006214760401    -0.006295426843


*** tstop() called on cx1-1-4-2.cx1.hpc.ic.ac.uk at Fri Sep  2 13:10:24 2016
Module time:
	user time   =       9.30 seconds =       0.15 minutes
	system time =       0.14 seconds =       0.00 minutes
	total time  =          3 seconds =       0.05 minutes
Total time:
	user time   =      49.73 seconds =       0.83 minutes
	system time =       0.87 seconds =       0.01 minutes
	total time  =         17 seconds =       0.28 minutes
CURRENT ENERGY: -282.6970442656

			-----------------------------------------
			 OPTKING 2.0: for geometry optimizations 
			  - R.A. King,  Bethel University        
			-----------------------------------------

	Previous internal coordinate definitions found.
	---Fragment 1 Geometry and Gradient---
	 H           5.4608360520       -0.7479292701        0.1199085796
	 C           3.7711310043        0.1396436281       -0.6336650337
	 C           1.5315971711       -0.8513166918        0.8509958142
	 H           3.6252077218       -0.3176162796       -2.6168619026
	 H           3.9667904166        2.1622110979       -0.4607895978
	 N          -1.0527270108        0.0853115724        0.1392560310
	 H           1.3392735469       -2.8843341580        0.7809261311
	 H           1.6407199754       -0.3620011398        2.8320715715
	 O          -2.7288114687       -1.0385353234        1.1427293625
	 O          -1.3380816980        1.6332208039       -1.4689808098
	             0.0011483367       -0.0005133030        0.0003966036
	             0.0059687469       -0.0012846699        0.0022230037
	             0.0023876822       -0.0034219353       -0.0130987750
	             0.0002942367        0.0010723756        0.0018809508
	             0.0004123462       -0.0021670162       -0.0008754957
	             0.0005165488        0.0205991619        0.0213530698
	            -0.0004449810       -0.0020863546        0.0037374830
	            -0.0032033969       -0.0005072758       -0.0006031150
	             0.0034862337       -0.0054762224       -0.0087182983
	            -0.0105657531       -0.0062147604       -0.0062954268

	---Fragment 1 Intrafragment Coordinates---
	 - Coordinate -           - BOHR/RAD -       - ANG/DEG -
	 R(1,2)           =         2.052014	       1.085879
	 R(2,3)           =         2.863867	       1.515493
	 R(2,4)           =         2.040453	       1.079762
	 R(2,5)           =         2.039350	       1.079178
	 R(3,6)           =         2.839468	       1.502582
	 R(3,7)           =         2.043296	       1.081266
	 R(3,8)           =         2.043526	       1.081387
	 R(6,9)           =         2.253719	       1.192617
	 R(6,10)          =         2.250306	       1.190811
	 B(1,2,3)         =         1.879557	     107.690701
	 B(1,2,4)         =         1.895353	     108.595748
	 B(1,2,5)         =         1.895307	     108.593097
	 B(2,3,6)         =         2.057422	     117.881580
	 B(2,3,7)         =         1.982431	     113.584956
	 B(2,3,8)         =         1.958385	     112.207180
	 B(3,2,4)         =         1.950233	     111.740118
	 B(3,2,5)         =         1.954390	     111.978275
	 B(3,6,9)         =         1.983159	     113.626659
	 B(3,6,10)        =         2.119349	     121.429742
	 B(4,2,5)         =         1.887573	     108.149985
	 B(6,3,7)         =         1.806923	     103.529081
	 B(6,3,8)         =         1.785048	     102.275725
	 B(7,3,8)         =         1.850960	     106.052191
	 B(9,6,10)        =         2.173556	     124.535590
	 D(1,2,3,6)       =        -3.130793	    -179.381211
	 D(1,2,3,7)       =        -1.013426	     -58.065026
	 D(1,2,3,8)       =         1.085729	      62.207708
	*D(2,3,6,9)       =         2.967059	     169.999983
	 D(2,3,6,10)      =        -0.052102	      -2.985200
	 D(4,2,3,6)       =        -1.050730	     -60.202393
	 D(4,2,3,7)       =         1.066637	      61.113792
	 D(4,2,3,8)       =        -3.117393	    -178.613474
	 D(5,2,3,6)       =         1.069933	      61.302665
	 D(5,2,3,7)       =        -3.095885	    -177.381151
	 D(5,2,3,8)       =        -0.996730	     -57.108416
	 D(7,3,6,9)       =         0.761640	      43.638775
	 D(7,3,6,10)      =        -2.257521	    -129.346407
	 D(8,3,6,9)       =        -1.159707	     -66.446327
	 D(8,3,6,10)      =         2.104317	     120.568491

	Current energy   :      -282.6970442656

	Energy change for the previous step:
		Projected    :        -0.0087143407
		Actual       :         0.0014469475

	Performing BFGS update.
	Previous computed or guess Hessian on step 1.
	Steps to be used in Hessian update: 2 1
	Taking RFO optimization step.
	Going to follow RFO solution 1.
	Using RFO vector 1.
	Norm of target step-size    0.24881
	Projected energy change by RFO approximation:        -0.0045686014

	Back-transformation to cartesian coordinates...
	Successfully converged to displaced geometry.

	Back-transformation to cartesian coordinates to adjust frozen coordinates...
	Successfully converged to displaced geometry.

	--- Internal Coordinate Step in ANG or DEG, aJ/ANG or AJ/DEG ---
	 ---------------------------------------------------------------------------
	   Coordinate                Previous        Force       Change         New 
	   ----------                --------       ------       ------       ------
	    1 R(1,2)          =      1.085879    -0.010820    -0.001107     1.084773
	    2 R(2,3)          =      1.515493    -0.026676     0.001344     1.516837
	    3 R(2,4)          =      1.079762     0.017215     0.002132     1.081893
	    4 R(2,5)          =      1.079178     0.017992     0.001210     1.080388
	    5 R(3,6)          =      1.502582    -0.060330    -0.007227     1.495355
	    6 R(3,7)          =      1.081266    -0.016392    -0.002474     1.078792
	    7 R(3,8)          =      1.081387     0.007227     0.000121     1.081509
	    8 R(6,9)          =      1.192617     0.030844    -0.000232     1.192385
	    9 R(6,10)         =      1.190811    -0.012886     0.000891     1.191702
	   10 B(1,2,3)        =    107.690701     0.000004     0.427136   108.117837
	   11 B(1,2,4)        =    108.595748     0.000009    -0.116810   108.478938
	   12 B(1,2,5)        =    108.593097     0.000034     0.086198   108.679295
	   13 B(2,3,6)        =    117.881580    -0.001408    -3.675432   114.206149
	   14 B(2,3,7)        =    113.584956     0.000100    -1.087801   112.497155
	   15 B(2,3,8)        =    112.207180     0.000314     0.698513   112.905693
	   16 B(3,2,4)        =    111.740118    -0.000025    -0.298819   111.441299
	   17 B(3,2,5)        =    111.978275    -0.000087    -0.501612   111.476662
	   18 B(3,6,9)        =    113.626659     0.000740     2.050618   115.677277
	   19 B(3,6,10)       =    121.429742    -0.001174    -2.300484   119.129258
	   20 B(4,2,5)        =    108.149985     0.000068     0.416018   108.566003
	   21 B(6,3,7)        =    103.529081     0.000491     0.594963   104.124044
	   22 B(6,3,8)        =    102.275725     0.000692     2.406025   104.681750
	   23 B(7,3,8)        =    106.052191    -0.000041     1.637808   107.689999
	   24 B(9,6,10)       =    124.535590     0.000502     0.649777   125.185368
	   25 D(1,2,3,6)      =   -179.381211     0.000039     1.336618  -178.044593
	   26 D(1,2,3,7)      =    -58.065026    -0.000051    -1.570356   -59.635383
	   27 D(1,2,3,8)      =     62.207708     0.000007     0.300673    62.508381
	   28 *D(2,3,6,9)     =    169.999983    -0.000000     0.000000   169.999983
	   29 D(2,3,6,10)     =     -2.985200    -0.000142    -7.996278   -10.981478
	   30 D(4,2,3,6)      =    -60.202393     0.000039     1.287315   -58.915078
	   31 D(4,2,3,7)      =     61.113792    -0.000051    -1.619659    59.494132
	   32 D(4,2,3,8)      =   -178.613474     0.000007     0.251370  -178.362104
	   33 D(5,2,3,6)      =     61.302665     0.000041     1.256060    62.558725
	   34 D(5,2,3,7)      =   -177.381151    -0.000049    -1.650914  -179.032065
	   35 D(5,2,3,8)      =    -57.108416     0.000009     0.220115   -56.888301
	   36 D(7,3,6,9)      =     43.638775     0.000098     3.287306    46.926082
	   37 D(7,3,6,10)     =   -129.346407    -0.000044    -4.708972  -134.055379
	   38 D(8,3,6,9)      =    -66.446327     0.000019     0.427656   -66.018671
	   39 D(8,3,6,10)     =    120.568491    -0.000123    -7.568623   112.999868
	 ---------------------------------------------------------------------------

  ==> Convergence Check <==

  Measures of convergence in internal coordinates in au.
  Criteria marked as inactive (o), active & met (*), and active & unmet ( ).
  ---------------------------------------------------------------------------------------------
   Step     Total Energy     Delta E     MAX Force     RMS Force      MAX Disp      RMS Disp   
  ---------------------------------------------------------------------------------------------
    Convergence Criteria    1.00e-06 *    3.00e-04 *             o    1.20e-03 *             o
  ---------------------------------------------------------------------------------------------
      3    -282.69704427    1.45e-03      1.85e-02      5.44e-03 o    1.40e-01      3.98e-02 o  ~
  ---------------------------------------------------------------------------------------------

	Writing optimization data to binary file.
	Structure for next step:
	Cartesian Geometry (in Angstrom)
	    H     2.8848749329  -0.3632819960   0.0391761093
	    C     1.9662494568   0.0730631680  -0.3382647936
	    C     0.8135447801  -0.4682278241   0.4857928269
	    H     1.8645667881  -0.1916391866  -1.3823366852
	    H     2.0368123222   1.1483943295  -0.2613112343
	    N    -0.5326135956   0.0135531404   0.0478068153
	    H     0.7381116023  -1.5431335407   0.4340254950
	    H     0.8768082490  -0.1931245263   1.5298125545
	    O    -1.4656427998  -0.5329410646   0.5503820731
	    O    -0.6016074867   0.9030189517  -0.7422844535
			--------------------------
			 OPTKING Finished Execution 
			--------------------------

    Structure for next step:
    Molecular point group: c1
    Full point group: C1

    Geometry (in Angstrom), charge = 0, multiplicity = 1:

    H            2.867539120151    -0.366153364709     0.042741318553
    C            1.948913714120     0.070191766030    -0.334699555565
    C            0.796209125519    -0.471099184784     0.489358002075
    H            1.847231053207    -0.194510568388    -1.378771367448
    H            2.019476574189     1.145522845445    -0.257746002157
    N           -0.549949147412     0.010681742961     0.051372023840
    H            0.720775953434    -1.546004819240     0.437590674055
    H            0.859472589522    -0.195995907930     1.533377649884
    O           -1.482978280410    -0.535812420294     0.553947243298
    O           -0.618943033211     0.900147486351    -0.738719184539

gradient() will perform analytic gradient computation.

*** tstart() called on cx1-1-4-2.cx1.hpc.ic.ac.uk
*** at Fri Sep  2 13:10:24 2016


         ---------------------------------------------------------
                                   SCF
            by Justin Turney, Rob Parrish, and Andy Simmonett
                              RHF Reference
                        4 Threads,   2000 MiB Core
         ---------------------------------------------------------

  ==> Geometry <==

    Molecular point group: c1
    Full point group: C1

    Geometry (in Angstrom), charge = 0, multiplicity = 1:

       Center              X                  Y                   Z               Mass       
    ------------   -----------------  -----------------  -----------------  -----------------
           H          2.867539120151    -0.366153364709     0.042741318553     1.007825032070
           C          1.948913714120     0.070191766030    -0.334699555565    12.000000000000
           C          0.796209125519    -0.471099184784     0.489358002075    12.000000000000
           H          1.847231053207    -0.194510568388    -1.378771367448     1.007825032070
           H          2.019476574189     1.145522845445    -0.257746002157     1.007825032070
           N         -0.549949147412     0.010681742961     0.051372023840    14.003074004780
           H          0.720775953434    -1.546004819240     0.437590674055     1.007825032070
           H          0.859472589522    -0.195995907930     1.533377649884     1.007825032070
           O         -1.482978280410    -0.535812420294     0.553947243298    15.994914619560
           O         -0.618943033211     0.900147486351    -0.738719184539    15.994914619560

  Running in c1 symmetry.

  Rotational constants: A =      0.37156  B =      0.13992  C =      0.10594 [cm^-1]
  Rotational constants: A =  11139.13640  B =   4194.67200  C =   3175.97421 [MHz]
  Nuclear repulsion =  185.715935173135620

  Charge       = 0
  Multiplicity = 1
  Electrons    = 40
  Nalpha       = 20
  Nbeta        = 20

  ==> Algorithm <==

  SCF Algorithm Type is DF.
  DIIS enabled.
  MOM disabled.
  Fractional occupation disabled.
  Guess Type is READ.
  Energy threshold   = 1.00e-08
  Density threshold  = 1.00e-08
  Integral threshold = 0.00e+00

  ==> Primary Basis <==

  Basis Set: 6-31G*
    Number of shells: 40
    Number of basis function: 85
    Number of Cartesian functions: 85
    Spherical Harmonics?: false
    Max angular momentum: 2

  ==> Pre-Iterations <==

   -------------------------------------------------------
    Irrep   Nso     Nmo     Nalpha   Nbeta   Ndocc  Nsocc
   -------------------------------------------------------
     A         85      85       0       0       0       0
   -------------------------------------------------------
    Total      85      85      20      20      20       0
   -------------------------------------------------------

 OEINTS: Overlap, kinetic, potential, dipole, and quadrupole integrals
         stored in file 35.

  ==> Integral Setup <==

  ==> DFJK: Density-Fitted J/K Matrices <==

    J tasked:                  Yes
    K tasked:                  Yes
    wK tasked:                  No
    OpenMP threads:              4
    Integrals threads:           4
    Memory (MB):              1430
    Algorithm:                Core
    Integral Cache:           NONE
    Schwarz Cutoff:          1E-12
    Fitting Condition:       1E-12

   => Auxiliary Basis Set <=

  Basis Set: 
    Number of shells: 165
    Number of basis function: 530
    Number of Cartesian functions: 530
    Spherical Harmonics?: false
    Max angular momentum: 3

  Minimum eigenvalue in the overlap matrix is 3.1936170657E-03.
  Using Symmetric Orthogonalization.
  SCF Guess: Reading in previously saved MOs, projecting if necessary.

  Using orbitals from previous SCF, no projection.
  Recomputing DOCC and SOCC from number of alpha and beta electrons from previous calculation.
              A 
    DOCC [    20 ]

  ==> Iterations <==

                           Total Energy        Delta E     RMS |[F,P]|

   @DF-RHF iter   0:  -282.68722562797376   -2.82687e+02   3.28028e-03 
   @DF-RHF iter   1:  -282.69891207676989   -1.16864e-02   4.50758e-04 
   @DF-RHF iter   2:  -282.70000135232328   -1.08928e-03   2.21625e-04 DIIS
   @DF-RHF iter   3:  -282.70017670070035   -1.75348e-04   1.25593e-04 DIIS
   @DF-RHF iter   4:  -282.70024681153035   -7.01108e-05   2.39898e-05 DIIS
   @DF-RHF iter   5:  -282.70025184097386   -5.02944e-06   1.16514e-05 DIIS
   @DF-RHF iter   6:  -282.70025419382006   -2.35285e-06   5.13346e-06 DIIS
   @DF-RHF iter   7:  -282.70025471251915   -5.18699e-07   2.66972e-06 DIIS
   @DF-RHF iter   8:  -282.70025481986505   -1.07346e-07   1.01856e-06 DIIS
   @DF-RHF iter   9:  -282.70025483598971   -1.61247e-08   2.90987e-07 DIIS
   @DF-RHF iter  10:  -282.70025483700971   -1.02000e-09   8.73623e-08 DIIS
   @DF-RHF iter  11:  -282.70025483710032   -9.06084e-11   2.62103e-08 DIIS
   @DF-RHF iter  12:  -282.70025483710987   -9.54969e-12   1.18685e-08 DIIS
   @DF-RHF iter  13:  -282.70025483711191   -2.04636e-12   5.44654e-09 DIIS

  ==> Post-Iterations <==

    Orbital Energies (a.u.)
    -----------------------

    Doubly Occupied:                                                      

       1A    -20.605399     2A    -20.599449     3A    -15.850255  
       4A    -11.305812     5A    -11.247251     6A     -1.632874  
       7A     -1.418025     8A     -1.124567     9A     -0.967925  
      10A     -0.833726    11A     -0.759317    12A     -0.749332  
      13A     -0.726593    14A     -0.638140    15A     -0.595219  
      16A     -0.564724    17A     -0.539770    18A     -0.486785  
      19A     -0.478481    20A     -0.449965  

    Virtual:                                                              

      21A      0.119009    22A      0.219188    23A      0.270316  
      24A      0.282814    25A      0.290806    26A      0.321936  
      27A      0.330809    28A      0.378116    29A      0.528578  
      30A      0.593496    31A      0.692673    32A      0.699549  
      33A      0.744351    34A      0.781895    35A      0.833076  
      36A      0.860069    37A      0.932743    38A      1.001787  
      39A      1.014328    40A      1.071358    41A      1.092304  
      42A      1.101513    43A      1.126254    44A      1.155382  
      45A      1.163587    46A      1.197152    47A      1.225016  
      48A      1.245085    49A      1.302086    50A      1.309155  
      51A      1.330453    52A      1.369447    53A      1.578860  
      54A      1.679743    55A      1.706128    56A      1.745767  
      57A      1.774058    58A      1.963116    59A      2.029750  
      60A      2.091959    61A      2.108682    62A      2.134323  
      63A      2.161513    64A      2.197137    65A      2.261902  
      66A      2.332574    67A      2.363491    68A      2.409179  
      69A      2.503681    70A      2.566602    71A      2.634129  
      72A      2.667827    73A      2.813529    74A      2.834567  
      75A      2.858057    76A      3.068883    77A      3.217807  
      78A      3.282243    79A      3.304594    80A      3.499039  
      81A      4.079669    82A      4.196167    83A      4.262536  
      84A      4.604256    85A      4.831851  

    Final Occupation by Irrep:
[...]
      48A      1.244882    49A      1.302446    50A      1.310053  
      51A      1.330718    52A      1.371816    53A      1.578276  
      54A      1.678961    55A      1.708151    56A      1.744883  
      57A      1.786677    58A      1.968223    59A      2.032805  
      60A      2.090659    61A      2.107852    62A      2.136420  
      63A      2.161940    64A      2.197286    65A      2.266665  
      66A      2.335468    67A      2.364851    68A      2.405560  
      69A      2.505470    70A      2.565694    71A      2.635026  
      72A      2.670231    73A      2.812571    74A      2.836990  
      75A      2.861645    76A      3.070880    77A      3.218898  
      78A      3.282908    79A      3.308506    80A      3.500893  
      81A      4.085953    82A      4.198094    83A      4.265674  
      84A      4.605894    85A      4.833371  

    Final Occupation by Irrep:
              A 
    DOCC [    20 ]

  Energy converged.

  @DF-RHF Final Energy:  -282.70037364570567

   => Energetics <=

    Nuclear Repulsion Energy =            186.0887869990202148
    One-Electron Energy =                -754.4274288735983873
    Two-Electron Energy =                 285.6382682288725618
    DFT Exchange-Correlation Energy =       0.0000000000000000
    Empirical Dispersion Energy =           0.0000000000000000
    PCM Polarization Energy =               0.0000000000000000
    EFP Energy =                            0.0000000000000000
    Total Energy =                       -282.7003736457055538

    Alert: EFP and PCM quantities not currently incorporated into SCF psivars.

Properties will be evaluated at   0.000000,   0.000000,   0.000000 Bohr
  ==> Properties <==


Properties computed using the SCF density matrix

  Nuclear Dipole Moment: (a.u.)
     X:     7.7262      Y:    -1.0929      Z:     0.3495

  Electronic Dipole Moment: (a.u.)
     X:    -6.2069      Y:     0.6414      Z:     0.0255

  Dipole Moment: (a.u.)
     X:     1.5192      Y:    -0.4515      Z:     0.3750     Total:     1.6287

  Dipole Moment: (Debye)
     X:     3.8615      Y:    -1.1476      Z:     0.9533     Total:     4.1397


  Saving occupied orbitals to File 180.

*** tstop() called on cx1-1-4-2.cx1.hpc.ic.ac.uk at Fri Sep  2 13:10:44 2016
Module time:
	user time   =       6.55 seconds =       0.11 minutes
	system time =       0.10 seconds =       0.00 minutes
	total time  =          3 seconds =       0.05 minutes
Total time:
	user time   =     108.34 seconds =       1.81 minutes
	system time =       1.81 seconds =       0.03 minutes
	total time  =         37 seconds =       0.62 minutes

*** tstart() called on cx1-1-4-2.cx1.hpc.ic.ac.uk
*** at Fri Sep  2 13:10:44 2016


         ------------------------------------------------------------
                                   SCF GRAD                          
                          Rob Parrish, Justin Turney,                
                       Andy Simmonett, and Alex Sokolov              
         ------------------------------------------------------------

  ==> Geometry <==

    Molecular point group: c1
    Full point group: C1

    Geometry (in Angstrom), charge = 0, multiplicity = 1:

       Center              X                  Y                   Z               Mass       
    ------------   -----------------  -----------------  -----------------  -----------------
           H          2.860768956373    -0.351192994271     0.042021902637     1.007825032070
           C          1.934321569947     0.067982533437    -0.335284435551    12.000000000000
           C          0.790875439307    -0.484017855337     0.490663790583    12.000000000000
           H          1.834352582813    -0.203771414566    -1.377998964237     1.007825032070
           H          1.987971308579     1.145309258742    -0.265832563714     1.007825032070
           N         -0.547105980476     0.010365832957     0.052006095421    14.003074004780
           H          0.713778068066    -1.559485515727     0.443834052679     1.007825032070
           H          0.853654186666    -0.198539556950     1.531912511714     1.007825032070
           O         -1.489576429258    -0.531434937639     0.543118603008    15.994914619560
           O         -0.595854165239     0.908060123708    -0.728781392808    15.994914619560

  Nuclear repulsion =  186.088786999020215

  ==> Basis Set <==

  Basis Set: 6-31G*
    Number of shells: 40
    Number of basis function: 85
    Number of Cartesian functions: 85
    Spherical Harmonics?: false
    Max angular momentum: 2

  ==> DFJKGrad: Density-Fitted SCF Gradients <==

    Gradient:                    1
    J tasked:                  Yes
    K tasked:                  Yes
    wK tasked:                  No
    OpenMP threads:              4
    Integrals threads:           4
    Memory (MB):              1430
    Schwarz Cutoff:          0E+00
    Fitting Condition:       1E-12

   => Auxiliary Basis Set <=

  Basis Set: 
    Number of shells: 165
    Number of basis function: 530
    Number of Cartesian functions: 530
    Spherical Harmonics?: false
    Max angular momentum: 3


  -Total Gradient:
     Atom            X                  Y                   Z
    ------   -----------------  -----------------  -----------------
       1       -0.000006812710    -0.000000580092     0.000000657375
       2       -0.000018799237     0.000029959205    -0.000011136492
       3       -0.000019390987    -0.000031077660    -0.000012602005
       4        0.000027554329     0.000015459831    -0.000011555897
       5       -0.000006313869    -0.000009011388    -0.000004479563
       6       -0.000179020922    -0.000006733184    -0.000068510420
       7       -0.000044606369     0.000019448270     0.000001296546
       8       -0.000016712897     0.000002973741     0.000034861152
       9        0.000090615322    -0.000115982422     0.000153927993
      10        0.000173487341     0.000095543700    -0.000082458688


*** tstop() called on cx1-1-4-2.cx1.hpc.ic.ac.uk at Fri Sep  2 13:10:46 2016
Module time:
	user time   =       8.41 seconds =       0.14 minutes
	system time =       0.11 seconds =       0.00 minutes
	total time  =          2 seconds =       0.03 minutes
Total time:
	user time   =     116.78 seconds =       1.95 minutes
	system time =       1.92 seconds =       0.03 minutes
	total time  =         39 seconds =       0.65 minutes
CURRENT ENERGY: -282.7003736457

			-----------------------------------------
			 OPTKING 2.0: for geometry optimizations 
			  - R.A. King,  Bethel University        
			-----------------------------------------

	Previous internal coordinate definitions found.
	---Fragment 1 Geometry and Gradient---
	 H           5.4060698570       -0.6636585790        0.0794098876
	 C           3.6553380201        0.1284683700       -0.6335957598
	 C           1.4945379855       -0.9146611900        0.9272201875
	 H           3.4664240127       -0.3850721672       -2.6040406538
	 H           3.7567213332        2.1643208365       -0.5023507426
	 N          -1.0338804688        0.0195885854        0.0982772776
	 H           1.3488450683       -2.9470005329        0.8387248080
	 H           1.6131726250       -0.3751853892        2.8948951067
	 O          -2.8148915053       -1.0042664896        1.0263454174
	 O          -1.1260011874        1.7159849460       -1.3771972432
	            -0.0000068127       -0.0000005801        0.0000006574
	            -0.0000187992        0.0000299592       -0.0000111365
	            -0.0000193910       -0.0000310777       -0.0000126020
	             0.0000275543        0.0000154598       -0.0000115559
	            -0.0000063139       -0.0000090114       -0.0000044796
	            -0.0001790209       -0.0000067332       -0.0000685104
	            -0.0000446064        0.0000194483        0.0000012965
	            -0.0000167129        0.0000029737        0.0000348612
	             0.0000906153       -0.0001159824        0.0001539280
	             0.0001734873        0.0000955437       -0.0000824587

	---Fragment 1 Intrafragment Coordinates---
	 - Coordinate -           - BOHR/RAD -       - ANG/DEG -
	 R(1,2)           =         2.049611	       1.084607
	 R(2,3)           =         2.862398	       1.514716
	 R(2,4)           =         2.045010	       1.082173
	 R(2,5)           =         2.042596	       1.080895
	 R(3,6)           =         2.820083	       1.492324
	 R(3,7)           =         2.039476	       1.079244
	 R(3,8)           =         2.043735	       1.081498
	 R(6,9)           =         2.254238	       1.192892
	 R(6,10)          =         2.250172	       1.190740
	 B(1,2,3)         =         1.890495	     108.317367
	 B(1,2,4)         =         1.893409	     108.484325
	 B(1,2,5)         =         1.897003	     108.690251
	 B(2,3,6)         =         1.977743	     113.316333
	 B(2,3,7)         =         1.975141	     113.167232
	 B(2,3,8)         =         1.965976	     112.642106
	 B(3,2,4)         =         1.943518	     111.355354
	 B(3,2,5)         =         1.945132	     111.447835
	 B(3,6,9)         =         2.022920	     115.904804
	 B(3,6,10)        =         2.070542	     118.633334
	 B(4,2,5)         =         1.893135	     108.468673
	 B(6,3,7)         =         1.826910	     104.674210
	 B(6,3,8)         =         1.820999	     104.335536
	 B(7,3,8)         =         1.884901	     107.996874
	 B(9,6,10)        =         2.189557	     125.452369
	 D(1,2,3,6)       =        -3.128701	    -179.261368
	 D(1,2,3,7)       =        -1.052132	     -60.282731
	 D(1,2,3,8)       =         1.092225	      62.579861
	*D(2,3,6,9)       =         2.967059	     169.999983
	 D(2,3,6,10)      =        -0.193022	     -11.059372
	 D(4,2,3,6)       =        -1.048074	     -60.050228
	 D(4,2,3,7)       =         1.028495	      58.928409
	 D(4,2,3,8)       =        -3.110334	    -178.209000
	 D(5,2,3,6)       =         1.068466	      61.218580
	 D(5,2,3,7)       =        -3.138151	    -179.802783
	 D(5,2,3,8)       =        -0.993794	     -56.940192
	 D(7,3,6,9)       =         0.807044	      46.240208
	 D(7,3,6,10)      =        -2.353038	    -134.819146
	 D(8,3,6,9)       =        -1.171528	     -67.123626
	 D(8,3,6,10)      =         1.951575	     111.817019

	Current energy   :      -282.7003736457

	Energy change for the previous step:
		Projected    :        -0.0000023364
		Actual       :        -0.0000019078
	Energy ratio indicates good step: Trust radius increased to 3.750e-01.


	Performing BFGS update.
	Previous computed or guess Hessian on step 1.
	Steps to be used in Hessian update: 6 5
	Taking RFO optimization step.
	Going to follow RFO solution 1.
	Using RFO vector 1.
	Norm of target step-size    0.00118
	Projected energy change by RFO approximation:        -0.0000003589

	Back-transformation to cartesian coordinates...
	Successfully converged to displaced geometry.

	Back-transformation to cartesian coordinates to adjust frozen coordinates...
	Successfully converged to displaced geometry.

	--- Internal Coordinate Step in ANG or DEG, aJ/ANG or AJ/DEG ---
	 ---------------------------------------------------------------------------
	   Coordinate                Previous        Force       Change         New 
	   ----------                --------       ------       ------       ------
	    1 R(1,2)          =      1.084607     0.000044     0.000002     1.084609
	    2 R(2,3)          =      1.514716    -0.000199    -0.000030     1.514686
	    3 R(2,4)          =      1.082173    -0.000039    -0.000010     1.082163
	    4 R(2,5)          =      1.080895     0.000079     0.000022     1.080917
	    5 R(3,6)          =      1.492324     0.000710     0.000072     1.492395
	    6 R(3,7)          =      1.079244     0.000134     0.000023     1.079267
	    7 R(3,8)          =      1.081498    -0.000275    -0.000050     1.081448
	    8 R(6,9)          =      1.192892    -0.000366    -0.000014     1.192878
	    9 R(6,10)         =      1.190740    -0.000980    -0.000044     1.190695
	   10 B(1,2,3)        =    108.317367     0.000001     0.001960   108.319328
	   11 B(1,2,4)        =    108.484325     0.000001     0.003200   108.487525
	   12 B(1,2,5)        =    108.690251    -0.000000     0.001315   108.691565
	   13 B(2,3,6)        =    113.316333     0.000001    -0.003478   113.312855
	   14 B(2,3,7)        =    113.167232    -0.000002    -0.011775   113.155457
	   15 B(2,3,8)        =    112.642106    -0.000001    -0.006171   112.635935
	   16 B(3,2,4)        =    111.355354    -0.000004    -0.016775   111.338579
	   17 B(3,2,5)        =    111.447835     0.000001     0.005765   111.453601
	   18 B(3,6,9)        =    115.904804     0.000013     0.027534   115.932339
	   19 B(3,6,10)       =    118.633334     0.000009     0.015491   118.648825
	   20 B(4,2,5)        =    108.468673     0.000001     0.004834   108.473507
	   21 B(6,3,7)        =    104.674210     0.000002     0.018443   104.692653
	   22 B(6,3,8)        =    104.335536     0.000000     0.003392   104.338927
	   23 B(7,3,8)        =    107.996874     0.000001     0.002485   107.999359
	   24 B(9,6,10)       =    125.452369    -0.000022    -0.043065   125.409305
	   25 D(1,2,3,6)      =   -179.261368    -0.000000     0.002916  -179.258452
	   26 D(1,2,3,7)      =    -60.282731     0.000000     0.015948   -60.266782
	   27 D(1,2,3,8)      =     62.579861    -0.000000     0.005360    62.585220
	   28 *D(2,3,6,9)     =    169.999983    -0.000000     0.000000   169.999983
	   29 D(2,3,6,10)     =    -11.059372     0.000000    -0.002713   -11.062084
	   30 D(4,2,3,6)      =    -60.050228    -0.000000    -0.001939   -60.052168
	   31 D(4,2,3,7)      =     58.928409     0.000000     0.011093    58.939502
	   32 D(4,2,3,8)      =   -178.209000    -0.000000     0.000504  -178.208496
	   33 D(5,2,3,6)      =     61.218580    -0.000000    -0.003433    61.215147
	   34 D(5,2,3,7)      =   -179.802783     0.000000     0.009600  -179.793183
	   35 D(5,2,3,8)      =    -56.940192    -0.000000    -0.000989   -56.941181
	   36 D(7,3,6,9)      =     46.240208     0.000000     0.003966    46.244174
	   37 D(7,3,6,10)     =   -134.819146     0.000000     0.001253  -134.817893
	   38 D(8,3,6,9)      =    -67.123626    -0.000000    -0.007348   -67.130974
	   39 D(8,3,6,10)     =    111.817019    -0.000000    -0.010060   111.806959
	 ---------------------------------------------------------------------------

  ==> Convergence Check <==

  Measures of convergence in internal coordinates in au.
  Criteria marked as inactive (o), active & met (*), and active & unmet ( ).
  ---------------------------------------------------------------------------------------------
   Step     Total Energy     Delta E     MAX Force     RMS Force      MAX Disp      RMS Disp   
  ---------------------------------------------------------------------------------------------
    Convergence Criteria    1.00e-06 *    3.00e-04 *             o    1.20e-03 *             o
  ---------------------------------------------------------------------------------------------
      7    -282.70037365   -1.91e-06      2.88e-04 *    6.39e-05 o    7.52e-04 *    1.89e-04 o  ~
  ---------------------------------------------------------------------------------------------


  **** Optimization is complete! (in 7 steps) ****

  ==> Optimization Summary <==

  Measures of convergence in internal coordinates in au.
  --------------------------------------------------------------------------------------------------------------- ~
   Step         Total Energy             Delta E       MAX Force       RMS Force        MAX Disp        RMS Disp  ~
  --------------------------------------------------------------------------------------------------------------- ~
      1    -282.699280109456   -282.699280109456      0.01480242      0.00406018      0.18445439      0.05058561  ~
      2    -282.698491213110      0.000788896347      0.00888979      0.00325011      0.29584799      0.07978044  ~
      3    -282.697044265572      0.001446947538      0.01849930      0.00544494      0.13956138      0.03980639  ~
      4    -282.700254837112     -0.003210571540      0.00422828      0.00127865      0.03665116      0.01506097  ~
      5    -282.700333476183     -0.000078639071      0.00262437      0.00082190      0.01719642      0.00717345  ~
      6    -282.700371737902     -0.000038261719      0.00081563      0.00019704      0.00422543      0.00190700  ~
      7    -282.700373645706     -0.000001907804      0.00028789      0.00006395      0.00075162      0.00018944  ~
  --------------------------------------------------------------------------------------------------------------- ~

	Writing optimization data to binary file.
	Final energy is   -282.7003736457057
	Final (previous) structure:
	Cartesian Geometry (in Angstrom)
	    H     2.8607691748  -0.3511930211   0.0420219058
	    C     1.9343217177   0.0679825386  -0.3352844612
	    C     0.7908754997  -0.4840178923   0.4906638281
	    H     1.8343527229  -0.2037714301  -1.3779990695
	    H     1.9879714604   1.1453093462  -0.2658325840
	    N    -0.5471060223   0.0103658337   0.0520060994
	    H     0.7137781226  -1.5594856348   0.4438340866
	    H     0.8536542519  -0.1985395721   1.5319126287
	    O    -1.4895765430  -0.5314349782   0.5431186445
	    O    -0.5958542107   0.9080601931  -0.7287814485
	Saving final (previous) structure.
			--------------------------
			 OPTKING Finished Execution 
			--------------------------

    Final optimized geometry and variables:
    Molecular point group: c1
    Full point group: C1

    Geometry (in Angstrom), charge = 0, multiplicity = 1:

    H            2.860768956373    -0.351192994271     0.042021902637
    C            1.934321569947     0.067982533437    -0.335284435551
    C            0.790875439307    -0.484017855337     0.490663790583
    H            1.834352582813    -0.203771414566    -1.377998964237
    H            1.987971308579     1.145309258742    -0.265832563714
    N           -0.547105980476     0.010365832957     0.052006095421
    H            0.713778068066    -1.559485515727     0.443834052679
    H            0.853654186666    -0.198539556950     1.531912511714
    O           -1.489576429258    -0.531434937639     0.543118603008
    O           -0.595854165239     0.908060123708    -0.728781392808

	Cleaning optimization helper files.


Properties will be evaluated at   0.000000,   0.000000,   0.000000 Bohr

Properties computed using the  density matrix

  Nuclear Dipole Moment: (a.u.)
     X:     7.7262      Y:    -1.0929      Z:     0.3495

  Electronic Dipole Moment: (a.u.)
     X:    -6.2069      Y:     0.6414      Z:     0.0255

  Dipole Moment: (a.u.)
     X:     1.5192      Y:    -0.4515      Z:     0.3750     Total:     1.6287

  Dipole Moment: (Debye)
     X:     3.8615      Y:    -1.1476      Z:     0.9533     Total:     4.1397

  Quadrupole Moment: (Debye Ang)
    XX:   -31.7947     YY:   -30.1624     ZZ:   -29.4922
    XY:    -0.9547     XZ:     1.1206     YZ:     2.0470

  Traceless Quadrupole Moment: (Debye Ang)
    XX:    -1.3116     YY:     0.3207     ZZ:     0.9909
    XY:    -0.9547     XZ:     1.1206     YZ:     2.0470

  Mulliken Charges: (a.u.)
   Center  Symbol    Alpha    Beta     Spin     Total
       1     H     0.40986  0.40986  0.00000  0.18028
       2     C     3.24986  3.24986  0.00000 -0.49973
       3     C     3.09547  3.09547  0.00000 -0.19093
       4     H     0.40156  0.40156  0.00000  0.19688
       5     H     0.39794  0.39794  0.00000  0.20411
       6     N     3.22035  3.22035  0.00000  0.55931
       7     H     0.38476  0.38476  0.00000  0.23048
       8     H     0.38415  0.38415  0.00000  0.23170
       9     O     4.22894  4.22894  0.00000 -0.45787
      10     O     4.22711  4.22711  0.00000 -0.45422

   Total alpha = 20.00000, Total beta = 20.00000, Total charge = -0.00000


*** PSI4 exiting successfully. Buy a developer a beer!
