    -----------------------------------------------------------------------
          Psi4: An Open-Source Ab Initio Electronic Structure Package
                              Psi4 (no tag) Driver

                          Git: Rev {detached?}  

    J. M. Turney, A. C. Simmonett, R. M. Parrish, E. G. Hohenstein,
    F. A. Evangelista, J. T. Fermann, B. J. Mintz, L. A. Burns, J. J. Wilke,
    M. L. Abrams, N. J. Russ, M. L. Leininger, C. L. Janssen, E. T. Seidl,
    W. D. Allen, H. F. Schaefer, R. A. King, E. F. Valeev, C. D. Sherrill,
    and T. D. Crawford, WIREs Comput. Mol. Sci. 2, 556-565 (2012)
    (doi: 10.1002/wcms.93)

                         Additional Contributions by
    A. E. DePrince, M. Saitow, U. Bozkaya, A. Yu. Sokolov
    -----------------------------------------------------------------------


    Psi4 started on: Fri Sep  2 11:35:16 2016

    Process ID:  29681
    PSI4DATADIR: /export131/home/mjharvey/miniconda3/share
    Memory level set to 256.000 MB

  ==> Input File <==

--------------------------------------------------------------------------
set {
	reference rhf
	basis 6-31G*
}


set_num_threads( 4 )
memory 2 gb

molecule MOL {
0 1

H	 -3.042581	 -0.665861	 0.004336
O	 -2.245037	 -1.176175	 0.000806
C	 -1.162163	 -0.365336	 0.001020
C	 -0.805725	 0.398082	 1.098050
C	 -0.403710	 -0.319818	 -1.162384
H	 -1.394166	 0.365893	 1.999533
C	 0.318413	 1.208016	 1.019110
H	 -0.710853	 -0.924220	 -1.996338
C	 0.717853	 0.487174	 -1.239655
H	 0.597132	 1.804817	 1.869512
C	 1.076100	 1.257855	 -0.133453
C	 1.557041	 0.519335	 -2.495772
H	 1.943426	 1.892604	 -0.180019
H	 1.842787	 1.534645	 -2.749316
H	 1.022539	 0.099548	 -3.339541
H	 2.470465	 -0.053782	 -2.363330

	symmetry c1
}
set optking {
	frozen_dihedral = ("
		5 3 2 1
	")
}

ee = optimize('scf')
oeprop('DIPOLE', 'QUADRUPOLE', 'MULLIKEN_CHARGES')
f=open( 'psi4out.xyz', 'w' )
f.write( "16  " )
f.write( str(ee) + "\n" )
f.write( MOL.save_string_xyz() )
f.close()
--------------------------------------------------------------------------

  Memory set to   2.000 GiB by Python script.
gradient() will perform analytic gradient computation.

*** tstart() called on cx1-1-2-4.cx1.hpc.ic.ac.uk
*** at Fri Sep  2 11:35:16 2016


         ---------------------------------------------------------
                                   SCF
            by Justin Turney, Rob Parrish, and Andy Simmonett
                              RHF Reference
                        4 Threads,   2000 MiB Core
         ---------------------------------------------------------

  ==> Geometry <==

    Molecular point group: c1
    Full point group: C1

    Geometry (in Angstrom), charge = 0, multiplicity = 1:

       Center              X                  Y                   Z               Mass       
    ------------   -----------------  -----------------  -----------------  -----------------
           H         -2.879840207705    -0.883302991134     0.390724105573     1.007825032070
           O         -2.082296207705    -1.393616991134     0.387194105573    15.994914619560
           C         -0.999422207705    -0.582777991134     0.387408105573    12.000000000000
           C         -0.642984207705     0.180640008866     1.484438105573    12.000000000000
           C         -0.240969207705    -0.537259991134    -0.775995894427    12.000000000000
           H         -1.231425207705     0.148451008866     2.385921105573     1.007825032070
           C          0.481153792295     0.990574008866     1.405498105573    12.000000000000
           H         -0.548112207705    -1.141661991134    -1.609949894427     1.007825032070
           C          0.880593792295     0.269732008866    -0.853266894427    12.000000000000
           H          0.759872792295     1.587375008866     2.255900105573     1.007825032070
           C          1.238840792295     1.040413008866     0.252935105573    12.000000000000
           C          1.719781792295     0.301893008866    -2.109383894427    12.000000000000
           H          2.106166792295     1.675162008866     0.206369105573     1.007825032070
           H          2.005527792295     1.317203008866    -2.362927894427     1.007825032070
           H          1.185279792295    -0.117893991134    -2.953152894427     1.007825032070
           H          2.633205792295    -0.271223991134    -1.976941894427     1.007825032070

  Running in c1 symmetry.

  Rotational constants: A =      0.12287  B =      0.06080  C =      0.04111 [cm^-1]
  Rotational constants: A =   3683.61562  B =   1822.76678  C =   1232.53571 [MHz]
  Nuclear repulsion =  345.541705648005916

  Charge       = 0
  Multiplicity = 1
  Electrons    = 58
  Nalpha       = 29
  Nbeta        = 29

  ==> Algorithm <==

  SCF Algorithm Type is DF.
  DIIS enabled.
  MOM disabled.
  Fractional occupation disabled.
  Guess Type is CORE.
  Energy threshold   = 1.00e-08
  Density threshold  = 1.00e-08
  Integral threshold = 0.00e+00

  ==> Primary Basis <==

  Basis Set: 6-31G*
    Number of shells: 64
    Number of basis function: 136
    Number of Cartesian functions: 136
    Spherical Harmonics?: false
    Max angular momentum: 2

  ==> Pre-Iterations <==

   -------------------------------------------------------
    Irrep   Nso     Nmo     Nalpha   Nbeta   Ndocc  Nsocc
   -------------------------------------------------------
     A        136     136       0       0       0       0
   -------------------------------------------------------
    Total     136     136      29      29      29       0
   -------------------------------------------------------

 OEINTS: Overlap, kinetic, potential, dipole, and quadrupole integrals
         stored in file 35.

  ==> Integral Setup <==

  ==> DFJK: Density-Fitted J/K Matrices <==

    J tasked:                  Yes
    K tasked:                  Yes
    wK tasked:                  No
    OpenMP threads:              4
    Integrals threads:           4
    Memory (MB):              1430
    Algorithm:                Core
    Integral Cache:           NONE
    Schwarz Cutoff:          1E-12
    Fitting Condition:       1E-12

   => Auxiliary Basis Set <=

  Basis Set: 
    Number of shells: 264
    Number of basis function: 848
    Number of Cartesian functions: 848
    Spherical Harmonics?: false
    Max angular momentum: 3

  Minimum eigenvalue in the overlap matrix is 4.1195278209E-04.
  Using Symmetric Orthogonalization.
  SCF Guess: Core (One-Electron) Hamiltonian.

  ==> Iterations <==

                           Total Energy        Delta E     RMS |[F,P]|

   @DF-RHF iter   1:  -269.17475275695523   -2.69175e+02   6.61151e-02 
   @DF-RHF iter   2:  -220.81853997435661    4.83562e+01   5.51119e-02 DIIS
   @DF-RHF iter   3:  -272.30958744102116   -5.14910e+01   6.07827e-02 DIIS
   @DF-RHF iter   4:  -328.21008859210684   -5.59005e+01   2.92203e-02 DIIS
   @DF-RHF iter   5:  -336.14729395525575   -7.93721e+00   2.40739e-02 DIIS
   @DF-RHF iter   6:  -344.05620122692909   -7.90891e+00   6.96942e-03 DIIS
   @DF-RHF iter   7:  -344.54096634723993   -4.84765e-01   2.16695e-03 DIIS
   @DF-RHF iter   8:  -344.58508689215699   -4.41205e-02   5.80754e-04 DIIS
   @DF-RHF iter   9:  -344.58998578275560   -4.89889e-03   1.64173e-04 DIIS
   @DF-RHF iter  10:  -344.59036417134513   -3.78389e-04   8.65446e-05 DIIS
   @DF-RHF iter  11:  -344.59050831221572   -1.44141e-04   2.73696e-05 DIIS
   @DF-RHF iter  12:  -344.59053434932918   -2.60371e-05   1.10287e-05 DIIS
   @DF-RHF iter  13:  -344.59054080724769   -6.45792e-06   5.82275e-06 DIIS
   @DF-RHF iter  14:  -344.59054204415139   -1.23690e-06   2.28676e-06 DIIS
   @DF-RHF iter  15:  -344.59054225195274   -2.07801e-07   4.40773e-07 DIIS
   @DF-RHF iter  16:  -344.59054225748486   -5.53212e-09   1.70337e-07 DIIS
   @DF-RHF iter  17:  -344.59054225811389   -6.29029e-10   4.57266e-08 DIIS
   @DF-RHF iter  18:  -344.59054225817209   -5.82077e-11   1.54672e-08 DIIS
   @DF-RHF iter  19:  -344.59054225818164   -9.54969e-12   8.07943e-09 DIIS

  ==> Post-Iterations <==

    Orbital Energies (a.u.)
    -----------------------

    Doubly Occupied:                                                      

       1A    -20.576572     2A    -11.287205     3A    -11.239823  
       4A    -11.232510     5A    -11.222028     6A    -11.220421  
       7A    -11.220386     8A    -11.217574     9A     -1.398781  
      10A     -1.148840    11A     -1.042296    12A     -1.002692  
      13A     -0.935234    14A     -0.825223    15A     -0.811921  
      16A     -0.716245    17A     -0.676354    18A     -0.655137  
      19A     -0.619484    20A     -0.590398    21A     -0.574312  
      22A     -0.566831    23A     -0.550346    24A     -0.512045  
      25A     -0.503614    26A     -0.478986    27A     -0.460776  
      28A     -0.328056    29A     -0.315599  

    Virtual:                                                              

      30A      0.148550    31A      0.154058    32A      0.234032  
      33A      0.243572    34A      0.267835    35A      0.294534  
      36A      0.312824    37A      0.327347    38A      0.340855  
      39A      0.344105    40A      0.396919    41A      0.412964  
      42A      0.464474    43A      0.471873    44A      0.511505  
      45A      0.553553    46A      0.603347    47A      0.626838  
      48A      0.729452    49A      0.738431    50A      0.754607  
      51A      0.773571    52A      0.775189    53A      0.817959  
      54A      0.835913    55A      0.840840    56A      0.846083  
      57A      0.879447    58A      0.885744    59A      0.898907  
      60A      0.918674    61A      0.954022    62A      0.970779  
      63A      1.007544    64A      1.027610    65A      1.059719  
      66A      1.104438    67A      1.113822    68A      1.128554  
      69A      1.151061    70A      1.163054    71A      1.170434  
      72A      1.194736    73A      1.209376    74A      1.228504  
      75A      1.246504    76A      1.256532    77A      1.291550  
      78A      1.331832    79A      1.388649    80A      1.408969  
      81A      1.430447    82A      1.440377    83A      1.481697  
      84A      1.513249    85A      1.615719    86A      1.624285  
      87A      1.661359    88A      1.721512    89A      1.736393  
      90A      1.768174    91A      1.773111    92A      1.783413  
      93A      1.936016    94A      2.055383    95A      2.098516  
      96A      2.106719    97A      2.152759    98A      2.188028  
      99A      2.203879   100A      2.216589   101A      2.240320  
     102A      2.276322   103A      2.290829   104A      2.327575  
     105A      2.413642   106A      2.454122   107A      2.491728  
     108A      2.495077   109A      2.530755   110A      2.565800  
     111A      2.633790   112A      2.645539   113A      2.700150  
     114A      2.710752   115A      2.724346   116A      2.784357  
     117A      2.877208   118A      2.911296   119A      2.956734  
     120A      3.037855   121A      3.071436   122A      3.127180  
     123A      3.144239   124A      3.197395   125A      3.281931  
     126A      3.343361   127A      3.536436   128A      3.841140  
     129A      4.330383   130A      4.536088   131A      4.552998  
     132A      4.623308   133A      4.676879   134A      4.795887  
     135A      4.879610   136A      5.194544  

    Final Occupation by Irrep:
              A 
    DOCC [    29 ]

  Energy converged.

  @DF-RHF Final Energy:  -344.59054225818164

   => Energetics <=

    Nuclear Repulsion Energy =            345.5417056480059159
    One-Electron Energy =               -1152.4051194579637922
    Two-Electron Energy =                 462.2728715517760634
    DFT Exchange-Correlation Energy =       0.0000000000000000
    Empirical Dispersion Energy =           0.0000000000000000
    PCM Polarization Energy =               0.0000000000000000
    EFP Energy =                            0.0000000000000000
    Total Energy =                       -344.5905422581817561

    Alert: EFP and PCM quantities not currently incorporated into SCF psivars.

Properties will be evaluated at   0.000000,   0.000000,   0.000000 Bohr
  ==> Properties <==


Properties computed using the SCF density matrix

  Nuclear Dipole Moment: (a.u.)
     X:     3.7686      Y:     2.1627      Z:    -3.4331

  Electronic Dipole Moment: (a.u.)
     X:    -3.9171      Y:    -1.5359      Z:     3.3230

  Dipole Moment: (a.u.)
     X:    -0.1485      Y:     0.6268      Z:    -0.1101     Total:     0.6535

  Dipole Moment: (Debye)
     X:    -0.3773      Y:     1.5932      Z:    -0.2797     Total:     1.6610


  Saving occupied orbitals to File 180.

*** tstop() called on cx1-1-2-4.cx1.hpc.ic.ac.uk at Fri Sep  2 11:35:23 2016
Module time:
	user time   =      19.06 seconds =       0.32 minutes
	system time =       0.21 seconds =       0.00 minutes
	total time  =          7 seconds =       0.12 minutes
Total time:
	user time   =      19.06 seconds =       0.32 minutes
	system time =       0.21 seconds =       0.00 minutes
	total time  =          7 seconds =       0.12 minutes

*** tstart() called on cx1-1-2-4.cx1.hpc.ic.ac.uk
*** at Fri Sep  2 11:35:23 2016


         ------------------------------------------------------------
                                   SCF GRAD                          
                          Rob Parrish, Justin Turney,                
                       Andy Simmonett, and Alex Sokolov              
         ------------------------------------------------------------

  ==> Geometry <==

    Molecular point group: c1
    Full point group: C1

    Geometry (in Angstrom), charge = 0, multiplicity = 1:

       Center              X                  Y                   Z               Mass       
    ------------   -----------------  -----------------  -----------------  -----------------
           H         -2.879840207705    -0.883302991134     0.390724105573     1.007825032070
           O         -2.082296207705    -1.393616991134     0.387194105573    15.994914619560
           C         -0.999422207705    -0.582777991134     0.387408105573    12.000000000000
           C         -0.642984207705     0.180640008866     1.484438105573    12.000000000000
           C         -0.240969207705    -0.537259991134    -0.775995894427    12.000000000000
           H         -1.231425207705     0.148451008866     2.385921105573     1.007825032070
           C          0.481153792295     0.990574008866     1.405498105573    12.000000000000
           H         -0.548112207705    -1.141661991134    -1.609949894427     1.007825032070
           C          0.880593792295     0.269732008866    -0.853266894427    12.000000000000
           H          0.759872792295     1.587375008866     2.255900105573     1.007825032070
           C          1.238840792295     1.040413008866     0.252935105573    12.000000000000
           C          1.719781792295     0.301893008866    -2.109383894427    12.000000000000
           H          2.106166792295     1.675162008866     0.206369105573     1.007825032070
           H          2.005527792295     1.317203008866    -2.362927894427     1.007825032070
           H          1.185279792295    -0.117893991134    -2.953152894427     1.007825032070
           H          2.633205792295    -0.271223991134    -1.976941894427     1.007825032070

  Nuclear repulsion =  345.541705648005916

  ==> Basis Set <==

  Basis Set: 6-31G*
    Number of shells: 64
    Number of basis function: 136
    Number of Cartesian functions: 136
    Spherical Harmonics?: false
    Max angular momentum: 2

  ==> DFJKGrad: Density-Fitted SCF Gradients <==

    Gradient:                    1
    J tasked:                  Yes
    K tasked:                  Yes
    wK tasked:                  No
    OpenMP threads:              4
    Integrals threads:           4
    Memory (MB):              1430
    Schwarz Cutoff:          0E+00
    Fitting Condition:       1E-12

   => Auxiliary Basis Set <=

  Basis Set: 
    Number of shells: 264
    Number of basis function: 848
    Number of Cartesian functions: 848
    Spherical Harmonics?: false
    Max angular momentum: 3


  -Total Gradient:
     Atom            X                  Y                   Z
    ------   -----------------  -----------------  -----------------
       1        0.000802462364    -0.000270325568    -0.002095716071
       2        0.011382911617     0.008792267063    -0.003657906745
       3       -0.010147023049    -0.009208054685     0.007260919848
       4        0.002087847567     0.000900320194    -0.000961263410
       5       -0.001453428078    -0.001652330415    -0.004147294490
       6       -0.000096043713     0.001203734807     0.001461139111
       7        0.000458667255    -0.000530005908    -0.001366484311
       8        0.000075398174    -0.000029309521    -0.000008297772
       9       -0.003862297370    -0.000622435628     0.001201099758
      10       -0.000146423455    -0.000055422823    -0.000004999663
      11        0.001635576307     0.001908607899     0.001801874455
      12       -0.000413808266    -0.000427637458    -0.000211175101
      13       -0.000125735443    -0.000033114234     0.000111440082
      14       -0.000141575671    -0.000056270263     0.000270095874
      15        0.000009261021     0.000043180708     0.000136953354
      16       -0.000065789255     0.000036795838     0.000209615079


*** tstop() called on cx1-1-2-4.cx1.hpc.ic.ac.uk at Fri Sep  2 11:35:29 2016
Module time:
	user time   =      22.30 seconds =       0.37 minutes
	system time =       0.22 seconds =       0.00 minutes
	total time  =          6 seconds =       0.10 minutes
Total time:
	user time   =      41.38 seconds =       0.69 minutes
	system time =       0.43 seconds =       0.01 minutes
	total time  =         13 seconds =       0.22 minutes
CURRENT ENERGY: -344.5905422582

			-----------------------------------------
			 OPTKING 2.0: for geometry optimizations 
			  - R.A. King,  Bethel University        
			-----------------------------------------

	Internal coordinates to be generated automatically.
	Detected frag with atoms:  1 2 3 4 5 6 7 8 9 10 11 12 13 14 15 16
	---Fragment 1 Bond Connectivity---
	 1 : 2
	 2 : 1 3
	 3 : 2 4 5
	 4 : 3 6 7
	 5 : 3 8 9
	 6 : 4
	 7 : 4 10 11
	 8 : 5
	 9 : 5 11 12
	 10 : 7
	 11 : 7 9 13
	 12 : 9 14 15 16
	 13 : 11
	 14 : 12
	 15 : 12
	 16 : 12

	Assuming in current code that numbering for constraints corresponds to unified fragment.
	Frozen dihedral atom list: 
	     5     3     2     1
	---Fragment 1 Geometry and Gradient---
	 H          -5.4421092990       -1.6692007456        0.7383615531
	 O          -3.9349695601       -2.6335544474        0.7316908198
	 C          -1.8886342637       -1.1012907995        0.7320952212
	 C          -1.2150640603        0.3413601454        2.8051814808
	 C          -0.4553658090       -1.0152742454       -1.4664197207
	 H          -2.3270563957        0.2805317509        4.5087374642
	 C           0.9092488952        1.8719135911        2.6560064998
	 H          -1.0357819627       -2.1574284996       -3.0423643881
	 C           1.6640811018        0.5097196260       -1.6124407487
	 H           1.4359514733        2.9997040369        4.2630333827
	 C           2.3410698197        1.9660956518        0.4779780789
	 C           3.2499165958        0.5704951082       -3.9861578696
	 H           3.9800784276        3.1655974250        0.3899810918
	 H           3.7898982793        2.4891529482       -4.4652865922
	 H           2.2398541983       -0.2227873560       -5.5806501990
	 H           4.9760377990       -0.5125390639       -3.7358787611
	             0.0008024624       -0.0002703256       -0.0020957161
	             0.0113829116        0.0087922671       -0.0036579067
	            -0.0101470230       -0.0092080547        0.0072609198
	             0.0020878476        0.0009003202       -0.0009612634
	            -0.0014534281       -0.0016523304       -0.0041472945
	            -0.0000960437        0.0012037348        0.0014611391
	             0.0004586673       -0.0005300059       -0.0013664843
	             0.0000753982       -0.0000293095       -0.0000082978
	            -0.0038622974       -0.0006224356        0.0012010998
	            -0.0001464235       -0.0000554228       -0.0000049997
	             0.0016355763        0.0019086079        0.0018018745
	            -0.0004138083       -0.0004276375       -0.0002111751
	            -0.0001257354       -0.0000331142        0.0001114401
	            -0.0001415757       -0.0000562703        0.0002700959
	             0.0000092610        0.0000431807        0.0001369534
	            -0.0000657893        0.0000367958        0.0002096151

	Previous optimization step data not found.  Starting new optimization.

	---Fragment 1 Intrafragment Coordinates---
	 - Coordinate -           - BOHR/RAD -       - ANG/DEG -
	 R(1,2)           =         1.789272	       0.946842
	 R(2,3)           =         2.556427	       1.352803
	 R(3,4)           =         2.613929	       1.383232
	 R(3,5)           =         2.625857	       1.389544
	 R(4,6)           =         2.035271	       1.077019
	 R(4,7)           =         2.622509	       1.387772
	 R(5,8)           =         2.031010	       1.074764
	 R(5,9)           =         2.615145	       1.383875
	 R(7,10)          =         2.032698	       1.075658
	 R(7,11)          =         2.608216	       1.380208
	 R(9,11)          =         2.636133	       1.394981
	 R(9,12)          =         2.855364	       1.510993
	 R(11,13)         =         2.032953	       1.075792
	 R(12,14)         =         2.049974	       1.084799
	 R(12,15)         =         2.047420	       1.083448
	 R(12,16)         =         2.053070	       1.086438
	 B(1,2,3)         =         1.929655	     110.561099
	 B(2,3,4)         =         2.137905	     122.492912
	 B(2,3,5)         =         2.044763	     117.156307
	 B(3,4,6)         =         2.101972	     120.434117
	 B(3,4,7)         =         2.077990	     119.060036
	 B(3,5,8)         =         2.066050	     118.375947
	 B(3,5,9)         =         2.103912	     120.545292
	 B(4,3,5)         =         2.100514	     120.350612
	 B(4,7,10)        =         2.081428	     119.257015
	 B(4,7,11)        =         2.109769	     120.880832
	 B(5,9,11)        =         2.078327	     119.079347
	 B(5,9,12)        =         2.104755	     120.593583
	 B(6,4,7)         =         2.103220	     120.505655
	 B(7,11,9)        =         2.095857	     120.083741
	 B(7,11,13)       =         2.094441	     120.002602
	 B(8,5,9)         =         2.113222	     121.078723
	 B(9,11,13)       =         2.092887	     119.913605
	 B(9,12,14)       =         1.939616	     111.131824
	 B(9,12,15)       =         1.944619	     111.418446
	 B(9,12,16)       =         1.933040	     110.755056
	 B(10,7,11)       =         2.091986	     119.861967
	 B(11,9,12)       =         2.099988	     120.320453
	 B(14,12,15)      =         1.886583	     108.093219
	 B(14,12,16)      =         1.876284	     107.503163
	 B(15,12,16)      =         1.881069	     107.777338
	 D(1,2,3,4)       =         1.219134	      69.851219
	*D(1,2,3,5)       =        -1.919862	    -109.999987
	 D(2,3,4,6)       =        -0.000268	      -0.015348
	 D(2,3,4,7)       =        -3.139093	    -179.856786
	 D(2,3,5,8)       =        -0.000021	      -0.001182
	 D(2,3,5,9)       =         3.140344	     179.928472
	 D(3,4,7,10)      =         3.139033	     179.853366
	 D(3,4,7,11)      =         0.000182	       0.010420
	 D(3,5,9,11)      =        -0.002359	      -0.135180
	 D(3,5,9,12)      =         3.122953	     178.932048
	 D(4,3,5,8)       =        -3.139075	    -179.855748
	 D(4,3,5,9)       =         0.001290	       0.073905
	 D(4,7,11,9)      =        -0.001281	      -0.073369
	 D(4,7,11,13)     =         3.138869	     179.843930
	 D(5,3,4,6)       =         3.138647	     179.831235
	 D(5,3,4,7)       =        -0.000178	      -0.010203
	 D(5,9,11,7)      =         0.002351	       0.134703
	 D(5,9,11,13)     =        -3.137800	    -179.782671
	 D(5,9,12,14)     =         2.394064	     137.169734
	 D(5,9,12,15)     =         0.288933	      16.554663
	 D(5,9,12,16)     =        -1.804753	    -103.404728
	 D(6,4,7,10)      =         0.000210	       0.012045
	 D(6,4,7,11)      =        -3.138641	    -179.830902
	 D(7,11,9,12)     =        -3.123007	    -178.935136
	 D(8,5,9,11)      =         3.137972	     179.792552
	 D(8,5,9,12)      =        -0.019901	      -1.140220
	 D(9,11,7,10)     =        -3.140116	    -179.915372
	 D(10,7,11,13)    =         0.000034	       0.001927
	 D(11,9,12,14)    =        -0.764012	     -43.774636
	 D(11,9,12,15)    =        -2.869142	    -164.389707
	 D(11,9,12,16)    =         1.320357	      75.650902
	 D(12,9,11,13)    =         0.020027	       1.147490

	Current energy   :      -344.5905422582

	Generating empirical Hessian (Schlegel '84) for each fragment.
	Taking RFO optimization step.
	Going to follow RFO solution 1.
	Using RFO vector 1.
	Norm of target step-size    0.09402
	Projected energy change by RFO approximation:        -0.0009078978

	Back-transformation to cartesian coordinates...
	Successfully converged to displaced geometry.

	Back-transformation to cartesian coordinates to adjust frozen coordinates...
	Successfully converged to displaced geometry.

	--- Internal Coordinate Step in ANG or DEG, aJ/ANG or AJ/DEG ---
	 ---------------------------------------------------------------------------
	   Coordinate                Previous        Force       Change         New 
	   ----------                --------       ------       ------       ------
	    1 R(1,2)          =      0.946842     0.006834     0.000750     0.947592
	    2 R(2,3)          =      1.352803     0.122435     0.014419     1.367222
	    3 R(3,4)          =      1.383232    -0.017358    -0.002331     1.380900
	    4 R(3,5)          =      1.389544     0.003192     0.000405     1.389949
	    5 R(4,6)          =      1.077019    -0.010212    -0.001799     1.075221
	    6 R(4,7)          =      1.387772     0.001192     0.000148     1.387920
	    7 R(5,8)          =      1.074764    -0.000011    -0.000002     1.074762
	    8 R(5,9)          =      1.383875     0.016237     0.002163     1.386039
	    9 R(7,10)         =      1.075658     0.000598     0.000105     1.075763
	   10 R(7,11)         =      1.380208     0.012145     0.001611     1.381819
	   11 R(9,11)         =      1.394981    -0.012969    -0.001748     1.393233
	   12 R(9,12)         =      1.510993     0.005648     0.001157     1.512150
	   13 R(11,13)        =      1.075792     0.001036     0.000182     1.075974
	   14 R(12,14)        =      1.084799     0.001261     0.000228     1.085027
	   15 R(12,15)        =      1.083448     0.001054     0.000190     1.083638
	   16 R(12,16)        =      1.086438     0.000405     0.000074     1.086512
	   17 B(1,2,3)        =    110.561099     0.000027     0.128231   110.689330
	   18 B(2,3,4)        =    122.492912    -0.000562    -1.677359   120.815554
	   19 B(2,3,5)        =    117.156307     0.000607     1.828888   118.985195
	   20 B(3,4,6)        =    120.434117    -0.000118    -0.521081   119.913036
	   21 B(3,4,7)        =    119.060036     0.000025     0.056180   119.116216
	   22 B(3,5,8)        =    118.375947    -0.000067    -0.224662   118.151286
	   23 B(3,5,9)        =    120.545292     0.000126     0.406480   120.951772
	   24 B(4,3,5)        =    120.350612    -0.000045    -0.169868   120.180744
	   25 B(4,7,10)       =    119.257015     0.000021     0.089750   119.346765
	   26 B(4,7,11)       =    120.880832    -0.000022    -0.085948   120.794884
	   27 B(5,9,11)       =    119.079347    -0.000172    -0.513431   118.565915
	   28 B(5,9,12)       =    120.593583     0.000120     0.362450   120.956033
	   29 B(6,4,7)        =    120.505655     0.000093     0.462536   120.968191
	   30 B(7,11,9)       =    120.083741     0.000087     0.298698   120.382440
	   31 B(7,11,13)      =    120.002602    -0.000035    -0.107496   119.895106
	   32 B(8,5,9)        =    121.078723    -0.000059    -0.186652   120.892071
	   33 B(9,11,13)      =    119.913605    -0.000052    -0.191353   119.722252
	   34 B(9,12,14)      =    111.131824     0.000026     0.135763   111.267588
	   35 B(9,12,15)      =    111.418446    -0.000004    -0.036352   111.382094
	   36 B(9,12,16)      =    110.755056     0.000017     0.085985   110.841042
	   37 B(10,7,11)      =    119.861967     0.000001    -0.005336   119.856632
	   38 B(11,9,12)      =    120.320453     0.000052     0.156611   120.477065
	   39 B(14,12,15)     =    108.093219    -0.000014    -0.073911   108.019309
	   40 B(14,12,16)     =    107.503163    -0.000015    -0.036935   107.466228
	   41 B(15,12,16)     =    107.777338    -0.000013    -0.084731   107.692607
	   42 D(1,2,3,4)      =     69.851219     0.000010     1.710919    71.562138
	   43 *D(1,2,3,5)     =   -109.999987     0.000000    -0.000000  -109.999987
	   44 D(2,3,4,6)      =     -0.015348    -0.000004    -0.745680    -0.761028
	   45 D(2,3,4,7)      =   -179.856786    -0.000009    -1.480275  -181.337061
	   46 D(2,3,5,8)      =     -0.001182     0.000007     1.307843     1.306661
	   47 D(2,3,5,9)      =    179.928472     0.000013     2.174148   182.102620
	   48 D(3,4,7,10)     =    179.853366     0.000001     0.076315   179.929682
	   49 D(3,4,7,11)     =      0.010420    -0.000003    -0.558440    -0.548020
	   50 D(3,5,9,11)     =     -0.135180    -0.000005    -0.888083    -1.023263
	   51 D(3,5,9,12)     =    178.932048    -0.000003    -0.315127   178.616920
	   52 D(4,3,5,8)      =   -179.855748    -0.000002    -0.389552  -180.245300
	   53 D(4,3,5,9)      =      0.073905     0.000004     0.476753     0.550658
	   54 D(4,7,11,9)     =     -0.073369     0.000001     0.136856     0.063487
	   55 D(4,7,11,13)    =    179.843930     0.000003     0.383781   180.227711
	   56 D(5,3,4,6)      =    179.831235     0.000006     0.988482   180.819717
	   57 D(5,3,4,7)      =     -0.010203     0.000001     0.253887     0.243684
	   58 D(5,9,11,7)     =      0.134703     0.000003     0.581309     0.716012
	   59 D(5,9,11,13)    =   -179.782671     0.000002     0.334743  -179.447928
	   60 D(5,9,12,14)    =    137.169734    -0.000002    -0.223650   136.946085
	   61 D(5,9,12,15)    =     16.554663    -0.000001    -0.197750    16.356912
	   62 D(5,9,12,16)    =   -103.404728     0.000000    -0.124314  -103.529043
	   63 D(6,4,7,10)     =      0.012045    -0.000004    -0.664664    -0.652620
	   64 D(6,4,7,11)     =   -179.830902    -0.000008    -1.299420  -181.130321
	   65 D(7,11,9,12)    =   -178.935136     0.000000     0.009183  -178.925954
	   66 D(8,5,9,11)     =    179.792552     0.000000     0.002006   179.794558
	   67 D(8,5,9,12)     =     -1.140220     0.000003     0.574961    -0.565259
	   68 D(9,11,7,10)    =   -179.915372    -0.000003    -0.501264  -180.416636
	   69 D(10,7,11,13)   =      0.001927    -0.000002    -0.254339    -0.252412
	   70 D(11,9,12,14)   =    -43.774636     0.000000     0.354042   -43.420594
	   71 D(11,9,12,15)   =   -164.389707     0.000001     0.379941  -164.009766
	   72 D(11,9,12,16)   =     75.650902     0.000003     0.453377    76.104279
	   73 D(12,9,11,13)   =      1.147490    -0.000001    -0.237384     0.910106
	 ---------------------------------------------------------------------------

  ==> Convergence Check <==

  Measures of convergence in internal coordinates in au.
  Criteria marked as inactive (o), active & met (*), and active & unmet ( ).
  --------------------------------------------------------------------------------------------- ~
   Step     Total Energy     Delta E     MAX Force     RMS Force      MAX Disp      RMS Disp    ~
  --------------------------------------------------------------------------------------------- ~
    Convergence Criteria    1.00e-06 *    3.00e-04 *             o    1.20e-03 *             o  ~
  --------------------------------------------------------------------------------------------- ~
      1    -344.59054226   -3.45e+02      1.49e-02      2.27e-03 o    3.79e-02      1.10e-02 o  ~
  ---------------------------------------------------------------------------------------------

	Writing optimization data to binary file.
	Structure for next step:
	Cartesian Geometry (in Angstrom)
	    H    -2.8975228880  -0.9029642125   0.4282693407
	    O    -2.0927548235  -1.4032174111   0.4232137096
	    C    -1.0078492196  -0.5724332824   0.3776777582
	    C    -0.6495819454   0.1840818987   1.4759561431
	    C    -0.2459196484  -0.5226263960  -0.7837615129
	    H    -1.2345143385   0.1322307248   2.3766587721
	    C     0.4745788728   0.9945330967   1.4001149717
	    H    -0.5521768701  -1.1278189364  -1.6174654776
	    C     0.8869394938   0.2723456944  -0.8596056736
	    H     0.7564140821   1.5863157200   2.2531257821
	    C     1.2369688227   1.0407952737   0.2485742992
	    C     1.7332901443   0.3028870031  -2.1123450178
	    H     2.1077503402   1.6714480011   0.2068980521
	    H     2.0281260640   1.3164322446  -2.3635072000
	    H     1.1995795475  -0.1107373258  -2.9598937488
	    H     2.6420463777  -0.2775667539  -1.9791417751
			--------------------------
			 OPTKING Finished Execution 
			--------------------------

    Structure for next step:
    Molecular point group: c1
    Full point group: C1

    Geometry (in Angstrom), charge = 0, multiplicity = 1:

    H           -2.895200522897    -0.905332278015     0.427853403831
    O           -2.090432519862    -1.405585438344     0.422797773064
    C           -1.005526998727    -0.574801373115     0.377261825193
    C           -0.647259751942     0.181713750224     1.475540126157
    C           -0.243597485773    -0.524994490555    -0.784177357296
    H           -1.232192100326     0.129862580274     2.376242686424
    C            0.476900980399     0.992164886313     1.399698960583
    H           -0.549854684117    -1.130186984745    -1.617881258288
    C            0.889261569967     0.269977539134    -0.860021512144
    H            0.758736168233     1.583947464449     2.252709705887
    C            1.239290872070     1.038427059788     0.248158375981
    C            1.735612155813     0.300518845514    -2.112760760698
    H            2.110072323099     1.669079739054     0.206482132074
    H            2.030448052968     1.314064009640    -2.363922923682
    H            1.201901599789    -0.113105451747    -2.960309426982
    H            2.644368319854    -0.279934867171    -1.979557528136

gradient() will perform analytic gradient computation.

*** tstart() called on cx1-1-2-4.cx1.hpc.ic.ac.uk
*** at Fri Sep  2 11:35:30 2016


         ---------------------------------------------------------
                                   SCF
            by Justin Turney, Rob Parrish, and Andy Simmonett
                              RHF Reference
                        4 Threads,   2000 MiB Core
         ---------------------------------------------------------

  ==> Geometry <==

    Molecular point group: c1
    Full point group: C1

    Geometry (in Angstrom), charge = 0, multiplicity = 1:

       Center              X                  Y                   Z               Mass       
    ------------   -----------------  -----------------  -----------------  -----------------
           H         -2.895200522897    -0.905332278015     0.427853403831     1.007825032070
           O         -2.090432519862    -1.405585438344     0.422797773064    15.994914619560
           C         -1.005526998727    -0.574801373115     0.377261825193    12.000000000000
           C         -0.647259751942     0.181713750224     1.475540126157    12.000000000000
           C         -0.243597485773    -0.524994490555    -0.784177357296    12.000000000000
           H         -1.232192100326     0.129862580274     2.376242686424     1.007825032070
           C          0.476900980399     0.992164886313     1.399698960583    12.000000000000
           H         -0.549854684117    -1.130186984745    -1.617881258288     1.007825032070
           C          0.889261569967     0.269977539134    -0.860021512144    12.000000000000
           H          0.758736168233     1.583947464449     2.252709705887     1.007825032070
           C          1.239290872070     1.038427059788     0.248158375981    12.000000000000
           C          1.735612155813     0.300518845514    -2.112760760698    12.000000000000
           H          2.110072323099     1.669079739054     0.206482132074     1.007825032070
           H          2.030448052968     1.314064009640    -2.363922923682     1.007825032070
           H          1.201901599789    -0.113105451747    -2.960309426982     1.007825032070
           H          2.644368319854    -0.279934867171    -1.979557528136     1.007825032070

  Running in c1 symmetry.

  Rotational constants: A =      0.12401  B =      0.06000  C =      0.04087 [cm^-1]
  Rotational constants: A =   3717.61516  B =   1798.80189  C =   1225.15058 [MHz]
  Nuclear repulsion =  344.929920771656157

  Charge       = 0
  Multiplicity = 1
  Electrons    = 58
  Nalpha       = 29
  Nbeta        = 29

  ==> Algorithm <==

  SCF Algorithm Type is DF.
  DIIS enabled.
  MOM disabled.
  Fractional occupation disabled.
  Guess Type is READ.
  Energy threshold   = 1.00e-08
  Density threshold  = 1.00e-08
  Integral threshold = 0.00e+00

  ==> Primary Basis <==

  Basis Set: 6-31G*
    Number of shells: 64
    Number of basis function: 136
    Number of Cartesian functions: 136
    Spherical Harmonics?: false
    Max angular momentum: 2

  ==> Pre-Iterations <==

   -------------------------------------------------------
    Irrep   Nso     Nmo     Nalpha   Nbeta   Ndocc  Nsocc
   -------------------------------------------------------
     A        136     136       0       0       0       0
   -------------------------------------------------------
    Total     136     136      29      29      29       0
   -------------------------------------------------------

 OEINTS: Overlap, kinetic, potential, dipole, and quadrupole integrals
         stored in file 35.

  ==> Integral Setup <==

  ==> DFJK: Density-Fitted J/K Matrices <==

    J tasked:                  Yes
    K tasked:                  Yes
    wK tasked:                  No
    OpenMP threads:              4
    Integrals threads:           4
    Memory (MB):              1430
    Algorithm:                Core
    Integral Cache:           NONE
    Schwarz Cutoff:          1E-12
    Fitting Condition:       1E-12

   => Auxiliary Basis Set <=

  Basis Set: 
    Number of shells: 264
    Number of basis function: 848
    Number of Cartesian functions: 848
    Spherical Harmonics?: false
    Max angular momentum: 3

  Minimum eigenvalue in the overlap matrix is 4.0738323846E-04.
  Using Symmetric Orthogonalization.
  SCF Guess: Reading in previously saved MOs, projecting if necessary.

  Using orbitals from previous SCF, no projection.
  Recomputing DOCC and SOCC from number of alpha and beta electrons from previous calculation.
              A 
    DOCC [    29 ]

  ==> Iterations <==

                           Total Energy        Delta E     RMS |[F,P]|

   @DF-RHF iter   0:  -344.58349352787968   -3.44583e+02   5.51604e-04 
   @DF-RHF iter   1:  -344.59094862545282   -7.45510e-03   7.12111e-05 
   @DF-RHF iter   2:  -344.59102987435290   -8.12489e-05   2.97958e-05 DIIS
   @DF-RHF iter   3:  -344.59104343452725   -1.35602e-05   1.54098e-05 DIIS
   @DF-RHF iter   4:  -344.59104721777214   -3.78324e-06   3.32925e-06 DIIS
   @DF-RHF iter   5:  -344.59104747142590   -2.53654e-07   1.38472e-06 DIIS
   @DF-RHF iter   6:  -344.59104753221254   -6.07866e-08   6.53544e-07 DIIS
   @DF-RHF iter   7:  -344.59104754685347   -1.46409e-08   2.72541e-07 DIIS
   @DF-RHF iter   8:  -344.59104755059275   -3.73927e-09   1.14185e-07 DIIS
   @DF-RHF iter   9:  -344.59104755127430   -6.81553e-10   4.03262e-08 DIIS
   @DF-RHF iter  10:  -344.59104755133899   -6.46878e-11   1.08808e-08 DIIS
   @DF-RHF iter  11:  -344.59104755134183   -2.84217e-12   3.43642e-09 DIIS

  ==> Post-Iterations <==

    Orbital Energies (a.u.)
    -----------------------

    Doubly Occupied:                                                      

       1A    -20.576147     2A    -11.287627     3A    -11.240938  
       4A    -11.232788     5A    -11.221915     6A    -11.221541  
       7A    -11.221291     8A    -11.219797     9A     -1.391852  
      10A     -1.149465    11A     -1.042711    12A     -1.003023  
      13A     -0.936032    14A     -0.825351    15A     -0.809971  
      16A     -0.714849    17A     -0.676435    18A     -0.654039  
      19A     -0.617594    20A     -0.588634    21A     -0.574648  
      22A     -0.567531    23A     -0.550534    24A     -0.511095  
      25A     -0.503672    26A     -0.479767    27A     -0.461921  
      28A     -0.328351    29A     -0.317082  

    Virtual:                                                              

      30A      0.147837    31A      0.153593    32A      0.234161  
      33A      0.243310    34A      0.267505    35A      0.294054  
      36A      0.312632    37A      0.327001    38A      0.340137  
      39A      0.343432    40A      0.395776    41A      0.411335  
      42A      0.462857    43A      0.471760    44A      0.511338  
      45A      0.549719    46A      0.601533    47A      0.627290  
      48A      0.728765    49A      0.737470    50A      0.755623  
      51A      0.771600    52A      0.775579    53A      0.817484  
      54A      0.836277    55A      0.839977    56A      0.845421  
      57A      0.878131    58A      0.885268    59A      0.896277  
      60A      0.917271    61A      0.954477    62A      0.970167  
      63A      1.009269    64A      1.027224    65A      1.062603  
      66A      1.103871    67A      1.114581    68A      1.127510  
      69A      1.150903    70A      1.163265    71A      1.170875  
      72A      1.194291    73A      1.210360    74A      1.228237  
      75A      1.246525    76A      1.259517    77A      1.290600  
      78A      1.331542    79A      1.387549    80A      1.403362  
      81A      1.430961    82A      1.438397    83A      1.477026  
      84A      1.511878    85A      1.613929    86A      1.621599  
      87A      1.658293    88A      1.725186    89A      1.742186  
      90A      1.770942    91A      1.775173    92A      1.784861  
      93A      1.927648    94A      2.056943    95A      2.098478  
      96A      2.107217    97A      2.145929    98A      2.186260  
      99A      2.202362   100A      2.211349   101A      2.243349  
     102A      2.272036   103A      2.282548   104A      2.328240  
     105A      2.411207   106A      2.454095   107A      2.487216  
     108A      2.495840   109A      2.529432   110A      2.563524  
     111A      2.631765   112A      2.645762   113A      2.698388  
     114A      2.703714   115A      2.722419   116A      2.782038  
     117A      2.866849   118A      2.911090   119A      2.957253  
     120A      3.035564   121A      3.065763   122A      3.130674  
     123A      3.143279   124A      3.194964   125A      3.270260  
     126A      3.341378   127A      3.529062   128A      3.838985  
     129A      4.326641   130A      4.535003   131A      4.551201  
     132A      4.618135   133A      4.673611   134A      4.796793  
     135A      4.874609   136A      5.193953  

    Final Occupation by Irrep:
              A 
    DOCC [    29 ]

  Energy converged.

  @DF-RHF Final Energy:  -344.59104755134183

   => Energetics <=

    Nuclear Repulsion Energy =            344.9299207716561568
    One-Electron Energy =               -1151.1887344312899586
    Two-Electron Energy =                 461.6677661082918007
    DFT Exchange-Correlation Energy =       0.0000000000000000
    Empirical Dispersion Energy =           0.0000000000000000
    PCM Polarization Energy =               0.0000000000000000
    EFP Energy =                            0.0000000000000000
    Total Energy =                       -344.5910475513420010

    Alert: EFP and PCM quantities not currently incorporated into SCF psivars.

Properties will be evaluated at   0.000000,   0.000000,   0.000000 Bohr
  ==> Properties <==


Properties computed using the SCF density matrix

  Nuclear Dipole Moment: (a.u.)
     X:     3.8038      Y:     2.1198      Z:    -3.4276

  Electronic Dipole Moment: (a.u.)
     X:    -3.9271      Y:    -1.4866      Z:     3.3060

  Dipole Moment: (a.u.)
     X:    -0.1233      Y:     0.6332      Z:    -0.1216     Total:     0.6564

  Dipole Moment: (Debye)
     X:    -0.3133      Y:     1.6093      Z:    -0.3092     Total:     1.6684


  Saving occupied orbitals to File 180.

*** tstop() called on cx1-1-2-4.cx1.hpc.ic.ac.uk at Fri Sep  2 11:35:35 2016
Module time:
	user time   =      15.03 seconds =       0.25 minutes
	system time =       0.18 seconds =       0.00 minutes
	total time  =          5 seconds =       0.08 minutes
Total time:
	user time   =      57.81 seconds =       0.96 minutes
	system time =       0.67 seconds =       0.01 minutes
	total time  =         19 seconds =       0.32 minutes

*** tstart() called on cx1-1-2-4.cx1.hpc.ic.ac.uk
*** at Fri Sep  2 11:35:35 2016


         ------------------------------------------------------------
                                   SCF GRAD                          
                          Rob Parrish, Justin Turney,                
                       Andy Simmonett, and Alex Sokolov              
         ------------------------------------------------------------

  ==> Geometry <==

    Molecular point group: c1
    Full point group: C1

    Geometry (in Angstrom), charge = 0, multiplicity = 1:

       Center              X                  Y                   Z               Mass       
    ------------   -----------------  -----------------  -----------------  -----------------
           H         -2.895200522897    -0.905332278015     0.427853403831     1.007825032070
           O         -2.090432519862    -1.405585438344     0.422797773064    15.994914619560
           C         -1.005526998727    -0.574801373115     0.377261825193    12.000000000000
           C         -0.647259751942     0.181713750224     1.475540126157    12.000000000000
           C         -0.243597485773    -0.524994490555    -0.784177357296    12.000000000000
           H         -1.232192100326     0.129862580274     2.376242686424     1.007825032070
           C          0.476900980399     0.992164886313     1.399698960583    12.000000000000
           H         -0.549854684117    -1.130186984745    -1.617881258288     1.007825032070
           C          0.889261569967     0.269977539134    -0.860021512144    12.000000000000
           H          0.758736168233     1.583947464449     2.252709705887     1.007825032070
           C          1.239290872070     1.038427059788     0.248158375981    12.000000000000
           C          1.735612155813     0.300518845514    -2.112760760698    12.000000000000
           H          2.110072323099     1.669079739054     0.206482132074     1.007825032070
           H          2.030448052968     1.314064009640    -2.363922923682     1.007825032070
           H          1.201901599789    -0.113105451747    -2.960309426982     1.007825032070
           H          2.644368319854    -0.279934867171    -1.979557528136     1.007825032070

  Nuclear repulsion =  344.929920771656157

  ==> Basis Set <==

  Basis Set: 6-31G*
    Number of shells: 64
    Number of basis function: 136
    Number of Cartesian functions: 136
    Spherical Harmonics?: false
    Max angular momentum: 2

  ==> DFJKGrad: Density-Fitted SCF Gradients <==

    Gradient:                    1
    J tasked:                  Yes
    K tasked:                  Yes
    wK tasked:                  No
    OpenMP threads:              4
    Integrals threads:           4
    Memory (MB):              1430
    Schwarz Cutoff:          0E+00
    Fitting Condition:       1E-12

   => Auxiliary Basis Set <=

  Basis Set: 
    Number of shells: 264
    Number of basis function: 848
    Number of Cartesian functions: 848
    Spherical Harmonics?: false
    Max angular momentum: 3


  -Total Gradient:
     Atom            X                  Y                   Z
    ------   -----------------  -----------------  -----------------
       1       -0.000562385516    -0.000754569914    -0.001458013517
       2        0.000842840895     0.002056459421     0.002177089303
       3       -0.002739404072    -0.002736869374     0.002598002886
       4       -0.000668435898    -0.001172726361    -0.000909722459
       5        0.002007260066     0.002787076193    -0.001877170941
       6        0.000184170828     0.000139681224     0.000126167370
       7        0.000488061283     0.000216520592    -0.001136884797
       8       -0.000040383400     0.000083594957     0.000482390741
       9       -0.000139496078    -0.001397001935    -0.000114617470
      10       -0.000082740149    -0.000151470534     0.000212128825
      11        0.000310728362     0.000651455309     0.000569719444
      12        0.000258724209     0.000311685846    -0.000301578993
      13       -0.000093524635    -0.000115785934    -0.000177133564
      14        0.000133040863     0.000030371108    -0.000162685089
      15        0.000047400348     0.000027960553     0.000010110103
      16        0.000054142893     0.000023618851    -0.000037801843


*** tstop() called on cx1-1-2-4.cx1.hpc.ic.ac.uk at Fri Sep  2 11:35:41 2016
Module time:
	user time   =      20.97 seconds =       0.35 minutes
	system time =       0.21 seconds =       0.00 minutes
	total time  =          6 seconds =       0.10 minutes
Total time:
	user time   =      78.79 seconds =       1.31 minutes
	system time =       0.88 seconds =       0.01 minutes
	total time  =         25 seconds =       0.42 minutes
CURRENT ENERGY: -344.5910475513

			-----------------------------------------
			 OPTKING 2.0: for geometry optimizations 
			  - R.A. King,  Bethel University        
			-----------------------------------------

	Previous internal coordinate definitions found.
	---Fragment 1 Geometry and Gradient---
	 H          -5.4711360881       -1.7108300647        0.8085257583
	 O          -3.9503449618       -2.6561715348        0.7989720007
	 C          -1.9001706468       -1.0862171760        0.7129215300
	 C          -1.2231436680        0.3433892225        2.7883667365
	 C          -0.4603325348       -0.9920958084       -1.4818804449
	 H          -2.3285056127        0.2454047116        4.4904479026
	 C           0.9012122455        1.8749199138        2.6450477040
	 H          -1.0390747659       -2.1357438801       -3.0573524937
	 C           1.6804608277        0.5101836110       -1.6252051263
	 H           1.4338035651        2.9932269167        4.2570044010
	 C           2.3419203472        1.9623427520        0.4689513682
	 C           3.2798316474        0.5678983158       -3.9925392220
	 H           3.9874588112        3.1541036008        0.3901946810
	 H           3.8369907472        2.4832210993       -4.4671669250
	 H           2.2712648623       -0.2137383279       -5.5941740856
	 H           4.9971319190       -0.5290002340       -3.7408215925
	            -0.0005623855       -0.0007545699       -0.0014580135
	             0.0008428409        0.0020564594        0.0021770893
	            -0.0027394041       -0.0027368694        0.0025980029
	            -0.0006684359       -0.0011727264       -0.0009097225
	             0.0020072601        0.0027870762       -0.0018771709
	             0.0001841708        0.0001396812        0.0001261674
	             0.0004880613        0.0002165206       -0.0011368848
	            -0.0000403834        0.0000835950        0.0004823907
	            -0.0001394961       -0.0013970019       -0.0001146175
	            -0.0000827401       -0.0001514705        0.0002121288
	             0.0003107284        0.0006514553        0.0005697194
	             0.0002587242        0.0003116858       -0.0003015790
	            -0.0000935246       -0.0001157859       -0.0001771336
	             0.0001330409        0.0000303711       -0.0001626851
	             0.0000474003        0.0000279606        0.0000101101
	             0.0000541429        0.0000236189       -0.0000378018

	---Fragment 1 Intrafragment Coordinates---
	 - Coordinate -           - BOHR/RAD -       - ANG/DEG -
	 R(1,2)           =         1.790689	       0.947592
	 R(2,3)           =         2.583675	       1.367222
	 R(3,4)           =         2.609523	       1.380900
	 R(3,5)           =         2.626623	       1.389949
	 R(4,6)           =         2.031873	       1.075221
	 R(4,7)           =         2.622788	       1.387920
	 R(5,8)           =         2.031006	       1.074762
	 R(5,9)           =         2.619233	       1.386039
	 R(7,10)          =         2.032897	       1.075763
	 R(7,11)          =         2.611260	       1.381819
	 R(9,11)          =         2.632829	       1.393233
	 R(9,12)          =         2.857549	       1.512150
	 R(11,13)         =         2.033296	       1.075974
	 R(12,14)         =         2.050405	       1.085027
	 R(12,15)         =         2.047779	       1.083638
	 R(12,16)         =         2.053209	       1.086512
	 B(1,2,3)         =         1.931893	     110.689330
	 B(2,3,4)         =         2.108629	     120.815554
	 B(2,3,5)         =         2.076683	     118.985195
	 B(3,4,6)         =         2.092877	     119.913036
	 B(3,4,7)         =         2.078970	     119.116216
	 B(3,5,8)         =         2.062129	     118.151286
	 B(3,5,9)         =         2.111007	     120.951772
	 B(4,3,5)         =         2.097550	     120.180744
	 B(4,7,10)        =         2.082994	     119.346765
	 B(4,7,11)        =         2.108268	     120.794884
	 B(5,9,11)        =         2.069366	     118.565915
	 B(5,9,12)        =         2.111081	     120.956033
	 B(6,4,7)         =         2.111293	     120.968191
	 B(7,11,9)        =         2.101070	     120.382440
	 B(7,11,13)       =         2.092564	     119.895106
	 B(8,5,9)         =         2.109965	     120.892071
	 B(9,11,13)       =         2.089547	     119.722252
	 B(9,12,14)       =         1.941986	     111.267588
	 B(9,12,15)       =         1.943984	     111.382094
	 B(9,12,16)       =         1.934541	     110.841042
	 B(10,7,11)       =         2.091893	     119.856632
	 B(11,9,12)       =         2.102721	     120.477065
	 B(14,12,15)      =         1.885293	     108.019309
	 B(14,12,16)      =         1.875640	     107.466228
	 B(15,12,16)      =         1.879591	     107.692607
	 D(1,2,3,4)       =         1.248995	      71.562138
	*D(1,2,3,5)       =        -1.919862	    -109.999987
	 D(2,3,4,6)       =        -0.013282	      -0.761028
	 D(2,3,4,7)       =         3.118257	     178.662939
	 D(2,3,5,8)       =         0.022806	       1.306661
	 D(2,3,5,9)       =        -3.104895	    -177.897380
	 D(3,4,7,10)      =         3.140365	     179.929682
	 D(3,4,7,11)      =        -0.009565	      -0.548020
	 D(3,5,9,11)      =        -0.017859	      -1.023263
	 D(3,5,9,12)      =         3.117453	     178.616920
	 D(4,3,5,8)       =         3.137311	     179.754700
	 D(4,3,5,9)       =         0.009611	       0.550658
	 D(4,7,11,9)      =         0.001108	       0.063487
	 D(4,7,11,13)     =        -3.137618	    -179.772289
	 D(5,3,4,6)       =        -3.127286	    -179.180283
	 D(5,3,4,7)       =         0.004253	       0.243684
	 D(5,9,11,7)      =         0.012497	       0.716012
	 D(5,9,11,13)     =        -3.131957	    -179.447928
	 D(5,9,12,14)     =         2.390160	     136.946085
	 D(5,9,12,15)     =         0.285482	      16.356912
	 D(5,9,12,16)     =        -1.806923	    -103.529043
	 D(6,4,7,10)      =        -0.011390	      -0.652620
	 D(6,4,7,11)      =         3.121865	     178.869679
	 D(7,11,9,12)     =        -3.122847	    -178.925954
	 D(8,5,9,11)      =         3.138007	     179.794558
	 D(8,5,9,12)      =        -0.009866	      -0.565259
	 D(9,11,7,10)     =         3.134321	     179.583364
	 D(10,7,11,13)    =        -0.004405	      -0.252412
	 D(11,9,12,14)    =        -0.757832	     -43.420594
	 D(11,9,12,15)    =        -2.862510	    -164.009766
	 D(11,9,12,16)    =         1.328270	      76.104279
	 D(12,9,11,13)    =         0.015884	       0.910106

	Current energy   :      -344.5910475513

	Energy change for the previous step:
		Projected    :        -0.0009078978
		Actual       :        -0.0005052932

	Performing BFGS update.
	Previous computed or guess Hessian on step 1.
	Steps to be used in Hessian update: 1
	Taking RFO optimization step.
	Going to follow RFO solution 1.
	Using RFO vector 1.
	Norm of target step-size    0.03262
	Projected energy change by RFO approximation:         0.0000167018

	Back-transformation to cartesian coordinates...
	Successfully converged to displaced geometry.

	Back-transformation to cartesian coordinates to adjust frozen coordinates...
	Successfully converged to displaced geometry.

	--- Internal Coordinate Step in ANG or DEG, aJ/ANG or AJ/DEG ---
	 ---------------------------------------------------------------------------
	   Coordinate                Previous        Force       Change         New 
	   ----------                --------       ------       ------       ------
	    1 R(1,2)          =      0.947592    -0.000589    -0.000003     0.947589
	    2 R(2,3)          =      1.367222     0.008154     0.002003     1.369225
	    3 R(3,4)          =      1.380900     0.010003     0.001026     1.381926
	    4 R(3,5)          =      1.389949    -0.024932    -0.003163     1.386786
	    5 R(4,6)          =      1.075221     0.000010    -0.000137     1.075084
	    6 R(4,7)          =      1.387920    -0.007425    -0.000890     1.387030
	    7 R(5,8)          =      1.074762     0.003376     0.000550     1.075312
	    8 R(5,9)          =      1.386039     0.002251     0.000416     1.386455
	    9 R(7,10)         =      1.075763    -0.000521    -0.000077     1.075686
	   10 R(7,11)         =      1.381819     0.001672     0.000380     1.382199
	   11 R(9,11)         =      1.393233     0.000258    -0.000075     1.393158
	   12 R(9,12)         =      1.512150    -0.005698    -0.000999     1.511151
	   13 R(11,13)        =      1.075974     0.001126     0.000198     1.076172
	   14 R(12,14)        =      1.085027    -0.000842    -0.000124     1.084903
	   15 R(12,15)        =      1.083638     0.000345     0.000073     1.083710
	   16 R(12,16)        =      1.086512    -0.000231    -0.000033     1.086478
	   17 B(1,2,3)        =    110.689330    -0.000121    -0.519278   110.170052
	   18 B(2,3,4)        =    120.815554    -0.000009    -0.148430   120.667123
	   19 B(2,3,5)        =    118.985195    -0.000099    -0.130391   118.854804
	   20 B(3,4,6)        =    119.913036    -0.000012    -0.108873   119.804163
	   21 B(3,4,7)        =    119.116216    -0.000016    -0.034414   119.081802
	   22 B(3,5,8)        =    118.151286     0.000063     0.210929   118.362214
	   23 B(3,5,9)        =    120.951772    -0.000085    -0.246377   120.705395
	   24 B(4,3,5)        =    120.180744     0.000109     0.289405   120.470148
	   25 B(4,7,10)       =    119.346765     0.000052     0.179177   119.525941
	   26 B(4,7,11)       =    120.794884    -0.000069    -0.196444   120.598441
	   27 B(5,9,11)       =    118.565915     0.000036     0.066248   118.632164
	   28 B(5,9,12)       =    120.956033    -0.000048    -0.112257   120.843776
	   29 B(6,4,7)        =    120.968191     0.000028     0.143331   121.111522
	   30 B(7,11,9)       =    120.382440     0.000024     0.127212   120.509652
	   31 B(7,11,13)      =    119.895106    -0.000026    -0.122794   119.772312
	   32 B(8,5,9)        =    120.892071     0.000023     0.039309   120.931380
	   33 B(9,11,13)      =    119.722252     0.000002    -0.004244   119.718008
	   34 B(9,12,14)      =    111.267588    -0.000019    -0.076904   111.190684
	   35 B(9,12,15)      =    111.382094     0.000000    -0.000984   111.381110
	   36 B(9,12,16)      =    110.841042    -0.000002     0.003006   110.844048
	   37 B(10,7,11)      =    119.856632     0.000017     0.018794   119.875425
	   38 B(11,9,12)      =    120.477065     0.000012     0.042031   120.519095
	   39 B(14,12,15)     =    108.019309     0.000008     0.023704   108.043012
	   40 B(14,12,16)     =    107.466228     0.000010     0.041674   107.507902
	   41 B(15,12,16)     =    107.692607     0.000003     0.014186   107.706794
	   42 D(1,2,3,4)      =     71.562138    -0.000004    -0.542894    71.019244
	   43 *D(1,2,3,5)     =   -109.999987     0.000000    -0.000000  -109.999987
	   44 D(2,3,4,6)      =     -0.761028     0.000002     0.377722    -0.383306
	   45 D(2,3,4,7)      =    178.662939     0.000003     0.383535   179.046474
	   46 D(2,3,5,8)      =      1.306661    -0.000002    -0.303196     1.003465
	   47 D(2,3,5,9)      =   -177.897380    -0.000006    -0.736716  -178.634096
	   48 D(3,4,7,10)     =    179.929682    -0.000001    -0.050060   179.879621
	   49 D(3,4,7,11)     =     -0.548020     0.000002     0.267790    -0.280230
	   50 D(3,5,9,11)     =     -1.023263     0.000003     0.452447    -0.570816
	   51 D(3,5,9,12)     =    178.616920     0.000001     0.005764   178.622684
	   52 D(4,3,5,8)      =    179.754700     0.000002     0.231602   179.986302
	   53 D(4,3,5,9)      =      0.550658    -0.000002    -0.201918     0.348740
	   54 D(4,7,11,9)     =      0.063487    -0.000000    -0.012353     0.051134
	   55 D(4,7,11,13)    =   -179.772289    -0.000001    -0.115863  -179.888152
	   56 D(5,3,4,6)      =   -179.180283    -0.000001    -0.167290  -179.347574
	   57 D(5,3,4,7)      =      0.243684    -0.000001    -0.161477     0.082207
	   58 D(5,9,11,7)     =      0.716012    -0.000002    -0.343784     0.372228
	   59 D(5,9,11,13)    =   -179.447928    -0.000001    -0.240525  -179.688453
	   60 D(5,9,12,14)    =    136.946085     0.000001     0.273595   137.219680
	   61 D(5,9,12,15)    =     16.356912     0.000001     0.296729    16.653642
	   62 D(5,9,12,16)    =   -103.529043     0.000001     0.277454  -103.251589
	   63 D(6,4,7,10)     =     -0.652620    -0.000000    -0.045683    -0.698302
	   64 D(6,4,7,11)     =    178.869679     0.000002     0.272168   179.141847
	   65 D(7,11,9,12)    =   -178.925954     0.000000     0.101975  -178.823979
	   66 D(8,5,9,11)     =    179.794558    -0.000000     0.006436   179.800994
	   67 D(8,5,9,12)     =     -0.565259    -0.000003    -0.440247    -1.005506
	   68 D(9,11,7,10)    =    179.583364     0.000002     0.307362   179.890726
	   69 D(10,7,11,13)   =     -0.252412     0.000001     0.203852    -0.048561
	   70 D(11,9,12,14)   =    -43.420594    -0.000001    -0.181445   -43.602039
	   71 D(11,9,12,15)   =   -164.009766    -0.000001    -0.158310  -164.168077
	   72 D(11,9,12,16)   =     76.104279    -0.000001    -0.177586    75.926693
	   73 D(12,9,11,13)   =      0.910106     0.000001     0.205234     1.115340
	 ---------------------------------------------------------------------------

  ==> Convergence Check <==

  Measures of convergence in internal coordinates in au.
  Criteria marked as inactive (o), active & met (*), and active & unmet ( ).
  ---------------------------------------------------------------------------------------------
   Step     Total Energy     Delta E     MAX Force     RMS Force      MAX Disp      RMS Disp   
  ---------------------------------------------------------------------------------------------
    Convergence Criteria    1.00e-06 *    3.00e-04 *             o    1.20e-03 *             o
  ---------------------------------------------------------------------------------------------
      2    -344.59104755   -5.05e-04      3.03e-03      5.79e-04 o    1.29e-02      3.82e-03 o  ~
  ---------------------------------------------------------------------------------------------

	Writing optimization data to binary file.
	Structure for next step:
	Cartesian Geometry (in Angstrom)
	    H    -2.8879081227  -0.8920689076   0.4265841084
	    O    -2.0905625552  -1.4040455888   0.4198311552
	    C    -0.9994441394  -0.5779992487   0.3764051956
	    C    -0.6454853722   0.1805981458   1.4759339710
	    C    -0.2414015879  -0.5309631029  -0.7839118294
	    H    -1.2347976150   0.1279489357   2.3735668096
	    C     0.4776398132   0.9911806742   1.4024632598
	    H    -0.5475564952  -1.1353485526  -1.6189469182
	    C     0.8872901500   0.2705953576  -0.8601723570
	    H     0.7585781230   1.5861616924   2.2534454779
	    C     1.2377375975   1.0373574421   0.2489500306
	    C     1.7330010810   0.3007292368  -2.1121475421
	    H     2.1076053497   1.6695978829   0.2071320458
	    H     2.0259200741   1.3147191508  -2.3632207758
	    H     1.1995345406  -0.1140759720  -2.9593655034
	    H     2.6423774747  -0.2785719605  -1.9784331728
			--------------------------
			 OPTKING Finished Execution 
			--------------------------

    Structure for next step:
    Molecular point group: c1
    Full point group: C1

    Geometry (in Angstrom), charge = 0, multiplicity = 1:

    H           -2.888363523024    -0.891111786941     0.426606835539
    O           -2.091018016344    -1.403088429052     0.419853882855
    C           -0.999899683940    -0.577042152044     0.376427926557
    C           -0.645940943781     0.181555184528     1.475956618035
    C           -0.241857190347    -0.530006009792    -0.783889009789
    H           -1.235253141528     0.128905978493     2.373589388008
    C            0.477184155922     0.992137651075     1.402485912433
    H           -0.548012074217    -1.134391413330    -1.618924034835
    C            0.886834461440     0.271552389537    -0.860149531600
    H            0.758122444209     1.587118623886     2.253468065494
    C            1.237281882196     1.038314415497     0.248972771255
    C            1.732545327793     0.301686266414    -2.112124621082
    H            2.107149567934     1.670554807937     0.207154789656
    H            2.025464298601     1.315676102921    -2.363197835625
    H            1.199078828188    -0.113118910725    -2.959342517688
    H            2.641921652111    -0.277614886638    -1.978410262029

gradient() will perform analytic gradient computation.

*** tstart() called on cx1-1-2-4.cx1.hpc.ic.ac.uk
*** at Fri Sep  2 11:35:41 2016


         ---------------------------------------------------------
                                   SCF
            by Justin Turney, Rob Parrish, and Andy Simmonett
                              RHF Reference
                        4 Threads,   2000 MiB Core
         ---------------------------------------------------------

  ==> Geometry <==

    Molecular point group: c1
    Full point group: C1

    Geometry (in Angstrom), charge = 0, multiplicity = 1:

       Center              X                  Y                   Z               Mass       
    ------------   -----------------  -----------------  -----------------  -----------------
           H         -2.888363523024    -0.891111786941     0.426606835539     1.007825032070
           O         -2.091018016344    -1.403088429052     0.419853882855    15.994914619560
           C         -0.999899683940    -0.577042152044     0.376427926557    12.000000000000
           C         -0.645940943781     0.181555184528     1.475956618035    12.000000000000
           C         -0.241857190347    -0.530006009792    -0.783889009789    12.000000000000
           H         -1.235253141528     0.128905978493     2.373589388008     1.007825032070
           C          0.477184155922     0.992137651075     1.402485912433    12.000000000000
           H         -0.548012074217    -1.134391413330    -1.618924034835     1.007825032070
           C          0.886834461440     0.271552389537    -0.860149531600    12.000000000000
           H          0.758122444209     1.587118623886     2.253468065494     1.007825032070
           C          1.237281882196     1.038314415497     0.248972771255    12.000000000000
           C          1.732545327793     0.301686266414    -2.112124621082    12.000000000000
           H          2.107149567934     1.670554807937     0.207154789656     1.007825032070
           H          2.025464298601     1.315676102921    -2.363197835625     1.007825032070
           H          1.199078828188    -0.113118910725    -2.959342517688     1.007825032070
           H          2.641921652111    -0.277614886638    -1.978410262029     1.007825032070

  Running in c1 symmetry.

  Rotational constants: A =      0.12383  B =      0.06014  C =      0.04091 [cm^-1]
  Rotational constants: A =   3712.34591  B =   1802.82204  C =   1226.48699 [MHz]
  Nuclear repulsion =  345.022071734175654

  Charge       = 0
  Multiplicity = 1
  Electrons    = 58
  Nalpha       = 29
  Nbeta        = 29

  ==> Algorithm <==

  SCF Algorithm Type is DF.
  DIIS enabled.
  MOM disabled.
  Fractional occupation disabled.
  Guess Type is READ.
  Energy threshold   = 1.00e-08
  Density threshold  = 1.00e-08
  Integral threshold = 0.00e+00

  ==> Primary Basis <==

  Basis Set: 6-31G*
    Number of shells: 64
    Number of basis function: 136
    Number of Cartesian functions: 136
    Spherical Harmonics?: false
    Max angular momentum: 2

  ==> Pre-Iterations <==

   -------------------------------------------------------
    Irrep   Nso     Nmo     Nalpha   Nbeta   Ndocc  Nsocc
   -------------------------------------------------------
     A        136     136       0       0       0       0
   -------------------------------------------------------
    Total     136     136      29      29      29       0
   -------------------------------------------------------

 OEINTS: Overlap, kinetic, potential, dipole, and quadrupole integrals
         stored in file 35.

  ==> Integral Setup <==

  ==> DFJK: Density-Fitted J/K Matrices <==

    J tasked:                  Yes
    K tasked:                  Yes
    wK tasked:                  No
    OpenMP threads:              4
    Integrals threads:           4
    Memory (MB):              1430
    Algorithm:                Core
    Integral Cache:           NONE
    Schwarz Cutoff:          1E-12
    Fitting Condition:       1E-12

   => Auxiliary Basis Set <=

  Basis Set: 
    Number of shells: 264
    Number of basis function: 848
    Number of Cartesian functions: 848
    Spherical Harmonics?: false
    Max angular momentum: 3

  Minimum eigenvalue in the overlap matrix is 4.0722163072E-04.
  Using Symmetric Orthogonalization.
  SCF Guess: Reading in previously saved MOs, projecting if necessary.

  Using orbitals from previous SCF, no projection.
  Recomputing DOCC and SOCC from number of alpha and beta electrons from previous calculation.
              A 
    DOCC [    29 ]

  ==> Iterations <==

                           Total Energy        Delta E     RMS |[F,P]|

   @DF-RHF iter   0:  -344.59116107554217   -3.44591e+02   1.34669e-04 
   @DF-RHF iter   1:  -344.59108791979583    7.31557e-05   2.03348e-05 
   @DF-RHF iter   2:  -344.59109437753835   -6.45774e-06   8.74682e-06 DIIS
   @DF-RHF iter   3:  -344.59109546636699   -1.08883e-06   3.88124e-06 DIIS
   @DF-RHF iter   4:  -344.59109581223328   -3.45866e-07   1.02071e-06 DIIS
   @DF-RHF iter   5:  -344.59109585593154   -4.36983e-08   5.25553e-07 DIIS
   @DF-RHF iter   6:  -344.59109586954008   -1.36085e-08   2.31928e-07 DIIS
   @DF-RHF iter   7:  -344.59109587255085   -3.01077e-09   8.46196e-08 DIIS
   @DF-RHF iter   8:  -344.59109587296842   -4.17572e-10   3.40086e-08 DIIS
   @DF-RHF iter   9:  -344.59109587300321   -3.47882e-11   9.14331e-09 DIIS

  ==> Post-Iterations <==

    Orbital Energies (a.u.)
    -----------------------

    Doubly Occupied:                                                      

       1A    -20.575850     2A    -11.287377     3A    -11.241031  
       4A    -11.233047     5A    -11.222127     6A    -11.221501  
       7A    -11.221395     8A    -11.219773     9A     -1.391179  
      10A     -1.149843    11A     -1.043003    12A     -1.003434  
      13A     -0.936134    14A     -0.825144    15A     -0.809866  
      16A     -0.714197    17A     -0.676395    18A     -0.654115  
      19A     -0.617984    20A     -0.588825    21A     -0.574849  
      22A     -0.567767    23A     -0.550503    24A     -0.511110  
      25A     -0.503492    26A     -0.480212    27A     -0.462300  
      28A     -0.328879    29A     -0.317077  

    Virtual:                                                              

      30A      0.147467    31A      0.153693    32A      0.234524  
      33A      0.243142    34A      0.267387    35A      0.293724  
      36A      0.312604    37A      0.327063    38A      0.339958  
      39A      0.343309    40A      0.395965    41A      0.411373  
      42A      0.462297    43A      0.471720    44A      0.511424  
      45A      0.549446    46A      0.601346    47A      0.626795  
      48A      0.728801    49A      0.737544    50A      0.755170  
      51A      0.771338    52A      0.775236    53A      0.817327  
      54A      0.836052    55A      0.840162    56A      0.845457  
      57A      0.877505    58A      0.884921    59A      0.896901  
      60A      0.917613    61A      0.954000    62A      0.970302  
      63A      1.009089    64A      1.027483    65A      1.061212  
      66A      1.104794    67A      1.113991    68A      1.127099  
      69A      1.150733    70A      1.163023    71A      1.170614  
      72A      1.193987    73A      1.209835    74A      1.228487  
      75A      1.246361    76A      1.258711    77A      1.291355  
      78A      1.333915    79A      1.387880    80A      1.404239  
      81A      1.431259    82A      1.439153    83A      1.478014  
      84A      1.511727    85A      1.614390    86A      1.623020  
      87A      1.658482    88A      1.723790    89A      1.738366  
      90A      1.769754    91A      1.773636    92A      1.783990  
      93A      1.928299    94A      2.057177    95A      2.100154  
      96A      2.106789    97A      2.146774    98A      2.187624  
      99A      2.202412   100A      2.212186   101A      2.242404  
     102A      2.272168   103A      2.284186   104A      2.325972  
     105A      2.412722   106A      2.453736   107A      2.488451  
     108A      2.496904   109A      2.529335   110A      2.562976  
     111A      2.632194   112A      2.644530   113A      2.698685  
     114A      2.704992   115A      2.723521   116A      2.784534  
     117A      2.866366   118A      2.904470   119A      2.958101  
     120A      3.035190   121A      3.066163   122A      3.130254  
     123A      3.142468   124A      3.195475   125A      3.270692  
     126A      3.341678   127A      3.529372   128A      3.840271  
     129A      4.324178   130A      4.535080   131A      4.551523  
     132A      4.617430   133A      4.673639   134A      4.796274  
     135A      4.873983   136A      5.193411  

    Final Occupation by Irrep:
              A 
    DOCC [    29 ]

  Energy converged.

  @DF-RHF Final Energy:  -344.59109587300321

   => Energetics <=

    Nuclear Repulsion Energy =            345.0220717341756540
    One-Electron Energy =               -1151.3695168337221730
    Two-Electron Energy =                 461.7563492265431364
    DFT Exchange-Correlation Energy =       0.0000000000000000
    Empirical Dispersion Energy =           0.0000000000000000
    PCM Polarization Energy =               0.0000000000000000
    EFP Energy =                            0.0000000000000000
    Total Energy =                       -344.5910958730034395

    Alert: EFP and PCM quantities not currently incorporated into SCF psivars.

Properties will be evaluated at   0.000000,   0.000000,   0.000000 Bohr
  ==> Properties <==


Properties computed using the SCF density matrix

  Nuclear Dipole Moment: (a.u.)
     X:     3.7962      Y:     2.1363      Z:    -3.4282

  Electronic Dipole Moment: (a.u.)
     X:    -3.9088      Y:    -1.4934      Z:     3.3065

  Dipole Moment: (a.u.)
     X:    -0.1126      Y:     0.6429      Z:    -0.1217     Total:     0.6640

  Dipole Moment: (Debye)
     X:    -0.2862      Y:     1.6341      Z:    -0.3093     Total:     1.6876


  Saving occupied orbitals to File 180.

*** tstop() called on cx1-1-2-4.cx1.hpc.ic.ac.uk at Fri Sep  2 11:35:46 2016
Module time:
	user time   =      16.86 seconds =       0.28 minutes
	system time =       0.20 seconds =       0.00 minutes
	total time  =          5 seconds =       0.08 minutes
Total time:
	user time   =      96.18 seconds =       1.60 minutes
	system time =       1.10 seconds =       0.02 minutes
	total time  =         30 seconds =       0.50 minutes

*** tstart() called on cx1-1-2-4.cx1.hpc.ic.ac.uk
*** at Fri Sep  2 11:35:46 2016


         ------------------------------------------------------------
                                   SCF GRAD                          
                          Rob Parrish, Justin Turney,                
                       Andy Simmonett, and Alex Sokolov              
         ------------------------------------------------------------

  ==> Geometry <==

    Molecular point group: c1
    Full point group: C1

    Geometry (in Angstrom), charge = 0, multiplicity = 1:

       Center              X                  Y                   Z               Mass       
    ------------   -----------------  -----------------  -----------------  -----------------
           H         -2.888363523024    -0.891111786941     0.426606835539     1.007825032070
           O         -2.091018016344    -1.403088429052     0.419853882855    15.994914619560
           C         -0.999899683940    -0.577042152044     0.376427926557    12.000000000000
           C         -0.645940943781     0.181555184528     1.475956618035    12.000000000000
           C         -0.241857190347    -0.530006009792    -0.783889009789    12.000000000000
           H         -1.235253141528     0.128905978493     2.373589388008     1.007825032070
           C          0.477184155922     0.992137651075     1.402485912433    12.000000000000
           H         -0.548012074217    -1.134391413330    -1.618924034835     1.007825032070
           C          0.886834461440     0.271552389537    -0.860149531600    12.000000000000
           H          0.758122444209     1.587118623886     2.253468065494     1.007825032070
           C          1.237281882196     1.038314415497     0.248972771255    12.000000000000
           C          1.732545327793     0.301686266414    -2.112124621082    12.000000000000
           H          2.107149567934     1.670554807937     0.207154789656     1.007825032070
           H          2.025464298601     1.315676102921    -2.363197835625     1.007825032070
           H          1.199078828188    -0.113118910725    -2.959342517688     1.007825032070
           H          2.641921652111    -0.277614886638    -1.978410262029     1.007825032070

  Nuclear repulsion =  345.022071734175654

  ==> Basis Set <==

  Basis Set: 6-31G*
    Number of shells: 64
    Number of basis function: 136
    Number of Cartesian functions: 136
    Spherical Harmonics?: false
    Max angular momentum: 2

  ==> DFJKGrad: Density-Fitted SCF Gradients <==

    Gradient:                    1
    J tasked:                  Yes
    K tasked:                  Yes
    wK tasked:                  No
    OpenMP threads:              4
    Integrals threads:           4
    Memory (MB):              1430
    Schwarz Cutoff:          0E+00
    Fitting Condition:       1E-12

   => Auxiliary Basis Set <=

  Basis Set: 
    Number of shells: 264
    Number of basis function: 848
[...]
	 C           2.2670743194        2.0582211690        0.4265907468
	 C           3.2625338379        0.5640240073       -3.9973152509
	 H           3.8664623578        3.3090955241        0.3269394470
	 H           4.4879563325        2.2039925129       -4.0522458047
	 H           2.0891017263        0.5927505938       -5.6782299514
	 H           4.4493577285       -1.1079024406       -4.1025719159
	            -0.0000300337       -0.0000768567       -0.0015023288
	            -0.0003179115        0.0004566813        0.0016539620
	             0.0010318007       -0.0011599947        0.0002767644
	            -0.0000182159       -0.0000062165       -0.0000020474
	            -0.0006623000        0.0007570470       -0.0004221159
	            -0.0000005738        0.0000021128       -0.0000005203
	             0.0000100451       -0.0000113283       -0.0000036521
	            -0.0000074367        0.0000110472        0.0000021646
	            -0.0000165812        0.0000537330       -0.0000080133
	            -0.0000007148        0.0000007300       -0.0000008227
	             0.0000074142       -0.0000114331        0.0000109525
	            -0.0000010872        0.0000142500       -0.0000024299
	            -0.0000078692        0.0000049318       -0.0000075236
	             0.0000000500       -0.0000118556        0.0000017718
	             0.0000062973       -0.0000086941        0.0000042054
	             0.0000071168       -0.0000141540       -0.0000003666

	---Fragment 1 Intrafragment Coordinates---
	 - Coordinate -           - BOHR/RAD -       - ANG/DEG -
	 R(1,2)           =         1.790815	       0.947658
	 R(2,3)           =         2.588399	       1.369722
	 R(3,4)           =         2.619671	       1.386270
	 R(3,5)           =         2.611557	       1.381976
	 R(4,6)           =         2.031790	       1.075177
	 R(4,7)           =         2.613043	       1.382763
	 R(5,8)           =         2.032368	       1.075483
	 R(5,9)           =         2.629217	       1.391322
	 R(7,10)          =         2.032576	       1.075593
	 R(7,11)          =         2.620680	       1.386804
	 R(9,11)          =         2.623695	       1.388399
	 R(9,12)          =         2.855771	       1.511209
	 R(11,13)         =         2.032894	       1.075761
	 R(12,14)         =         2.047968	       1.083738
	 R(12,15)         =         2.050181	       1.084909
	 R(12,16)         =         2.053039	       1.086421
	 B(1,2,3)         =         1.921819	     110.112145
	 B(2,3,4)         =         2.103330	     120.511955
	 B(2,3,5)         =         2.075985	     118.945153
	 B(3,4,6)         =         2.088812	     119.680101
	 B(3,4,7)         =         2.077834	     119.051121
	 B(3,5,8)         =         2.068812	     118.534180
	 B(3,5,9)         =         2.105635	     120.643999
	 B(4,3,5)         =         2.103704	     120.533358
	 B(4,7,10)        =         2.088361	     119.654258
	 B(4,7,11)        =         2.104837	     120.598280
	 B(5,9,11)        =         2.071086	     118.664471
	 B(5,9,12)        =         2.097290	     120.165875
	 B(6,4,7)         =         2.116502	     121.266615
	 B(7,11,9)        =         2.103208	     120.504952
	 B(7,11,13)       =         2.088845	     119.681985
	 B(8,5,9)         =         2.108716	     120.820535
	 B(9,11,13)       =         2.091131	     119.812962
	 B(9,12,14)       =         1.942945	     111.322520
	 B(9,12,15)       =         1.941901	     111.262730
	 B(9,12,16)       =         1.934716	     110.851079
	 B(10,7,11)       =         2.089979	     119.746964
	 B(11,9,12)       =         2.114754	     121.166478
	 B(14,12,15)      =         1.885215	     108.014842
	 B(14,12,16)      =         1.880578	     107.749206
	 B(15,12,16)      =         1.875745	     107.472276
	 D(1,2,3,4)       =         1.241229	      71.117200
	*D(1,2,3,5)       =        -1.919862	    -109.999987
	 D(2,3,4,6)       =        -0.007207	      -0.412906
	 D(2,3,4,7)       =         3.125168	     179.058936
	 D(2,3,5,8)       =         0.018532	       1.061793
	 D(2,3,5,9)       =        -3.115921	    -178.529118
	 D(3,4,7,10)      =         3.139301	     179.868714
	 D(3,4,7,11)      =        -0.006782	      -0.388587
	 D(3,5,9,11)      =        -0.012146	      -0.695932
	 D(3,5,9,12)      =         3.118264	     178.663394
	 D(4,3,5,8)       =         3.140622	     179.944359
	 D(4,3,5,9)       =         0.006169	       0.353448
	 D(4,7,11,9)      =         0.000668	       0.038292
	 D(4,7,11,13)     =        -3.138899	    -179.845667
	 D(5,3,4,6)       =        -3.128989	    -179.277882
	 D(5,3,4,7)       =         0.003385	       0.193960
	 D(5,9,11,7)      =         0.008744	       0.500980
	 D(5,9,11,13)     =        -3.134877	    -179.615214
	 D(5,9,12,14)     =         2.880900	     165.063405
	 D(5,9,12,15)     =         0.777089	      44.523918
	 D(5,9,12,16)     =        -1.309207	     -75.012025
	 D(6,4,7,10)      =        -0.011661	      -0.668120
	 D(6,4,7,11)      =         3.125441	     179.074578
	 D(7,11,9,12)     =        -3.121551	    -178.851677
	 D(8,5,9,11)      =         3.136751	     179.722568
	 D(8,5,9,12)      =        -0.016024	      -0.918106
	 D(9,11,7,10)     =         3.137766	     179.780753
	 D(10,7,11,13)    =        -0.001801	      -0.103206
	 D(11,9,12,14)    =        -0.272159	     -15.593575
	 D(11,9,12,15)    =        -2.375970	    -136.133061
	 D(11,9,12,16)    =         1.820919	     104.330995
	 D(12,9,11,13)    =         0.018014	       1.032130

	Current energy   :      -344.5911358994

	Energy change for the previous step:
		Projected    :         0.0000012679
		Actual       :        -0.0000001701

	Performing BFGS update.
	Previous computed or guess Hessian on step 1.
	Steps to be used in Hessian update: 15 14
	Taking RFO optimization step.
	Going to follow RFO solution 1.
	Rejecting RFO root 1 because normalization gives large value.
	Using RFO vector 2.
	Norm of target step-size    0.01795
	Projected energy change by RFO approximation:        -0.0000008454

	Back-transformation to cartesian coordinates...
	Successfully converged to displaced geometry.

	Back-transformation to cartesian coordinates to adjust frozen coordinates...
	Successfully converged to displaced geometry.

	--- Internal Coordinate Step in ANG or DEG, aJ/ANG or AJ/DEG ---
	 ---------------------------------------------------------------------------
	   Coordinate                Previous        Force       Change         New 
	   ----------                --------       ------       ------       ------
	    1 R(1,2)          =      0.947658    -0.000030    -0.000001     0.947657
	    2 R(2,3)          =      1.369722    -0.000308    -0.000024     1.369697
	    3 R(3,4)          =      1.386270     0.000104     0.000031     1.386301
	    4 R(3,5)          =      1.381976    -0.000040    -0.000025     1.381952
	    5 R(4,6)          =      1.075177     0.000002     0.000001     1.075178
	    6 R(4,7)          =      1.382763    -0.000043    -0.000025     1.382738
	    7 R(5,8)          =      1.075483     0.000052     0.000008     1.075491
	    8 R(5,9)          =      1.391322    -0.000071     0.000016     1.391338
	    9 R(7,10)         =      1.075593     0.000003    -0.000000     1.075593
	   10 R(7,11)         =      1.386804    -0.000003     0.000024     1.386828
	   11 R(9,11)         =      1.388399     0.000040    -0.000020     1.388380
	   12 R(9,12)         =      1.511209    -0.000033     0.000003     1.511212
	   13 R(11,13)        =      1.075761     0.000023    -0.000001     1.075760
	   14 R(12,14)        =      1.083738     0.000078     0.000003     1.083741
	   15 R(12,15)        =      1.084909     0.000059     0.000032     1.084941
	   16 R(12,16)        =      1.086421    -0.000129    -0.000035     1.086387
	   17 B(1,2,3)        =    110.112145    -0.000000     0.000161   110.112306
	   18 B(2,3,4)        =    120.511955    -0.000000    -0.001511   120.510444
	   19 B(2,3,5)        =    118.945153     0.000001     0.003025   118.948179
	   20 B(3,4,6)        =    119.680101    -0.000000    -0.001290   119.678811
	   21 B(3,4,7)        =    119.051121     0.000001     0.001284   119.052406
	   22 B(3,5,8)        =    118.534180     0.000000     0.000798   118.534977
	   23 B(3,5,9)        =    120.643999     0.000000     0.000917   120.644917
	   24 B(4,3,5)        =    120.533358    -0.000001    -0.001518   120.531840
	   25 B(4,7,10)       =    119.654258     0.000000     0.000586   119.654845
	   26 B(4,7,11)       =    120.598280    -0.000000    -0.000707   120.597573
	   27 B(5,9,11)       =    118.664471     0.000000     0.000042   118.664514
	   28 B(5,9,12)       =    120.165875     0.000001    -0.002561   120.163314
	   29 B(6,4,7)        =    121.266615    -0.000000    -0.000034   121.266581
	   30 B(7,11,9)       =    120.504952    -0.000000     0.000005   120.504957
	   31 B(7,11,13)      =    119.681985    -0.000000    -0.001283   119.680702
	   32 B(8,5,9)        =    120.820535    -0.000000    -0.001775   120.818760
	   33 B(9,11,13)      =    119.812962     0.000000     0.001265   119.814227
	   34 B(9,12,14)      =    111.322520    -0.000000    -0.003410   111.319110
	   35 B(9,12,15)      =    111.262730    -0.000000    -0.007004   111.255726
	   36 B(9,12,16)      =    110.851079     0.000000     0.010604   110.861683
	   37 B(10,7,11)      =    119.746964     0.000000     0.000104   119.747068
	   38 B(11,9,12)      =    121.166478    -0.000001     0.002998   121.169477
	   39 B(14,12,15)     =    108.014842    -0.000000    -0.006837   108.008005
	   40 B(14,12,16)     =    107.749206     0.000000     0.005574   107.754780
	   41 B(15,12,16)     =    107.472276     0.000000     0.001197   107.473472
	   42 D(1,2,3,4)      =     71.117200     0.000000     0.000198    71.117398
	   43 *D(1,2,3,5)     =   -109.999987     0.000000    -0.000000  -109.999987
	   44 D(2,3,4,6)      =     -0.412906    -0.000000    -0.000478    -0.413384
	   45 D(2,3,4,7)      =    179.058936    -0.000000    -0.005264   179.053672
	   46 D(2,3,5,8)      =      1.061793    -0.000000    -0.005788     1.056005
	   47 D(2,3,5,9)      =   -178.529118     0.000000     0.003698  -178.525420
	   48 D(3,4,7,10)     =    179.868714     0.000000     0.006783   179.875497
	   49 D(3,4,7,11)     =     -0.388587    -0.000000     0.002570    -0.386018
	   50 D(3,5,9,11)     =     -0.695932    -0.000000     0.000711    -0.695221
	   51 D(3,5,9,12)     =    178.663394     0.000000     0.051076   178.714470
	   52 D(4,3,5,8)      =    179.944359    -0.000000    -0.005986   179.938373
	   53 D(4,3,5,9)      =      0.353448    -0.000000     0.003500     0.356948
	   54 D(4,7,11,9)     =      0.038292     0.000000     0.001621     0.039913
	   55 D(4,7,11,13)    =   -179.845667     0.000000     0.009153  -179.836514
	   56 D(5,3,4,6)      =   -179.277882     0.000000    -0.000328  -179.278210
	   57 D(5,3,4,7)      =      0.193960     0.000000    -0.005114     0.188846
	   58 D(5,9,11,7)     =      0.500980    -0.000000    -0.003258     0.497721
	   59 D(5,9,11,13)    =   -179.615214    -0.000000    -0.010802  -179.626016
	   60 D(5,9,12,14)    =    165.063405    -0.000000     0.381258   165.444662
	   61 D(5,9,12,15)    =     44.523918    -0.000000     0.397059    44.920977
	   62 D(5,9,12,16)    =    -75.012025    -0.000000     0.393132   -74.618893
	   63 D(6,4,7,10)     =     -0.668120     0.000000     0.001912    -0.666208
	   64 D(6,4,7,11)     =    179.074578    -0.000000    -0.002301   179.072277
	   65 D(7,11,9,12)    =   -178.851677    -0.000000    -0.054114  -178.905791
	   66 D(8,5,9,11)     =    179.722568     0.000000     0.010404   179.732972
	   67 D(8,5,9,12)     =     -0.918106     0.000000     0.060770    -0.857336
	   68 D(9,11,7,10)    =    179.780753    -0.000000    -0.002594   179.778158
	   69 D(10,7,11,13)   =     -0.103206     0.000000     0.004937    -0.098269
	   70 D(11,9,12,14)   =    -15.593575     0.000000     0.432886   -15.160689
	   71 D(11,9,12,15)   =   -136.133061     0.000000     0.448687  -135.684374
	   72 D(11,9,12,16)   =    104.330995     0.000000     0.444760   104.775756
	   73 D(12,9,11,13)   =      1.032130    -0.000000    -0.061658     0.970472
	 ---------------------------------------------------------------------------

  ==> Convergence Check <==

  Measures of convergence in internal coordinates in au.
  Criteria marked as inactive (o), active & met (*), and active & unmet ( ).
  ---------------------------------------------------------------------------------------------
   Step     Total Energy     Delta E     MAX Force     RMS Force      MAX Disp      RMS Disp   
  ---------------------------------------------------------------------------------------------
    Convergence Criteria    1.00e-06 *    3.00e-04 *             o    1.20e-03 *             o
  ---------------------------------------------------------------------------------------------
     16    -344.59113590   -1.70e-07 *    3.74e-05 *    7.56e-06 o    7.83e-03      2.10e-03 o  ~
  ---------------------------------------------------------------------------------------------


  **** Optimization is complete! (in 16 steps) ****

  ==> Optimization Summary <==

  Measures of convergence in internal coordinates in au.
  --------------------------------------------------------------------------------------------------------------- ~
   Step         Total Energy             Delta E       MAX Force       RMS Force        MAX Disp        RMS Disp  ~
  --------------------------------------------------------------------------------------------------------------- ~
      1    -344.590542258182   -344.590542258182      0.01486093      0.00227027      0.03794604      0.01100240  ~
      2    -344.591047551342     -0.000505293160      0.00302615      0.00057877      0.01285811      0.00381751  ~
      3    -344.591095873003     -0.000048321661      0.00069864      0.00018056      0.00717901      0.00201942  ~
      4    -344.591100803013     -0.000004930010      0.00027717      0.00007863      0.00642336      0.00160817  ~
      5    -344.591102405513     -0.000001602500      0.00018501      0.00003769      0.01000857      0.00281832  ~
      6    -344.591103576576     -0.000001171063      0.00011907      0.00003094      0.02527292      0.00711925  ~
      7    -344.591105900829     -0.000002324253      0.00022737      0.00005704      0.08419020      0.02353297  ~
      8    -344.591112626624     -0.000006725795      0.00054048      0.00012522      0.19934259      0.05582289  ~
      9    -344.591122236014     -0.000009609390      0.00080626      0.00017626      0.00631370      0.00198962  ~
     10    -344.591124950277     -0.000002714263      0.00029333      0.00010452      0.03305793      0.00909049  ~
     11    -344.591122176884      0.000002773392      0.00038778      0.00013119      0.02778945      0.00757827  ~
     12    -344.591128391015     -0.000006214131      0.00034957      0.00009089      0.04121374      0.01139923  ~
     13    -344.591132404680     -0.000004013664      0.00030164      0.00006233      0.05175649      0.01463026  ~
     14    -344.591134602965     -0.000002198285      0.00017567      0.00003770      0.05222971      0.01463014  ~
     15    -344.591135729294     -0.000001126329      0.00002021      0.00000736      0.02560174      0.00715495  ~
     16    -344.591135899440     -0.000000170146      0.00003740      0.00000756      0.00783107      0.00210121  ~
  --------------------------------------------------------------------------------------------------------------- ~

	Writing optimization data to binary file.
	Final energy is   -344.5911358994397
	Final (previous) structure:
	Cartesian Geometry (in Angstrom)
	    H    -2.8554645533  -0.9794713757   0.4368906369
	    O    -2.0409227304  -1.4636837455   0.4476807322
	    C    -0.9791174241  -0.6007015079   0.3846821032
	    C    -0.6579353928   0.2004333170   1.4694727253
	    C    -0.2192024331  -0.5583245583  -0.7688307729
	    H    -1.2516046969   0.1479391020   2.3643509308
	    C     0.4321048252   1.0465030633   1.3799639768
	    H    -0.4967662535  -1.1942633156  -1.5905382730
	    C     0.8852936944   0.2828453297  -0.8599200068
	    H     0.6887813704   1.6738984231   2.2150642873
	    C     1.1996841516   1.0891638161   0.2257421178
	    C     1.7264586811   0.2984686726  -2.1152882879
	    H     2.0460439139   1.7510980661   0.1730089172
	    H     2.3749243857   1.1663026948  -2.1443562872
	    H     1.1055051044   0.3136701286  -3.0047901049
	    H     2.3544988826  -0.5862767657  -2.1709877203
	Saving final (previous) structure.
			--------------------------
			 OPTKING Finished Execution 
			--------------------------

    Final optimized geometry and variables:
    Molecular point group: c1
    Full point group: C1

    Geometry (in Angstrom), charge = 0, multiplicity = 1:

    H           -2.855464335283    -0.979471300920     0.436890603565
    O           -2.040922574500    -1.463683633707     0.447680698043
    C           -0.979117349381    -0.600701462050     0.384682073856
    C           -0.657935342540     0.200433301699     1.469472613092
    C           -0.219202416408    -0.558324515675    -0.768830714186
    H           -1.251604601307     0.147939090655     2.364350750204
    C            0.432104792235     1.046502983380     1.379963871396
    H           -0.496766215588    -1.194263224360    -1.590538151543
    C            0.885293626810     0.282845308140    -0.859919941128
    H            0.688781317848     1.673898295285     2.215064118129
    C            1.199684060000     1.089163732894     0.225742100602
    C            1.726458549245     0.298468649762    -2.115288126346
    H            2.046043757624     1.751097932424     0.173008903968
    H            2.374924204321     1.166302605711    -2.144356123435
    H            1.105505019962     0.313670104623    -3.004789875414
    H            2.354498702783    -0.586276720884    -2.170987554493

	Cleaning optimization helper files.


Properties will be evaluated at   0.000000,   0.000000,   0.000000 Bohr

Properties computed using the  density matrix

  Nuclear Dipole Moment: (a.u.)
     X:     3.7081      Y:     2.1425      Z:    -3.4865

  Electronic Dipole Moment: (a.u.)
     X:    -3.8533      Y:    -1.5185      Z:     3.3423

  Dipole Moment: (a.u.)
     X:    -0.1452      Y:     0.6240      Z:    -0.1442     Total:     0.6567

  Dipole Moment: (Debye)
     X:    -0.3690      Y:     1.5861      Z:    -0.3666     Total:     1.6692

  Quadrupole Moment: (Debye Ang)
    XX:   -41.1359     YY:   -51.6220     ZZ:   -44.0595
    XY:    -0.0493     XZ:    -1.9376     YZ:     2.9216

  Traceless Quadrupole Moment: (Debye Ang)
    XX:     4.4699     YY:    -6.0162     ZZ:     1.5463
    XY:    -0.0493     XZ:    -1.9376     YZ:     2.9216

  Mulliken Charges: (a.u.)
   Center  Symbol    Alpha    Beta     Spin     Total
       1     H     0.27171  0.27171  0.00000  0.45657
       2     O     4.38831  4.38831  0.00000 -0.77662
       3     C     2.81244  2.81244  0.00000  0.37511
       4     C     3.12751  3.12751  0.00000 -0.25502
       5     C     3.13077  3.13077  0.00000 -0.26155
       6     H     0.39742  0.39742  0.00000  0.20516
       7     C     3.09252  3.09252  0.00000 -0.18504
       8     H     0.39585  0.39585  0.00000  0.20831
       9     C     2.97486  2.97486  0.00000  0.05027
      10     H     0.39861  0.39861  0.00000  0.20278
      11     C     3.12066  3.12066  0.00000 -0.24133
      12     C     3.25362  3.25362  0.00000 -0.50724
      13     H     0.40238  0.40238  0.00000  0.19525
      14     H     0.41295  0.41295  0.00000  0.17410
      15     H     0.41197  0.41197  0.00000  0.17605
      16     H     0.40840  0.40840  0.00000  0.18320

   Total alpha = 29.00000, Total beta = 29.00000, Total charge = -0.00000


*** PSI4 exiting successfully. Buy a developer a beer!
