    -----------------------------------------------------------------------
          Psi4: An Open-Source Ab Initio Electronic Structure Package
                              Psi4 1.0.54 Driver

                          Git: Rev {master} 8d4cec3 dirty

    J. M. Turney, A. C. Simmonett, R. M. Parrish, E. G. Hohenstein,
    F. A. Evangelista, J. T. Fermann, B. J. Mintz, L. A. Burns, J. J. Wilke,
    M. L. Abrams, N. J. Russ, M. L. Leininger, C. L. Janssen, E. T. Seidl,
    W. D. Allen, H. F. Schaefer, R. A. King, E. F. Valeev, C. D. Sherrill,
    and T. D. Crawford, WIREs Comput. Mol. Sci. 2, 556-565 (2012)
    (doi: 10.1002/wcms.93)

                         Additional Contributions by
    A. E. DePrince, U. Bozkaya, A. Yu. Sokolov, D. G. A. Smith, R. Di Remigio,
    R. M. Richard, J. F. Gonthier, H. R. McAlexander, M. Saitow, and
    B. P. Pritchard
    -----------------------------------------------------------------------


    Psi4 started on: Sat Sep 10 15:40:44 2016

    Process ID:   2232
    PSI4DATADIR: /export131/home/mjharvey/miniconda3/share/psi4
    Memory level set to 256.000 MB

  ==> Input File <==

--------------------------------------------------------------------------
set {
	reference rhf
	basis cc-pvtz
}


set_num_threads( 4 )
memory 2 gb

molecule MOL {
0 1

H	 -2.861681	 0.112972	 -2.252142
C	 -1.901541	 -0.020001	 -1.793271
C	 -1.589982	 -1.205097	 -1.141878
C	 -0.958831	 0.980474	 -1.840418
H	 -2.313097	 -1.997198	 -1.094855
C	 -0.361041	 -1.379694	 -0.552606
H	 -1.181546	 1.904411	 -2.339846
C	 0.287326	 0.820749	 -1.250511
H	 -0.110354	 -2.291345	 -0.046920
C	 0.587842	 -0.364001	 -0.603875
H	 0.998945	 1.618320	 -1.304735
O	 1.760432	 -0.625184	 0.000000
C	 2.773565	 0.334879	 0.000000
H	 2.728295	 0.960928	 -0.884150
H	 3.706387	 -0.206610	 0.000000
H	 2.728295	 0.960928	 0.884150

	symmetry c1
}
set optking {
	frozen_dihedral = ("
		10 12 13 14
	")
}

ee,wfn = optimize('scf', return_wfn=True)
oeprop( wfn, 'DIPOLE', 'QUADRUPOLE', 'MULLIKEN_CHARGES')
f=open( 'psi4out.xyz', 'w' )
f.write( "16  " )
f.write( str(ee) + "\n" )
f.write( MOL.save_string_xyz() )
f.close()
--------------------------------------------------------------------------

  Memory set to   2.000 GiB by Python script.
gradient() will perform analytic gradient computation.

*** tstart() called on cx1-27-3-3
*** at Sat Sep 10 15:40:44 2016


         ---------------------------------------------------------
                                   SCF
            by Justin Turney, Rob Parrish, and Andy Simmonett
                              RHF Reference
                        4 Threads,   2000 MiB Core
         ---------------------------------------------------------

  ==> Geometry <==

    Molecular point group: c1
    Full point group: C1

    Geometry (in Angstrom), charge = 0, multiplicity = 1:

       Center              X                  Y                   Z               Mass       
    ------------   -----------------  -----------------  -----------------  -----------------
           H         -3.027612772139     0.288076317013    -1.388858381276     1.007825032070
           C         -2.067472772139     0.155103317013    -0.929987381276    12.000000000000
           C         -1.755913772139    -1.029992682987    -0.278594381276    12.000000000000
           C         -1.124762772139     1.155578317013    -0.977134381276    12.000000000000
           H         -2.479028772139    -1.822093682987    -0.231571381276     1.007825032070
           C         -0.526972772139    -1.204589682987     0.310677618724    12.000000000000
           H         -1.347477772139     2.079515317013    -1.476562381276     1.007825032070
           C          0.121394227861     0.995853317013    -0.387227381276    12.000000000000
           H         -0.276285772139    -2.116240682987     0.816363618724     1.007825032070
           C          0.421910227861    -0.188896682987     0.259408618724    12.000000000000
           H          0.833013227861     1.793424317013    -0.441451381276     1.007825032070
           O          1.594500227861    -0.450079682987     0.863283618724    15.994914619560
           C          2.607633227861     0.509983317013     0.863283618724    12.000000000000
           H          2.562363227861     1.136032317013    -0.020866381276     1.007825032070
           H          3.540455227861    -0.031505682987     0.863283618724     1.007825032070
           H          2.562363227861     1.136032317013     1.747433618724     1.007825032070

  Running in c1 symmetry.

  Rotational constants: A =      0.17269  B =      0.05287  C =      0.04079 [cm^-1]
  Rotational constants: A =   5177.23652  B =   1585.15189  C =   1222.80042 [MHz]
  Nuclear repulsion =  349.005489867952406

  Charge       = 0
  Multiplicity = 1
  Electrons    = 58
  Nalpha       = 29
  Nbeta        = 29

  ==> Algorithm <==

  SCF Algorithm Type is DF.
  DIIS enabled.
  MOM disabled.
  Fractional occupation disabled.
  Guess Type is SAD.
  Energy threshold   = 1.00e-08
  Density threshold  = 1.00e-08
  Integral threshold = 0.00e+00

  ==> Primary Basis <==

  Basis Set: CC-PVTZ
    Number of shells: 128
    Number of basis function: 352
    Number of Cartesian functions: 400
    Spherical Harmonics?: true
    Max angular momentum: 3

  ==> Pre-Iterations <==

   -------------------------------------------------------
    Irrep   Nso     Nmo     Nalpha   Nbeta   Ndocc  Nsocc
   -------------------------------------------------------
     A        352     352       0       0       0       0
   -------------------------------------------------------
    Total     352     352      29      29      29       0
   -------------------------------------------------------

  ==> Integral Setup <==

  ==> DFJK: Density-Fitted J/K Matrices <==

    J tasked:                  Yes
    K tasked:                  Yes
    wK tasked:                  No
    OpenMP threads:              4
    Integrals threads:           4
    Memory (MB):              1430
    Algorithm:                Core
    Integral Cache:           NONE
    Schwarz Cutoff:          1E-12
    Fitting Condition:       1E-12

   => Auxiliary Basis Set <=

  Basis Set: 
    Number of shells: 280
    Number of basis function: 872
    Number of Cartesian functions: 1048
    Spherical Harmonics?: true
    Max angular momentum: 4

  Minimum eigenvalue in the overlap matrix is 3.4849278131E-05.
  Using Symmetric Orthogonalization.
  SCF Guess: Superposition of Atomic Densities via on-the-fly atomic UHF.

  ==> Iterations <==

                           Total Energy        Delta E     RMS |[F,P]|

   @DF-RHF iter   0:  -349.67243383437051   -3.49672e+02   1.63456e-02 
   @DF-RHF iter   1:  -344.51837174679440    5.15406e+00   1.29786e-03 
   @DF-RHF iter   2:  -344.67204224997124   -1.53671e-01   4.75478e-04 DIIS
   @DF-RHF iter   3:  -344.69282596844562   -2.07837e-02   2.50184e-04 DIIS
   @DF-RHF iter   4:  -344.69896513791934   -6.13917e-03   7.31540e-05 DIIS
   @DF-RHF iter   5:  -344.69973975941264   -7.74621e-04   2.44718e-05 DIIS
   @DF-RHF iter   6:  -344.69984154104338   -1.01782e-04   8.01703e-06 DIIS
   @DF-RHF iter   7:  -344.69985074126510   -9.20022e-06   2.38325e-06 DIIS
   @DF-RHF iter   8:  -344.69985201292138   -1.27166e-06   1.05035e-06 DIIS
   @DF-RHF iter   9:  -344.69985234288936   -3.29968e-07   5.83989e-07 DIIS
   @DF-RHF iter  10:  -344.69985245358077   -1.10691e-07   2.17580e-07 DIIS
   @DF-RHF iter  11:  -344.69985246856743   -1.49867e-08   7.90174e-08 DIIS
   @DF-RHF iter  12:  -344.69985246996669   -1.39926e-09   2.37359e-08 DIIS
   @DF-RHF iter  13:  -344.69985247008810   -1.21418e-10   6.83830e-09 DIIS

  ==> Post-Iterations <==

    Orbital Energies (a.u.)
    -----------------------

    Doubly Occupied:                                                      

       1A    -20.580274     2A    -11.294526     3A    -11.277500  
       4A    -11.231395     5A    -11.230147     6A    -11.221215  
       7A    -11.217613     8A    -11.216395     9A     -1.420277  
      10A     -1.150854    11A     -1.025766    12A     -1.016631  
      13A     -0.944924    14A     -0.834952    15A     -0.807949  
      16A     -0.728111    17A     -0.667489    18A     -0.666282  
      19A     -0.659684    20A     -0.621728    21A     -0.590581  
      22A     -0.576711    23A     -0.529963    24A     -0.522949  
      25A     -0.514279    26A     -0.477427    27A     -0.466965  
      28A     -0.339883    29A     -0.308995  

    Virtual:                                                              

      30A      0.128975    31A      0.142810    32A      0.151321  
      33A      0.158992    34A      0.172559    35A      0.192673  
      36A      0.205936    37A      0.216663    38A      0.219699  
      39A      0.253451    40A      0.263338    41A      0.346166  
      42A      0.357044    43A      0.362213    44A      0.366814  
      45A      0.384429    46A      0.393488    47A      0.422149  
      48A      0.438412    49A      0.468401    50A      0.477608  
      51A      0.482710    52A      0.492830    53A      0.504203  
      54A      0.522805    55A      0.541223    56A      0.549705  
      57A      0.561565    58A      0.575687    59A      0.584428  
      60A      0.589066    61A      0.592994    62A      0.594862  
      63A      0.601071    64A      0.613457    65A      0.622818  
      66A      0.642349    67A      0.650353    68A      0.656518  
      69A      0.663868    70A      0.676280    71A      0.681952  
      72A      0.686176    73A      0.720506    74A      0.732420  
      75A      0.744659    76A      0.754542    77A      0.771701  
      78A      0.811084    79A      0.829893    80A      0.837106  
      81A      0.867355    82A      0.895454    83A      0.912691  
      84A      0.923383    85A      0.928262    86A      0.948846  
      87A      0.964004    88A      0.981751    89A      0.992440  
      90A      1.019979    91A      1.027642    92A      1.030898  
      93A      1.039194    94A      1.043596    95A      1.079017  
      96A      1.119216    97A      1.130268    98A      1.154264  
      99A      1.164527   100A      1.183146   101A      1.197941  
     102A      1.205610   103A      1.224530   104A      1.237974  
     105A      1.255554   106A      1.265989   107A      1.290749  
     108A      1.305872   109A      1.331121   110A      1.343132  
     111A      1.352849   112A      1.375606   113A      1.384329  
     114A      1.411375   115A      1.426533   116A      1.440395  
     117A      1.473102   118A      1.489876   119A      1.494086  
     120A      1.522585   121A      1.526552   122A      1.543260  
     123A      1.547010   124A      1.558508   125A      1.583800  
     126A      1.594816   127A      1.602889   128A      1.611106  
     129A      1.625145   130A      1.637777   131A      1.663419  
     132A      1.669503   133A      1.703096   134A      1.721531  
     135A      1.757675   136A      1.770403   137A      1.779887  
     138A      1.795873   139A      1.851306   140A      1.890506  
     141A      1.978156   142A      2.052052   143A      2.150693  
     144A      2.189014   145A      2.195093   146A      2.227803  
     147A      2.269089   148A      2.292161   149A      2.321150  
     150A      2.343321   151A      2.380505   152A      2.432920  
     153A      2.450386   154A      2.461817   155A      2.467202  
     156A      2.507236   157A      2.532575   158A      2.535732  
     159A      2.560062   160A      2.573809   161A      2.611768  
     162A      2.649305   163A      2.694744   164A      2.712319  
     165A      2.729050   166A      2.744271   167A      2.773403  
     168A      2.787534   169A      2.820010   170A      2.854826  
     171A      2.861010   172A      2.883203   173A      2.940020  
     174A      2.945085   175A      2.947832   176A      2.966021  
     177A      2.975780   178A      3.003542   179A      3.023588  
     180A      3.035002   181A      3.039093   182A      3.060141  
     183A      3.068298   184A      3.081764   185A      3.087742  
     186A      3.113957   187A      3.119936   188A      3.137061  
     189A      3.151402   190A      3.167489   191A      3.200245  
     192A      3.228189   193A      3.235872   194A      3.247718  
     195A      3.261873   196A      3.277940   197A      3.282579  
     198A      3.319570   199A      3.328831   200A      3.348388  
     201A      3.367121   202A      3.372705   203A      3.385545  
     204A      3.387497   205A      3.392435   206A      3.412192  
     207A      3.423931   208A      3.430614   209A      3.448568  
     210A      3.450859   211A      3.456694   212A      3.464823  
     213A      3.473186   214A      3.480392   215A      3.486395  
     216A      3.519605   217A      3.561650   218A      3.590546  
     219A      3.617896   220A      3.625890   221A      3.653182  
     222A      3.662542   223A      3.676071   224A      3.680989  
     225A      3.697078   226A      3.705952   227A      3.712548  
     228A      3.722506   229A      3.732414   230A      3.753030  
     231A      3.766614   232A      3.774647   233A      3.786321  
     234A      3.807697   235A      3.836001   236A      3.851039  
     237A      3.888745   238A      3.926277   239A      3.959252  
     240A      3.991767   241A      4.000908   242A      4.015769  
     243A      4.031519   244A      4.073291   245A      4.079526  
     246A      4.108981   247A      4.125100   248A      4.133195  
     249A      4.148830   250A      4.157488   251A      4.160196  
     252A      4.170130   253A      4.180180   254A      4.189769  
     255A      4.198864   256A      4.215147   257A      4.236193  
     258A      4.242970   259A      4.256783   260A      4.308146  
     261A      4.323715   262A      4.339011   263A      4.353755  
     264A      4.396507   265A      4.408707   266A      4.431673  
     267A      4.459669   268A      4.465194   269A      4.492411  
     270A      4.499353   271A      4.502641   272A      4.523990  
     273A      4.531574   274A      4.561185   275A      4.569622  
     276A      4.600086   277A      4.632978   278A      4.642134  
     279A      4.644204   280A      4.684458   281A      4.707987  
     282A      4.713294   283A      4.716253   284A      4.728342  
     285A      4.750040   286A      4.769641   287A      4.803317  
     288A      4.845397   289A      4.923896   290A      4.963842  
     291A      5.019033   292A      5.050702   293A      5.062947  
     294A      5.064603   295A      5.109474   296A      5.118315  
     297A      5.138840   298A      5.158115   299A      5.168874  
     300A      5.194686   301A      5.244229   302A      5.284362  
     303A      5.290169   304A      5.326550   305A      5.363974  
     306A      5.384173   307A      5.393492   308A      5.403263  
     309A      5.415616   310A      5.420588   311A      5.461692  
     312A      5.510200   313A      5.538143   314A      5.586977  
     315A      5.619250   316A      5.655654   317A      5.665832  
     318A      5.701643   319A      5.761372   320A      5.904200  
     321A      5.932923   322A      5.952117   323A      5.968002  
     324A      6.031432   325A      6.136190   326A      6.187718  
     327A      6.237567   328A      6.258736   329A      6.373416  
     330A      6.409360   331A      6.445813   332A      6.469932  
     333A      6.499708   334A      6.607302   335A      6.713789  
     336A      6.833811   337A      6.975264   338A      7.167301  
     339A      7.217671   340A      7.358532   341A      7.521909  
     342A      7.527321   343A      7.843108   344A      7.983086  
     345A      9.573215   346A     12.264595   347A     13.204637  
     348A     13.479558   349A     13.846008   350A     14.134393  
     351A     14.262202   352A     16.560947  

    Final Occupation by Irrep:
              A 
    DOCC [    29 ]

  Energy converged.

  @DF-RHF Final Energy:  -344.69985247008810

   => Energetics <=

    Nuclear Repulsion Energy =            349.0054898679524058
    One-Electron Energy =               -1159.1277535957578948
    Two-Electron Energy =                 465.4224112577172718
    DFT Exchange-Correlation Energy =       0.0000000000000000
    Empirical Dispersion Energy =           0.0000000000000000
    PCM Polarization Energy =               0.0000000000000000
    EFP Energy =                            0.0000000000000000
    Total Energy =                       -344.6998524700882172


  Saving occupied orbitals to File 180.

*** tstop() called on cx1-27-3-3 at Sat Sep 10 15:40:54 2016
Module time:
	user time   =      35.54 seconds =       0.59 minutes
	system time =       0.79 seconds =       0.01 minutes
	total time  =         10 seconds =       0.17 minutes
Total time:
	user time   =      35.54 seconds =       0.59 minutes
	system time =       0.79 seconds =       0.01 minutes
	total time  =         10 seconds =       0.17 minutes


Properties will be evaluated at   0.000000,   0.000000,   0.000000 Bohr

Properties computed using the SCF density matrix

  Nuclear Dipole Moment: (a.u.)
     X:     2.2274      Y:     2.3071      Z:    -0.1198

  Electronic Dipole Moment: (a.u.)
     X:    -1.9387      Y:    -1.8860      Z:     0.0388

  Dipole Moment: (a.u.)
     X:     0.2887      Y:     0.4211      Z:    -0.0810     Total:     0.5169

  Dipole Moment: (Debye)
     X:     0.7337      Y:     1.0703      Z:    -0.2058     Total:     1.3138


*** tstart() called on cx1-27-3-3
*** at Sat Sep 10 15:40:54 2016


         ------------------------------------------------------------
                                   SCF GRAD                          
                          Rob Parrish, Justin Turney,                
                       Andy Simmonett, and Alex Sokolov              
         ------------------------------------------------------------

  ==> Geometry <==

    Molecular point group: c1
    Full point group: C1

    Geometry (in Angstrom), charge = 0, multiplicity = 1:

       Center              X                  Y                   Z               Mass       
    ------------   -----------------  -----------------  -----------------  -----------------
           H         -3.027612772139     0.288076317013    -1.388858381276     1.007825032070
           C         -2.067472772139     0.155103317013    -0.929987381276    12.000000000000
           C         -1.755913772139    -1.029992682987    -0.278594381276    12.000000000000
           C         -1.124762772139     1.155578317013    -0.977134381276    12.000000000000
           H         -2.479028772139    -1.822093682987    -0.231571381276     1.007825032070
           C         -0.526972772139    -1.204589682987     0.310677618724    12.000000000000
           H         -1.347477772139     2.079515317013    -1.476562381276     1.007825032070
           C          0.121394227861     0.995853317013    -0.387227381276    12.000000000000
           H         -0.276285772139    -2.116240682987     0.816363618724     1.007825032070
           C          0.421910227861    -0.188896682987     0.259408618724    12.000000000000
           H          0.833013227861     1.793424317013    -0.441451381276     1.007825032070
           O          1.594500227861    -0.450079682987     0.863283618724    15.994914619560
           C          2.607633227861     0.509983317013     0.863283618724    12.000000000000
           H          2.562363227861     1.136032317013    -0.020866381276     1.007825032070
           H          3.540455227861    -0.031505682987     0.863283618724     1.007825032070
           H          2.562363227861     1.136032317013     1.747433618724     1.007825032070

  Nuclear repulsion =  349.005489867952406

  ==> Basis Set <==

  Basis Set: CC-PVTZ
    Number of shells: 128
    Number of basis function: 352
    Number of Cartesian functions: 400
    Spherical Harmonics?: true
    Max angular momentum: 3

  ==> DFJKGrad: Density-Fitted SCF Gradients <==

    Gradient:                    1
    J tasked:                  Yes
    K tasked:                  Yes
    wK tasked:                  No
    OpenMP threads:              4
    Integrals threads:           4
    Memory (MB):              1430
    Schwarz Cutoff:          0E+00
    Fitting Condition:       1E-12

   => Auxiliary Basis Set <=

  Basis Set: 
    Number of shells: 280
    Number of basis function: 872
    Number of Cartesian functions: 1048
    Spherical Harmonics?: true
    Max angular momentum: 4


  -Total Gradient:
     Atom            X                  Y                   Z
    ------   -----------------  -----------------  -----------------
       1        0.000035596795     0.000001497155    -0.000043595405
       2        0.000274409429     0.000173775208     0.000103349217
       3        0.000024574923    -0.000266223198     0.000216561305
       4       -0.000349611700     0.000429303795     0.000070512258
       5        0.000004875302     0.000007273269     0.000012731501
       6       -0.000119555272    -0.000126602887    -0.000058542454
       7        0.000013002285    -0.000036221817    -0.000057870065
       8        0.001972501008    -0.000719849957     0.000262496038
       9       -0.000025036447    -0.000019417363    -0.000028337913
      10        0.001286115790    -0.000420100176    -0.001289980892
      11        0.003518817000    -0.000324325255    -0.000128095083
      12        0.001400391218    -0.000622735030     0.001390291763
      13       -0.003482162594    -0.000311490134     0.003694577285
      14       -0.005407731986     0.003354555069    -0.003582215858
      15       -0.001627077653    -0.000940614001    -0.000963308067
      16        0.002480891905    -0.000178824680     0.000401426372


*** tstop() called on cx1-27-3-3 at Sat Sep 10 15:41:03 2016
Module time:
	user time   =      32.10 seconds =       0.54 minutes
	system time =       0.60 seconds =       0.01 minutes
	total time  =          9 seconds =       0.15 minutes
Total time:
	user time   =      67.73 seconds =       1.13 minutes
	system time =       1.39 seconds =       0.02 minutes
	total time  =         19 seconds =       0.32 minutes

			-----------------------------------------
			 OPTKING 2.0: for geometry optimizations 
			  - R.A. King,  Bethel University        
			-----------------------------------------

	Internal coordinates to be generated automatically.
	Detected frag 1 with atoms:  1 2 3 4 5 6 7 8 9 10 11 12 13 14 15 16
	---Fragment 1 Bond Connectivity---
	 1 : 2
	 2 : 1 3 4
	 3 : 2 5 6
	 4 : 2 7 8
	 5 : 3
	 6 : 3 9 10
	 7 : 4
	 8 : 4 10 11
	 9 : 6
	 10 : 6 8 12
	 11 : 8
	 12 : 10 13
	 13 : 12 14 15 16
	 14 : 13
	 15 : 13
	 16 : 13

	Assuming in current code that numbering for constraints corresponds to unified fragment.
	Frozen dihedral atom list: 
	    10    12    13    14
	---Fragment 1 Geometry and Gradient---
	 H          -5.7213589758        0.5443853445       -2.6245619780
	 C          -3.9069573265        0.2931027915       -1.7574214577
	 C          -3.3181961423       -1.9464040897       -0.5264670828
	 C          -2.1254936038        2.1837265443       -1.8465163756
	 H          -4.6846854549       -3.4432580493       -0.4376064908
	 C          -0.9958342188       -2.2763446033        0.5870956150
	 H          -2.5463639595        3.9297144383       -2.7902985187
	 C           0.2294018448        1.8818900377       -0.7317537018
	 H          -0.5221044438       -3.9991153221        1.5427036642
	 C           0.7972947833       -0.3569629983        0.4902112459
	 H           1.5741668657        3.3890807992       -0.8342222116
	 O           3.0131687495       -0.8505273388        1.6313696144
	 C           4.9277126557        0.9637288015        1.6313696144
	 H           4.8421647536        2.1467899573       -0.0394317460
	 H           6.6904907664       -0.0595371125        1.6313696144
	 H           4.8421647536        2.1467899573        3.3021709748
	             0.0000355968        0.0000014972       -0.0000435954
	             0.0002744094        0.0001737752        0.0001033492
	             0.0000245749       -0.0002662232        0.0002165613
	            -0.0003496117        0.0004293038        0.0000705123
	             0.0000048753        0.0000072733        0.0000127315
	            -0.0001195553       -0.0001266029       -0.0000585425
	             0.0000130023       -0.0000362218       -0.0000578701
	             0.0019725010       -0.0007198500        0.0002624960
	            -0.0000250364       -0.0000194174       -0.0000283379
	             0.0012861158       -0.0004201002       -0.0012899809
	             0.0035188170       -0.0003243253       -0.0001280951
	             0.0014003912       -0.0006227350        0.0013902918
	            -0.0034821626       -0.0003114901        0.0036945773
	            -0.0054077320        0.0033545551       -0.0035822159
	            -0.0016270777       -0.0009406140       -0.0009633081
	             0.0024808919       -0.0001788247        0.0004014264

	Previous optimization step data not found.  Starting new optimization.

	---Fragment 1 Intrafragment Coordinates---
	 - Coordinate -           - BOHR/RAD -       - ANG/DEG -
	 R(1,2)           =         2.026605	       1.072433
	 R(2,3)           =         2.622457	       1.387744
	 R(2,4)           =         2.599232	       1.375455
	 R(3,5)           =         2.028734	       1.073560
	 R(3,6)           =         2.596584	       1.374053
	 R(4,7)           =         2.028874	       1.073634
	 R(4,8)           =         2.622848	       1.387952
	 R(6,9)           =         2.026215	       1.072227
	 R(6,10)          =         2.628445	       1.390913
	 R(8,10)          =         2.613076	       1.382780
	 R(8,11)          =         2.022503	       1.070262
	 R(10,12)         =         2.540855	       1.344563
	 R(12,13)         =         2.637613	       1.395765
	 R(13,14)         =         2.049031	       1.084301
	 R(13,15)         =         2.038249	       1.078595
	 R(13,16)         =         2.049031	       1.084301
	 B(1,2,3)         =         2.103341	     120.512542
	 B(1,2,4)         =         2.104540	     120.581253
	 B(2,3,5)         =         2.093729	     119.961816
	 B(2,3,6)         =         2.106691	     120.704500
	 B(2,4,7)         =         2.094082	     119.982054
	 B(2,4,8)         =         2.114240	     121.137024
	 B(3,2,4)         =         2.075305	     118.906205
	 B(3,6,9)         =         2.116951	     121.292362
	 B(3,6,10)        =         2.096196	     120.103165
	 B(4,8,10)        =         2.085731	     119.503585
	 B(4,8,11)        =         2.082522	     119.319720
	 B(5,3,6)         =         2.082766	     119.333684
	 B(6,10,8)        =         2.088208	     119.645522
	 B(6,10,12)       =         2.022548	     115.883492
	 B(7,4,8)         =         2.074864	     118.880922
	 B(8,10,12)       =         2.172429	     124.470986
	 B(9,6,10)        =         2.070039	     118.604474
	 B(10,8,11)       =         2.114932	     121.176696
	 B(10,12,13)      =         2.093713	     119.960906
	 B(12,13,14)      =         1.946403	     111.520691
	 B(12,13,15)      =         1.857137	     106.406110
	 B(12,13,16)      =         1.946403	     111.520691
	 B(14,13,15)      =         1.902833	     109.024282
	 B(14,13,16)      =         1.906875	     109.255915
	 B(15,13,16)      =         1.902833	     109.024282
	 D(1,2,3,5)       =         0.000000	       0.000000
	 D(1,2,3,6)       =         3.141593	     180.000000
	 D(1,2,4,7)       =        -0.000000	      -0.000000
	 D(1,2,4,8)       =         3.141593	     180.000000
	 D(2,3,6,9)       =         3.141593	     180.000000
	 D(2,3,6,10)      =         0.000000	       0.000000
	 D(2,4,8,10)      =        -0.000000	      -0.000000
	 D(2,4,8,11)      =         3.141593	     180.000000
	 D(3,2,4,7)       =         3.141593	     180.000000
	 D(3,2,4,8)       =         0.000000	       0.000000
	 D(3,6,10,8)      =        -0.000000	      -0.000000
	 D(3,6,10,12)     =         3.141593	     180.000000
	 D(4,2,3,5)       =         3.141593	     180.000000
	 D(4,2,3,6)       =        -0.000000	      -0.000000
	 D(4,8,10,6)      =         0.000000	       0.000000
	 D(4,8,10,12)     =         3.141593	     180.000000
	 D(5,3,6,9)       =        -0.000000	      -0.000000
	 D(5,3,6,10)      =         3.141593	     180.000000
	 D(6,10,8,11)     =         3.141593	     180.000000
	 D(6,10,12,13)    =         3.141593	     180.000000
	 D(7,4,8,10)      =         3.141593	     180.000000
	 D(7,4,8,11)      =         0.000000	       0.000000
	 D(8,10,6,9)      =         3.141593	     180.000000
	 D(8,10,12,13)    =         0.000000	       0.000000
	 D(9,6,10,12)     =         0.000000	       0.000000
	*D(10,12,13,14)   =        -0.523599	     -30.000032
	 D(10,12,13,15)   =        -2.596615	    -148.775059
	 D(10,12,13,16)   =         1.613555	      92.449914
	 D(11,8,10,12)    =        -0.000000	      -0.000000

	Current energy   :      -344.6998524701

	Generating empirical Hessian (Schlegel '84) for each fragment.
	Taking RFO optimization step.
	Going to follow RFO solution 1.
	Using RFO vector 1.
	Norm of target step-size    0.33007
	Projected energy change by RFO approximation:         0.0020081857

	Back-transformation to cartesian coordinates...
	Could not converge backtransformation.
	Using first guess instead.

	Back-transformation to cartesian coordinates to adjust frozen coordinates...
	Successfully converged to displaced geometry.

	--- Internal Coordinate Step in ANG or DEG, aJ/ANG or AJ/DEG ---
	 ---------------------------------------------------------------------------
	   Coordinate                Previous        Force       Change         New 
	   ----------                --------       ------       ------       ------
	    1 R(1,2)          =      1.072433     0.000107     3.269296     4.341729
	    2 R(2,3)          =      1.387744    -0.009317     3.317599     4.705344
	    3 R(2,4)          =      1.375455    -0.005199     4.035331     5.410785
	    4 R(3,5)          =      1.073560     0.000067     3.139982     4.213542
	    5 R(3,6)          =      1.374053    -0.000042     4.191773     5.565826
	    6 R(4,7)          =      1.073634     0.000057     2.533996     3.607629
	    7 R(4,8)          =      1.387952     0.000727     4.244928     5.632880
	    8 R(6,9)          =      1.072227     0.000022     2.567174     3.639401
	    9 R(6,10)         =      1.390913     0.004887     4.099400     5.490313
	   10 R(8,10)         =      1.382780     0.023288     3.282333     4.665113
	   11 R(8,11)         =      1.070262    -0.017338     3.067555     4.137818
	   12 R(10,12)        =      1.344563     0.046278     4.034143     5.378706
	   13 R(12,13)        =      1.395765     0.037156     4.464309     5.860074
	   14 R(13,14)        =      1.084301    -0.041882     4.064869     5.149169
	   15 R(13,15)        =      1.078595     0.007703     2.012134     3.090729
	   16 R(13,16)        =      1.084301    -0.000993     1.653222     2.737523
	   17 B(1,2,3)        =    120.512542     0.000022    -8.788965   111.723577
	   18 B(1,2,4)        =    120.581253     0.000025     6.028223   126.609477
	   19 B(2,3,5)        =    119.961816    -0.000010     2.997314   122.959130
	   20 B(2,3,6)        =    120.704500     0.000018    -8.893799   111.810701
	   21 B(2,4,7)        =    119.982054    -0.000034     3.301421   123.283475
	   22 B(2,4,8)        =    121.137024     0.000069     6.100871   127.237895
	   23 B(3,2,4)        =    118.906205    -0.000047     2.734611   121.640815
	   24 B(3,6,9)        =    121.292362    -0.000068    -9.019261   112.273101
	   25 B(3,6,10)       =    120.103165     0.000141     5.946549   126.049714
	   26 B(4,8,10)       =    119.503585     0.000042    -8.947937   110.555647
	   27 B(4,8,11)       =    119.319720    -0.000208     6.006314   125.326033
	   28 B(5,3,6)        =    119.333684    -0.000009     5.875564   125.209248
	   29 B(6,10,8)       =    119.645522    -0.000224     3.022622   122.668144
	   30 B(6,10,12)      =    115.883492    -0.000543     3.523407   119.406899
	   31 B(7,4,8)        =    118.880922    -0.000036    -9.421242   109.459680
	   32 B(8,10,12)      =    124.470986     0.000768    -6.559238   117.911748
	   33 B(9,6,10)       =    118.604474    -0.000073     3.055212   121.659686
	   34 B(10,8,11)      =    121.176696     0.000165     2.906182   124.082878
	   35 B(10,12,13)     =    119.960906     0.001560     3.234927   123.195833
	   36 B(12,13,14)     =    111.520691     0.000446    -1.363882   110.156809
	   37 B(12,13,15)     =    106.406110     0.000194    -0.171883   106.234227
	   38 B(12,13,16)     =    111.520691    -0.000363    22.789290   134.309980
	   39 B(14,13,15)     =    109.024282    -0.000111    14.038186   123.062468
	   40 B(14,13,16)     =    109.255915    -0.000157     6.225725   115.481640
	   41 B(15,13,16)     =    109.024282    -0.000005   -60.344504    48.679778
	   42 D(1,2,3,5)      =      0.000000     0.000001     1.654426     1.654426
	   43 D(1,2,3,6)      =    180.000000     0.000002     0.068768   180.068768
	   44 D(1,2,4,7)      =      0.000000     0.000002    -1.816956    -1.816956
	   45 D(1,2,4,8)      =    180.000000    -0.000001    -0.062983   179.937017
	   46 D(2,3,6,9)      =    180.000000     0.000000     0.005969   180.005969
	   47 D(2,3,6,10)     =      0.000000    -0.000004     1.516371     1.516371
	   48 D(2,4,8,10)     =      0.000000     0.000003    -1.550725    -1.550725
	   49 D(2,4,8,11)     =    180.000000     0.000012     0.547524   180.547524
	   50 D(3,2,4,7)      =    180.000000     0.000007     0.200589   180.200589
	   51 D(3,2,4,8)      =      0.000000     0.000003     1.954562     1.954562
	   52 D(3,6,10,8)     =      0.000000     0.000009    -1.419648    -1.419648
	   53 D(3,6,10,12)    =    180.000000     0.000000    -0.069118   179.930882
	   54 D(4,2,3,5)      =    180.000000    -0.000003    -0.088815   179.911185
	   55 D(4,2,3,6)      =      0.000000    -0.000002    -1.674472    -1.674472
	   56 D(4,8,10,6)     =      0.000000    -0.000009     1.228116     1.228116
	   57 D(4,8,10,12)    =    180.000000     0.000001    -0.103285   179.896715
	   58 D(5,3,6,9)      =      0.000000     0.000001    -1.622409    -1.622409
	   59 D(5,3,6,10)     =    180.000000    -0.000003    -0.112007   179.887993
	   60 D(6,10,8,11)    =    180.000000    -0.000018    -0.838826   179.161174
	   61 D(6,10,12,13)   =    180.000000    -0.000058    -3.985923   176.014077
	   62 D(7,4,8,10)     =    180.000000    -0.000001     0.004317   180.004317
	   63 D(7,4,8,11)     =      0.000000     0.000008     2.102566     2.102566
	   64 D(8,10,6,9)     =    180.000000     0.000005     0.222467   180.222467
	   65 D(8,10,12,13)   =      0.000000    -0.000067    -2.699377    -2.699377
	   66 D(9,6,10,12)    =      0.000000    -0.000004     1.572997     1.572997
	   67 *D(10,12,13,14) =    -30.000032     0.000000    -0.000000   -30.000032
	   68 D(10,12,13,15)  =   -148.775059    -0.000053   -16.636175  -165.411235
	   69 D(10,12,13,16)  =     92.449914    -0.000033    54.731995   147.181909
	   70 D(11,8,10,12)   =      0.000000    -0.000008    -2.170226    -2.170226
	 ---------------------------------------------------------------------------
	Successfully symmetrized geometry.
	The BAD_STEP_EXCEPTion handler:
	Step is far too large.

	Dynamic level is 0.
	Consecutive backsteps is 0.
This exception should not be called when neither dynamic nor backsteps are allowed.
