    -----------------------------------------------------------------------
          Psi4: An Open-Source Ab Initio Electronic Structure Package
                              Psi4 (no tag) Driver

                          Git: Rev {detached?}  

    J. M. Turney, A. C. Simmonett, R. M. Parrish, E. G. Hohenstein,
    F. A. Evangelista, J. T. Fermann, B. J. Mintz, L. A. Burns, J. J. Wilke,
    M. L. Abrams, N. J. Russ, M. L. Leininger, C. L. Janssen, E. T. Seidl,
    W. D. Allen, H. F. Schaefer, R. A. King, E. F. Valeev, C. D. Sherrill,
    and T. D. Crawford, WIREs Comput. Mol. Sci. 2, 556-565 (2012)
    (doi: 10.1002/wcms.93)

                         Additional Contributions by
    A. E. DePrince, M. Saitow, U. Bozkaya, A. Yu. Sokolov
    -----------------------------------------------------------------------


    Psi4 started on: Thu Sep  1 22:27:01 2016

    Process ID:  24771
    PSI4DATADIR: /export131/home/mjharvey/miniconda3/share
    Memory level set to 256.000 MB

  ==> Input File <==

--------------------------------------------------------------------------
set {
	reference rhf
	basis 6-31G*
}


set_num_threads( 1 )
memory 2 gb

molecule MOL {
0 1

H	 -2.153054	 -2.250733	 0.000000
O	 -2.462445	 -1.355403	 0.000000
C	 -1.434260	 -0.483044	 0.000000
C	 -1.747402	 0.872187	 0.000000
C	 -0.112826	 -0.887672	 0.000000
H	 -2.781042	 1.162947	 0.000000
C	 -0.737782	 1.812486	 0.000000
H	 0.142965	 -1.932242	 0.000000
C	 0.894804	 0.073633	 0.000000
H	 -0.988012	 2.857452	 0.000000
C	 0.595063	 1.425424	 0.000000
C	 2.274807	 -0.357748	 0.000000
H	 1.382498	 2.154482	 0.000000
N	 3.359999	 -0.694293	 -0.000451

	symmetry c1
}
set optking {
	frozen_dihedral = ("
		5 3 2 1
	")
}

ee = energy('scf')
oeprop('DIPOLE', 'QUADRUPOLE', 'MULLIKEN_CHARGES')
f=open( 'psi4out.xyz', 'w' )
f.write( "14  " )
f.write( str(ee) + "\n" )
f.write( MOL.save_string_xyz() )
f.close()
--------------------------------------------------------------------------

  Memory set to   2.000 GiB by Python script.

*** tstart() called on cx1-3-6-1.cx1.hpc.ic.ac.uk
*** at Thu Sep  1 22:27:01 2016


         ---------------------------------------------------------
                                   SCF
            by Justin Turney, Rob Parrish, and Andy Simmonett
                              RHF Reference
                        1 Threads,   2000 MiB Core
         ---------------------------------------------------------

  ==> Geometry <==

    Molecular point group: c1
    Full point group: C1

    Geometry (in Angstrom), charge = 0, multiplicity = 1:

       Center              X                  Y                   Z               Mass       
    ------------   -----------------  -----------------  -----------------  -----------------
           H         -2.153234752320    -2.251311754021     0.000053053927     1.007825032070
           O         -2.462625752320    -1.355981754021     0.000053053927    15.994914619560
           C         -1.434440752320    -0.483622754021     0.000053053927    12.000000000000
           C         -1.747582752320     0.871608245979     0.000053053927    12.000000000000
           C         -0.113006752320    -0.888250754021     0.000053053927    12.000000000000
           H         -2.781222752320     1.162368245979     0.000053053927     1.007825032070
           C         -0.737962752320     1.811907245979     0.000053053927    12.000000000000
           H          0.142784247680    -1.932820754021     0.000053053927     1.007825032070
           C          0.894623247680     0.073054245979     0.000053053927    12.000000000000
           H         -0.988192752320     2.856873245979     0.000053053927     1.007825032070
           C          0.594882247680     1.424845245979     0.000053053927    12.000000000000
           C          2.274626247680    -0.358326754021     0.000053053927    12.000000000000
           H          1.382317247680     2.153903245979     0.000053053927     1.007825032070
           N          3.359818247680    -0.694871754021    -0.000397946073    14.003074004780

  Running in c1 symmetry.

  Rotational constants: A =      0.11542  B =      0.04068  C =      0.03008 [cm^-1]
  Rotational constants: A =   3460.22563  B =   1219.40871  C =    901.65791 [MHz]
  Nuclear repulsion =  379.403373312628105

  Charge       = 0
  Multiplicity = 1
  Electrons    = 62
  Nalpha       = 31
  Nbeta        = 31

  ==> Algorithm <==

  SCF Algorithm Type is DF.
  DIIS enabled.
  MOM disabled.
  Fractional occupation disabled.
  Guess Type is CORE.
  Energy threshold   = 1.00e-06
  Density threshold  = 1.00e-06
  Integral threshold = 0.00e+00

  ==> Primary Basis <==

  Basis Set: 6-31G*
    Number of shells: 64
    Number of basis function: 145
    Number of Cartesian functions: 145
    Spherical Harmonics?: false
    Max angular momentum: 2

  ==> Pre-Iterations <==

   -------------------------------------------------------
    Irrep   Nso     Nmo     Nalpha   Nbeta   Ndocc  Nsocc
   -------------------------------------------------------
     A        145     145       0       0       0       0
   -------------------------------------------------------
    Total     145     145      31      31      31       0
   -------------------------------------------------------

 OEINTS: Overlap, kinetic, potential, dipole, and quadrupole integrals
         stored in file 35.

  ==> Integral Setup <==

  ==> DFJK: Density-Fitted J/K Matrices <==

    J tasked:                  Yes
    K tasked:                  Yes
    wK tasked:                  No
    OpenMP threads:              1
    Integrals threads:           1
    Memory (MB):              1430
    Algorithm:                Core
    Integral Cache:           NONE
    Schwarz Cutoff:          1E-12
    Fitting Condition:       1E-12

   => Auxiliary Basis Set <=

  Basis Set: 
    Number of shells: 261
    Number of basis function: 854
    Number of Cartesian functions: 854
    Spherical Harmonics?: false
    Max angular momentum: 3

  Minimum eigenvalue in the overlap matrix is 4.1934374719E-04.
  Using Symmetric Orthogonalization.
  SCF Guess: Core (One-Electron) Hamiltonian.

  ==> Iterations <==

                           Total Energy        Delta E     RMS |[F,P]|

   @DF-RHF iter   1:  -310.10079266853575   -3.10101e+02   6.48194e-02 
   @DF-RHF iter   2:  -148.80981834411216    1.61291e+02   7.75557e-02 DIIS
   @DF-RHF iter   3:  -317.89535618054038   -1.69086e+02   5.01610e-02 DIIS
   @DF-RHF iter   4:  -321.26833677431046   -3.37298e+00   5.68555e-02 DIIS
   @DF-RHF iter   5:  -393.04039659689261   -7.17721e+01   1.59410e-02 DIIS
   @DF-RHF iter   6:  -389.35244027068973    3.68796e+00   1.97334e-02 DIIS
   @DF-RHF iter   7:  -397.04485311184646   -7.69241e+00   5.03493e-03 DIIS
   @DF-RHF iter   8:  -397.22712461972174   -1.82272e-01   1.97146e-03 DIIS
   @DF-RHF iter   9:  -397.27321365934995   -4.60890e-02   1.11198e-03 DIIS
   @DF-RHF iter  10:  -397.28939785862929   -1.61842e-02   3.49863e-04 DIIS
   @DF-RHF iter  11:  -397.29167611330024   -2.27825e-03   1.11970e-04 DIIS
   @DF-RHF iter  12:  -397.29189702502708   -2.20912e-04   4.41078e-05 DIIS
   @DF-RHF iter  13:  -397.29194100940367   -4.39844e-05   2.10327e-05 DIIS
   @DF-RHF iter  14:  -397.29195448476048   -1.34754e-05   1.13358e-05 DIIS
   @DF-RHF iter  15:  -397.29196028152444   -5.79676e-06   5.84412e-06 DIIS
   @DF-RHF iter  16:  -397.29196196105977   -1.67954e-06   2.12376e-06 DIIS
   @DF-RHF iter  17:  -397.29196219169887   -2.30639e-07   7.79226e-07 DIIS

  ==> Post-Iterations <==

    Orbital Energies (a.u.)
    -----------------------

    Doubly Occupied:                                                      

       1A    -20.613357     2A    -15.576094     3A    -11.326474  
       4A    -11.295200     5A    -11.277353     6A    -11.263921  
       7A    -11.262494     8A    -11.259241     9A    -11.253928  
      10A     -1.433723    11A     -1.233857    12A     -1.182278  
      13A     -1.063262    14A     -1.039158    15A     -0.896233  
      16A     -0.867785    17A     -0.778133    18A     -0.726542  
      19A     -0.700216    20A     -0.664105    21A     -0.627034  
      22A     -0.613998    23A     -0.592983    24A     -0.562275  
      25A     -0.550727    26A     -0.538997    27A     -0.527033  
      28A     -0.473334    29A     -0.473314    30A     -0.363601  
      31A     -0.336669  

    Virtual:                                                              

      32A      0.086592    33A      0.132878    34A      0.203895  
      35A      0.217570    36A      0.225023    37A      0.274766  
      38A      0.281003    39A      0.295106    40A      0.322613  
      41A      0.371247    42A      0.377865    43A      0.445971  
      44A      0.450717    45A      0.472800    46A      0.479486  
      47A      0.560942    48A      0.594070    49A      0.647582  
      50A      0.699695    51A      0.713422    52A      0.717519  
      53A      0.759087    54A      0.781496    55A      0.793385  
      56A      0.801431    57A      0.807165    58A      0.820999  
      59A      0.855048    60A      0.858648    61A      0.870000  
      62A      0.887849    63A      0.888893    64A      0.936986  
      65A      0.947465    66A      0.991757    67A      0.996115  
      68A      1.062766    69A      1.088089    70A      1.100828  
      71A      1.102484    72A      1.114600    73A      1.137644  
      74A      1.143798    75A      1.170867    76A      1.194290  
      77A      1.227025    78A      1.248746    79A      1.257388  
      80A      1.309246    81A      1.372687    82A      1.397627  
      83A      1.426060    84A      1.461513    85A      1.465591  
      86A      1.479840    87A      1.585787    88A      1.586726  
      89A      1.619594    90A      1.638805    91A      1.686627  
      92A      1.699930    93A      1.731045    94A      1.736017  
      95A      1.798247    96A      1.810325    97A      1.843849  
      98A      1.996704    99A      2.003730   100A      2.055024  
     101A      2.081689   102A      2.105964   103A      2.108851  
     104A      2.154066   105A      2.232409   106A      2.244081  
     107A      2.262525   108A      2.284023   109A      2.287240  
     110A      2.293294   111A      2.329425   112A      2.390848  
     113A      2.436289   114A      2.441022   115A      2.449919  
     116A      2.538314   117A      2.573328   118A      2.617035  
     119A      2.625925   120A      2.755491   121A      2.823197  
     122A      2.843290   123A      2.854954   124A      2.934410  
     125A      2.993939   126A      3.001964   127A      3.024301  
     128A      3.115181   129A      3.138335   130A      3.167640  
     131A      3.209035   132A      3.282493   133A      3.373105  
     134A      3.561730   135A      3.678180   136A      3.869898  
     137A      4.351049   138A      4.464534   139A      4.509479  
     140A      4.555948   141A      4.618920   142A      4.718988  
     143A      4.828647   144A      4.973007   145A      5.257481  

    Final Occupation by Irrep:
              A 
    DOCC [    31 ]

  Energy converged.

  @DF-RHF Final Energy:  -397.29196219169887

   => Energetics <=

    Nuclear Repulsion Energy =            379.4033733126281049
    One-Electron Energy =               -1290.6440377290750803
    Two-Electron Energy =                 513.9487022247494679
    DFT Exchange-Correlation Energy =       0.0000000000000000
    Empirical Dispersion Energy =           0.0000000000000000
    PCM Polarization Energy =               0.0000000000000000
    EFP Energy =                            0.0000000000000000
    Total Energy =                       -397.2919621916975075

    Alert: EFP and PCM quantities not currently incorporated into SCF psivars.

Properties will be evaluated at   0.000000,   0.000000,   0.000000 Bohr
  ==> Properties <==


Properties computed using the SCF density matrix

  Nuclear Dipole Moment: (a.u.)
     X:    -4.1442      Y:     1.8601      Z:     0.0003

  Electronic Dipole Moment: (a.u.)
     X:     2.7712      Y:    -1.6714      Z:     0.0001

  Dipole Moment: (a.u.)
     X:    -1.3730      Y:     0.1887      Z:     0.0003     Total:     1.3859

  Dipole Moment: (Debye)
     X:    -3.4898      Y:     0.4796      Z:     0.0008     Total:     3.5226


  Saving occupied orbitals to File 180.

*** tstop() called on cx1-3-6-1.cx1.hpc.ic.ac.uk at Thu Sep  1 22:27:14 2016
Module time:
	user time   =      12.39 seconds =       0.21 minutes
	system time =       0.05 seconds =       0.00 minutes
	total time  =         13 seconds =       0.22 minutes
Total time:
	user time   =      12.39 seconds =       0.21 minutes
	system time =       0.05 seconds =       0.00 minutes
	total time  =         13 seconds =       0.22 minutes


Properties will be evaluated at   0.000000,   0.000000,   0.000000 Bohr

Properties computed using the  density matrix

  Nuclear Dipole Moment: (a.u.)
     X:    -4.1442      Y:     1.8601      Z:     0.0003

  Electronic Dipole Moment: (a.u.)
     X:     2.7712      Y:    -1.6714      Z:     0.0001

  Dipole Moment: (a.u.)
     X:    -1.3730      Y:     0.1887      Z:     0.0003     Total:     1.3859

  Dipole Moment: (Debye)
     X:    -3.4898      Y:     0.4796      Z:     0.0008     Total:     3.5226

  Quadrupole Moment: (Debye Ang)
    XX:   -68.8167     YY:   -39.9939     ZZ:   -54.1196
    XY:     4.4826     XZ:     0.0027     YZ:    -0.0006

  Traceless Quadrupole Moment: (Debye Ang)
    XX:   -14.5066     YY:    14.3162     ZZ:     0.1905
    XY:     4.4826     XZ:     0.0027     YZ:    -0.0006

  Mulliken Charges: (a.u.)
   Center  Symbol    Alpha    Beta     Spin     Total
       1     H     0.26830  0.26830  0.00000  0.46339
       2     O     4.37596  4.37596  0.00000 -0.75191
       3     C     2.79152  2.79152  0.00000  0.41696
       4     C     3.11408  3.11408  0.00000 -0.22817
       5     C     3.13451  3.13451  0.00000 -0.26903
       6     H     0.38292  0.38292  0.00000  0.23416
       7     C     3.09575  3.09575  0.00000 -0.19151
       8     H     0.38536  0.38536  0.00000  0.22928
       9     C     2.99112  2.99112  0.00000  0.01776
      10     H     0.38856  0.38856  0.00000  0.22287
      11     C     3.09886  3.09886  0.00000 -0.19773
      12     C     2.86663  2.86663  0.00000  0.26674
      13     H     0.38124  0.38124  0.00000  0.23752
      14     N     3.72517  3.72517  0.00000 -0.45034

   Total alpha = 31.00000, Total beta = 31.00000, Total charge =  0.00000


*** PSI4 exiting successfully. Buy a developer a beer!
