    -----------------------------------------------------------------------
          Psi4: An Open-Source Ab Initio Electronic Structure Package
                              Psi4 1.0.54 Driver

                          Git: Rev {master} 8d4cec3 dirty

    J. M. Turney, A. C. Simmonett, R. M. Parrish, E. G. Hohenstein,
    F. A. Evangelista, J. T. Fermann, B. J. Mintz, L. A. Burns, J. J. Wilke,
    M. L. Abrams, N. J. Russ, M. L. Leininger, C. L. Janssen, E. T. Seidl,
    W. D. Allen, H. F. Schaefer, R. A. King, E. F. Valeev, C. D. Sherrill,
    and T. D. Crawford, WIREs Comput. Mol. Sci. 2, 556-565 (2012)
    (doi: 10.1002/wcms.93)

                         Additional Contributions by
    A. E. DePrince, U. Bozkaya, A. Yu. Sokolov, D. G. A. Smith, R. Di Remigio,
    R. M. Richard, J. F. Gonthier, H. R. McAlexander, M. Saitow, and
    B. P. Pritchard
    -----------------------------------------------------------------------


    Psi4 started on: Sun Sep 11 04:08:14 2016

    Process ID:  26911
    PSI4DATADIR: /export131/home/mjharvey/miniconda3/share/psi4
    Memory level set to 256.000 MB

  ==> Input File <==

--------------------------------------------------------------------------
set {
	reference rhf
	basis cc-pvtz
}


set_num_threads( 4 )
memory 2 gb

molecule MOL {
0 1

O	 2.868453	 1.353349	 -0.000734
C	 2.841259	 0.166180	 -0.000295
C	 1.542794	 -0.614730	 -0.000853
C	 4.113372	 -0.651103	 0.000743
C	 0.288398	 0.247429	 0.000314
H	 1.557171	 -1.273139	 -0.866508
H	 1.557484	 -1.274998	 0.863344
C	 -0.969185	 -0.547051	 0.341487
H	 0.176963	 0.714197	 -0.971707
H	 0.415193	 1.058520	 0.708260
C	 -2.234378	 0.305943	 0.345781
H	 -1.088602	 -1.360190	 -0.371128
H	 -0.849458	 -1.013944	 1.316647
C	 -3.496545	 -0.481514	 0.685752
H	 -2.355049	 0.772878	 -0.628654
H	 -2.116290	 1.118580	 1.058384
C	 -4.756606	 0.377574	 0.687985
H	 -3.616034	 -1.293304	 -0.026750
H	 -3.377330	 -0.947555	 1.660182
H	 -4.922964	 0.830552	 -0.283703
H	 -5.633350	 -0.211092	 0.932551
H	 -4.682610	 1.178680	 1.415858
H	 4.145311	 -1.294584	 -0.871587
H	 4.970080	 0.004978	 -0.000091
H	 4.145223	 -1.291980	 0.874988

	symmetry c1
}
set optking {
	frozen_dihedral = ("
		9 5 3 6
	")
}

ee,wfn = optimize('scf', return_wfn=True)
oeprop( wfn, 'DIPOLE', 'QUADRUPOLE', 'MULLIKEN_CHARGES')
f=open( 'psi4out.xyz', 'w' )
f.write( "25  " )
f.write( str(ee) + "\n" )
f.write( MOL.save_string_xyz() )
f.close()
--------------------------------------------------------------------------

  Memory set to   2.000 GiB by Python script.
gradient() will perform analytic gradient computation.

*** tstart() called on cx1-27-3-4
*** at Sun Sep 11 04:08:15 2016


         ---------------------------------------------------------
                                   SCF
            by Justin Turney, Rob Parrish, and Andy Simmonett
                              RHF Reference
                        4 Threads,   2000 MiB Core
         ---------------------------------------------------------

  ==> Geometry <==

    Molecular point group: c1
    Full point group: C1

    Geometry (in Angstrom), charge = 0, multiplicity = 1:

       Center              X                  Y                   Z               Mass       
    ------------   -----------------  -----------------  -----------------  -----------------
           O          2.852340343931     1.330218153004    -0.231509259445    15.994914619560
           C          2.825146343931     0.143049153004    -0.231070259445    12.000000000000
           C          1.526681343931    -0.637860846996    -0.231628259445    12.000000000000
           C          4.097259343931    -0.674233846996    -0.230032259445    12.000000000000
           C          0.272285343931     0.224298153004    -0.230461259445    12.000000000000
           H          1.541058343931    -1.296269846996    -1.097283259445     1.007825032070
           H          1.541371343931    -1.298128846996     0.632568740555     1.007825032070
           C         -0.985297656069    -0.570181846996     0.110711740555    12.000000000000
           H          0.160850343931     0.691066153004    -1.202482259445     1.007825032070
           H          0.399080343931     1.035389153004     0.477484740555     1.007825032070
           C         -2.250490656069     0.282812153004     0.115005740555    12.000000000000
           H         -1.104714656069    -1.383320846996    -0.601903259445     1.007825032070
           H         -0.865570656069    -1.037074846996     1.085871740555     1.007825032070
           C         -3.512657656069    -0.504644846996     0.454976740555    12.000000000000
           H         -2.371161656069     0.749747153004    -0.859429259445     1.007825032070
           H         -2.132402656069     1.095449153004     0.827608740555     1.007825032070
           C         -4.772718656069     0.354443153004     0.457209740555    12.000000000000
           H         -3.632146656069    -1.316434846996    -0.257525259445     1.007825032070
           H         -3.393442656069    -0.970685846996     1.429406740555     1.007825032070
           H         -4.939076656069     0.807421153004    -0.514478259445     1.007825032070
           H         -5.649462656069    -0.234222846996     0.701775740555     1.007825032070
           H         -4.698722656069     1.155549153004     1.185082740555     1.007825032070
           H          4.129198343931    -1.317714846996    -1.102362259445     1.007825032070
           H          4.953967343931    -0.018152846996    -0.230866259445     1.007825032070
           H          4.129110343931    -1.315110846996     0.644212740555     1.007825032070

  Running in c1 symmetry.

  Rotational constants: A =      0.21320  B =      0.01464  C =      0.01398 [cm^-1]
  Rotational constants: A =   6391.59335  B =    439.00366  C =    419.02209 [MHz]
  Nuclear repulsion =  439.322029631690953

  Charge       = 0
  Multiplicity = 1
  Electrons    = 72
  Nalpha       = 36
  Nbeta        = 36

  ==> Algorithm <==

  SCF Algorithm Type is DF.
  DIIS enabled.
  MOM disabled.
  Fractional occupation disabled.
  Guess Type is SAD.
  Energy threshold   = 1.00e-08
  Density threshold  = 1.00e-08
  Integral threshold = 0.00e+00

  ==> Primary Basis <==

  Basis Set: CC-PVTZ
    Number of shells: 186
    Number of basis function: 494
    Number of Cartesian functions: 555
    Spherical Harmonics?: true
    Max angular momentum: 3

  ==> Pre-Iterations <==

   -------------------------------------------------------
    Irrep   Nso     Nmo     Nalpha   Nbeta   Ndocc  Nsocc
   -------------------------------------------------------
     A        494     494       0       0       0       0
   -------------------------------------------------------
    Total     494     494      36      36      36       0
   -------------------------------------------------------

  ==> Integral Setup <==

  ==> DFJK: Density-Fitted J/K Matrices <==

    J tasked:                  Yes
    K tasked:                  Yes
    wK tasked:                  No
    OpenMP threads:              4
    Integrals threads:           4
    Memory (MB):              1430
    Algorithm:                Core
    Integral Cache:           NONE
    Schwarz Cutoff:          1E-12
    Fitting Condition:       1E-12

   => Auxiliary Basis Set <=

  Basis Set: 
    Number of shells: 385
    Number of basis function: 1191
    Number of Cartesian functions: 1424
    Spherical Harmonics?: true
    Max angular momentum: 4

  Minimum eigenvalue in the overlap matrix is 2.1947905627E-04.
  Using Symmetric Orthogonalization.
  SCF Guess: Superposition of Atomic Densities via on-the-fly atomic UHF.

  ==> Iterations <==

                           Total Energy        Delta E     RMS |[F,P]|

   @DF-RHF iter   0:  -392.05847300877076   -3.92058e+02   1.22474e-02 
   @DF-RHF iter   1:  -386.98802455243538    5.07045e+00   1.27561e-03 
   @DF-RHF iter   2:  -387.20090645660309   -2.12882e-01   8.31867e-04 DIIS
   @DF-RHF iter   3:  -387.26251358143065   -6.16071e-02   1.99262e-04 DIIS
   @DF-RHF iter   4:  -387.27206454662462   -9.55097e-03   8.90101e-05 DIIS
   @DF-RHF iter   5:  -387.27361243573000   -1.54789e-03   3.21857e-05 DIIS
   @DF-RHF iter   6:  -387.27399675704226   -3.84321e-04   9.70287e-06 DIIS
   @DF-RHF iter   7:  -387.27402516020732   -2.84032e-05   2.45943e-06 DIIS
   @DF-RHF iter   8:  -387.27402690533370   -1.74513e-06   6.29948e-07 DIIS
   @DF-RHF iter   9:  -387.27402700815094   -1.02817e-07   1.38262e-07 DIIS
   @DF-RHF iter  10:  -387.27402701302992   -4.87898e-09   3.87505e-08 DIIS
   @DF-RHF iter  11:  -387.27402701341612   -3.86194e-10   1.37706e-08 DIIS
   @DF-RHF iter  12:  -387.27402701348740   -7.12816e-11   6.36274e-09 DIIS

  ==> Post-Iterations <==

    Orbital Energies (a.u.)
    -----------------------

    Doubly Occupied:                                                      

       1A    -20.538982     2A    -11.320637     3A    -11.229992  
       4A    -11.226670     5A    -11.214985     6A    -11.214177  
       7A    -11.213423     8A    -11.211333     9A    -11.206360  
      10A     -1.399070    11A     -1.095070    12A     -1.057603  
      13A     -1.015589    14A     -0.970142    15A     -0.891435  
      16A     -0.814743    17A     -0.791353    18A     -0.731035  
      19A     -0.663821    20A     -0.653377    21A     -0.633273  
      22A     -0.626827    23A     -0.596705    24A     -0.585202  
      25A     -0.568366    26A     -0.559791    27A     -0.540820  
      28A     -0.527133    29A     -0.513268    30A     -0.493394  
      31A     -0.488559    32A     -0.473291    33A     -0.464054  
      34A     -0.462568    35A     -0.452295    36A     -0.401720  

    Virtual:                                                              

      37A      0.130172    38A      0.143802    39A      0.150743  
      40A      0.161969    41A      0.169022    42A      0.174069  
      43A      0.191114    44A      0.203196    45A      0.213367  
      46A      0.219358    47A      0.225849    48A      0.228590  
      49A      0.244386    50A      0.249525    51A      0.251037  
      52A      0.283058    53A      0.292852    54A      0.300631  
      55A      0.312163    56A      0.320394    57A      0.337704  
      58A      0.351560    59A      0.366955    60A      0.377129  
      61A      0.387385    62A      0.401815    63A      0.403718  
      64A      0.428685    65A      0.443229    66A      0.453083  
      67A      0.467273    68A      0.475400    69A      0.498354  
      70A      0.502857    71A      0.514341    72A      0.521619  
      73A      0.525559    74A      0.539185    75A      0.557424  
      76A      0.563830    77A      0.578939    78A      0.596917  
      79A      0.604653    80A      0.610281    81A      0.616569  
      82A      0.625977    83A      0.634630    84A      0.643253  
      85A      0.646129    86A      0.650820    87A      0.655877  
      88A      0.659607    89A      0.667590    90A      0.674292  
      91A      0.675830    92A      0.681468    93A      0.686393  
      94A      0.693833    95A      0.706118    96A      0.717218  
      97A      0.727252    98A      0.739506    99A      0.741208  
     100A      0.758641   101A      0.781984   102A      0.796602  
     103A      0.808305   104A      0.825584   105A      0.856535  
     106A      0.867999   107A      0.875442   108A      0.887715  
     109A      0.888618   110A      0.912301   111A      0.929179  
     112A      0.937174   113A      0.941827   114A      0.964158  
     115A      0.973497   116A      0.993288   117A      0.999382  
     118A      1.005830   119A      1.012252   120A      1.031758  
     121A      1.048857   122A      1.058245   123A      1.070750  
     124A      1.096459   125A      1.098154   126A      1.133441  
     127A      1.141522   128A      1.156447   129A      1.159132  
     130A      1.167497   131A      1.189885   132A      1.202211  
     133A      1.218670   134A      1.232558   135A      1.241511  
     136A      1.245442   137A      1.263318   138A      1.275732  
     139A      1.279107   140A      1.283732   141A      1.288313  
     142A      1.302070   143A      1.306395   144A      1.312914  
     145A      1.339039   146A      1.339890   147A      1.348544  
     148A      1.362856   149A      1.372477   150A      1.377614  
     151A      1.390867   152A      1.408071   153A      1.408752  
     154A      1.416467   155A      1.425301   156A      1.431432  
     157A      1.454129   158A      1.462896   159A      1.465931  
     160A      1.473475   161A      1.493319   162A      1.498389  
     163A      1.500757   164A      1.511351   165A      1.522796  
     166A      1.540939   167A      1.542098   168A      1.556665  
     169A      1.566743   170A      1.571672   171A      1.580589  
     172A      1.590339   173A      1.606918   174A      1.617977  
     175A      1.619794   176A      1.629056   177A      1.635502  
     178A      1.642895   179A      1.653894   180A      1.657752  
     181A      1.698784   182A      1.719065   183A      1.728626  
     184A      1.748949   185A      1.759536   186A      1.774114  
     187A      1.782034   188A      1.788010   189A      1.792392  
     190A      1.825086   191A      1.833335   192A      1.841843  
     193A      1.845940   194A      1.858948   195A      1.892934  
     196A      1.902024   197A      1.925069   198A      1.964670  
     199A      2.009952   200A      2.033188   201A      2.092151  
     202A      2.125085   203A      2.221188   204A      2.244969  
     205A      2.433479   206A      2.467982   207A      2.478652  
     208A      2.505408   209A      2.556003   210A      2.576431  
     211A      2.596947   212A      2.615956   213A      2.644930  
     214A      2.664444   215A      2.676388   216A      2.694340  
     217A      2.704022   218A      2.716878   219A      2.735868  
     220A      2.756052   221A      2.761530   222A      2.777480  
     223A      2.787989   224A      2.797403   225A      2.810987  
     226A      2.825780   227A      2.834508   228A      2.860147  
     229A      2.874037   230A      2.882253   231A      2.903311  
     232A      2.914684   233A      2.916567   234A      2.923721  
     235A      2.941209   236A      2.959958   237A      2.961578  
     238A      2.974846   239A      2.988243   240A      2.999750  
     241A      3.026856   242A      3.036813   243A      3.043891  
     244A      3.058604   245A      3.076692   246A      3.101024  
     247A      3.109566   248A      3.114125   249A      3.120166  
     250A      3.138774   251A      3.149990   252A      3.159253  
     253A      3.182669   254A      3.184637   255A      3.193174  
     256A      3.214245   257A      3.232719   258A      3.247543  
     259A      3.265492   260A      3.272666   261A      3.280980  
     262A      3.299871   263A      3.316825   264A      3.327558  
     265A      3.329187   266A      3.340106   267A      3.348178  
     268A      3.358747   269A      3.368666   270A      3.374164  
     271A      3.390150   272A      3.394621   273A      3.402670  
     274A      3.407520   275A      3.411489   276A      3.427346  
     277A      3.429143   278A      3.433078   279A      3.437613  
     280A      3.440680   281A      3.446523   282A      3.456817  
     283A      3.459522   284A      3.473602   285A      3.485083  
     286A      3.501001   287A      3.521315   288A      3.525855  
     289A      3.531641   290A      3.548549   291A      3.558266  
     292A      3.578675   293A      3.579727   294A      3.584371  
     295A      3.586284   296A      3.602375   297A      3.615000  
     298A      3.628738   299A      3.635078   300A      3.647847  
     301A      3.659069   302A      3.700951   303A      3.707262  
     304A      3.710277   305A      3.738703   306A      3.747515  
     307A      3.765568   308A      3.777433   309A      3.790949  
     310A      3.801359   311A      3.824811   312A      3.830381  
     313A      3.843370   314A      3.848602   315A      3.868476  
     316A      3.879779   317A      3.888741   318A      3.891034  
     319A      3.913903   320A      3.915921   321A      3.930953  
     322A      3.941102   323A      3.942533   324A      3.975587  
     325A      3.996949   326A      4.002178   327A      4.010799  
     328A      4.021465   329A      4.056221   330A      4.065347  
     331A      4.076052   332A      4.083424   333A      4.095184  
     334A      4.103958   335A      4.111853   336A      4.121665  
     337A      4.137491   338A      4.143092   339A      4.148064  
     340A      4.163050   341A      4.172818   342A      4.184960  
     343A      4.195497   344A      4.203907   345A      4.205735  
     346A      4.209778   347A      4.233285   348A      4.253084  
     349A      4.257737   350A      4.263415   351A      4.275323  
     352A      4.282749   353A      4.301470   354A      4.309133  
     355A      4.318355   356A      4.337005   357A      4.350781  
     358A      4.360946   359A      4.367053   360A      4.376657  
     361A      4.377447   362A      4.395337   363A      4.405697  
     364A      4.413424   365A      4.418091   366A      4.422694  
     367A      4.440294   368A      4.444191   369A      4.453256  
     370A      4.462902   371A      4.488161   372A      4.493430  
     373A      4.509161   374A      4.534350   375A      4.554934  
     376A      4.560399   377A      4.565310   378A      4.575499  
     379A      4.594820   380A      4.606006   381A      4.615815  
     382A      4.626996   383A      4.630204   384A      4.658791  
     385A      4.674933   386A      4.677041   387A      4.690709  
     388A      4.695794   389A      4.703883   390A      4.710748  
     391A      4.718274   392A      4.730496   393A      4.770220  
     394A      4.775175   395A      4.778253   396A      4.807947  
     397A      4.848505   398A      4.852021   399A      4.867152  
     400A      4.905938   401A      4.952051   402A      4.984532  
     403A      4.995306   404A      5.003864   405A      5.022704  
     406A      5.052410   407A      5.067107   408A      5.101654  
     409A      5.112942   410A      5.131221   411A      5.155561  
     412A      5.173133   413A      5.185654   414A      5.207356  
     415A      5.223167   416A      5.232361   417A      5.245796  
     418A      5.246949   419A      5.260351   420A      5.270741  
     421A      5.277493   422A      5.320251   423A      5.334158  
     424A      5.347712   425A      5.352331   426A      5.363013  
     427A      5.417808   428A      5.424583   429A      5.429256  
     430A      5.441366   431A      5.462095   432A      5.482700  
     433A      5.501873   434A      5.511132   435A      5.521712  
     436A      5.544545   437A      5.569840   438A      5.573108  
     439A      5.605516   440A      5.629171   441A      5.636079  
     442A      5.646809   443A      5.654913   444A      5.660463  
     445A      5.711760   446A      5.741365   447A      5.744511  
     448A      5.753229   449A      5.763418   450A      5.788525  
     451A      5.804810   452A      5.825649   453A      5.855551  
     454A      5.867541   455A      5.877068   456A      5.897512  
     457A      5.921357   458A      5.928847   459A      5.939047  
     460A      5.950581   461A      5.970093   462A      5.984092  
     463A      6.020548   464A      6.054514   465A      6.101771  
     466A      6.108119   467A      6.123890   468A      6.234179  
     469A      6.244921   470A      6.258704   471A      6.286831  
     472A      6.333263   473A      6.335961   474A      6.397735  
     475A      6.419901   476A      6.449097   477A      6.529886  
     478A      6.826747   479A      6.843303   480A      6.954463  
     481A      7.034065   482A      7.242529   483A      7.400705  
     484A      7.601491   485A      7.606375   486A      9.611755  
     487A     13.231836   488A     13.432103   489A     13.496768  
     490A     13.829640   491A     14.064676   492A     14.237143  
     493A     14.269344   494A     14.657244  

    Final Occupation by Irrep:
              A 
    DOCC [    36 ]

  Energy converged.

  @DF-RHF Final Energy:  -387.27402701348740

   => Energetics <=

    Nuclear Repulsion Energy =            439.3220296316909526
    One-Electron Energy =               -1395.4979835742467458
    Two-Electron Energy =                 568.9019269290685088
    DFT Exchange-Correlation Energy =       0.0000000000000000
    Empirical Dispersion Energy =           0.0000000000000000
    PCM Polarization Energy =               0.0000000000000000
    EFP Energy =                            0.0000000000000000
    Total Energy =                       -387.2740270134872844


  Saving occupied orbitals to File 180.

*** tstop() called on cx1-27-3-4 at Sun Sep 11 04:08:39 2016
Module time:
	user time   =      88.36 seconds =       1.47 minutes
	system time =       1.58 seconds =       0.03 minutes
	total time  =         24 seconds =       0.40 minutes
Total time:
	user time   =      88.36 seconds =       1.47 minutes
	system time =       1.58 seconds =       0.03 minutes
	total time  =         24 seconds =       0.40 minutes


Properties will be evaluated at   0.000000,   0.000000,   0.000000 Bohr

Properties computed using the SCF density matrix

  Nuclear Dipole Moment: (a.u.)
     X:   -11.1722      Y:    -4.3552      Z:     1.0467

  Electronic Dipole Moment: (a.u.)
     X:    11.0880      Y:     3.1933      Z:    -1.0421

  Dipole Moment: (a.u.)
     X:    -0.0842      Y:    -1.1619      Z:     0.0046     Total:     1.1650

  Dipole Moment: (Debye)
     X:    -0.2140      Y:    -2.9532      Z:     0.0117     Total:     2.9610


*** tstart() called on cx1-27-3-4
*** at Sun Sep 11 04:08:39 2016


         ------------------------------------------------------------
                                   SCF GRAD                          
                          Rob Parrish, Justin Turney,                
                       Andy Simmonett, and Alex Sokolov              
         ------------------------------------------------------------

  ==> Geometry <==

    Molecular point group: c1
    Full point group: C1

    Geometry (in Angstrom), charge = 0, multiplicity = 1:

       Center              X                  Y                   Z               Mass       
    ------------   -----------------  -----------------  -----------------  -----------------
           O          2.852340343931     1.330218153004    -0.231509259445    15.994914619560
           C          2.825146343931     0.143049153004    -0.231070259445    12.000000000000
           C          1.526681343931    -0.637860846996    -0.231628259445    12.000000000000
           C          4.097259343931    -0.674233846996    -0.230032259445    12.000000000000
           C          0.272285343931     0.224298153004    -0.230461259445    12.000000000000
           H          1.541058343931    -1.296269846996    -1.097283259445     1.007825032070
           H          1.541371343931    -1.298128846996     0.632568740555     1.007825032070
           C         -0.985297656069    -0.570181846996     0.110711740555    12.000000000000
           H          0.160850343931     0.691066153004    -1.202482259445     1.007825032070
           H          0.399080343931     1.035389153004     0.477484740555     1.007825032070
           C         -2.250490656069     0.282812153004     0.115005740555    12.000000000000
           H         -1.104714656069    -1.383320846996    -0.601903259445     1.007825032070
           H         -0.865570656069    -1.037074846996     1.085871740555     1.007825032070
           C         -3.512657656069    -0.504644846996     0.454976740555    12.000000000000
           H         -2.371161656069     0.749747153004    -0.859429259445     1.007825032070
           H         -2.132402656069     1.095449153004     0.827608740555     1.007825032070
           C         -4.772718656069     0.354443153004     0.457209740555    12.000000000000
           H         -3.632146656069    -1.316434846996    -0.257525259445     1.007825032070
           H         -3.393442656069    -0.970685846996     1.429406740555     1.007825032070
           H         -4.939076656069     0.807421153004    -0.514478259445     1.007825032070
           H         -5.649462656069    -0.234222846996     0.701775740555     1.007825032070
           H         -4.698722656069     1.155549153004     1.185082740555     1.007825032070
           H          4.129198343931    -1.317714846996    -1.102362259445     1.007825032070
           H          4.953967343931    -0.018152846996    -0.230866259445     1.007825032070
           H          4.129110343931    -1.315110846996     0.644212740555     1.007825032070

  Nuclear repulsion =  439.322029631690953

  ==> Basis Set <==

  Basis Set: CC-PVTZ
    Number of shells: 186
    Number of basis function: 494
    Number of Cartesian functions: 555
    Spherical Harmonics?: true
    Max angular momentum: 3

  ==> DFJKGrad: Density-Fitted SCF Gradients <==

    Gradient:                    1
    J tasked:                  Yes
    K tasked:                  Yes
    wK tasked:                  No
    OpenMP threads:              4
    Integrals threads:           4
    Memory (MB):              1430
    Schwarz Cutoff:          0E+00
    Fitting Condition:       1E-12

   => Auxiliary Basis Set <=

  Basis Set: 
    Number of shells: 385
    Number of basis function: 1191
    Number of Cartesian functions: 1424
    Spherical Harmonics?: true
    Max angular momentum: 4


  -Total Gradient:
     Atom            X                  Y                   Z
    ------   -----------------  -----------------  -----------------
       1       -0.000363161925     0.000140334467    -0.000020169814
       2       -0.000195443482    -0.000151495595     0.000963194377
       3       -0.000207841971     0.000435471955     0.000192437927
       4        0.000000980915     0.000012854526    -0.000013380992
       5        0.000399007295    -0.000747412492    -0.002110863980
       6        0.000008273782     0.000473437019    -0.000589332206
       7       -0.000501292178    -0.000486584889    -0.000292846819
       8        0.000509331080     0.000051148526     0.001408158704
       9        0.000130779919    -0.000694809605     0.000192020754
      10        0.000236026888     0.000914661638     0.000049606725
      11        0.000017691166     0.000093857033     0.000101662814
      12        0.000223828566     0.000303953084    -0.000049451083
      13       -0.000264753999    -0.000308216112     0.000098771827
      14        0.000004368115    -0.000016114779     0.000041253510
      15        0.000071828256    -0.000024057625     0.000031310680
      16       -0.000076358924     0.000021579185     0.000017860389
      17       -0.000012570477     0.000007887772    -0.000029120614
      18        0.000007124910     0.000007620045     0.000003458966
      19       -0.000000791550    -0.000002357650    -0.000010473428
      20        0.000002812970    -0.000005710581     0.000015769214
      21        0.000009837208     0.000005817250    -0.000002739659
      22       -0.000002520895    -0.000000981856     0.000001795380
      23        0.000021212502    -0.000030320002     0.000001462261
      24       -0.000030962635     0.000001760124     0.000004806198
      25        0.000012594472    -0.000002321436    -0.000005191131


*** tstop() called on cx1-27-3-4 at Sun Sep 11 04:09:04 2016
Module time:
	user time   =      96.05 seconds =       1.60 minutes
	system time =       1.14 seconds =       0.02 minutes
	total time  =         25 seconds =       0.42 minutes
Total time:
	user time   =     184.60 seconds =       3.08 minutes
	system time =       2.72 seconds =       0.05 minutes
	total time  =         49 seconds =       0.82 minutes

			-----------------------------------------
			 OPTKING 2.0: for geometry optimizations 
			  - R.A. King,  Bethel University        
			-----------------------------------------

	Internal coordinates to be generated automatically.
	Detected frag 1 with atoms:  1 2 3 4 5 6 7 8 9 10 11 12 13 14 15 16 17 18 19 20
	 21 22 23 24 25
	---Fragment 1 Bond Connectivity---
	 1 : 2
	 2 : 1 3 4
	 3 : 2 5 6 7
	 4 : 2 23 24 25
	 5 : 3 8 9 10
	 6 : 3
	 7 : 3
	 8 : 5 11 12 13
	 9 : 5
	 10 : 5
	 11 : 8 14 15 16
	 12 : 8
	 13 : 8
	 14 : 11 17 18 19
	 15 : 11
	 16 : 11
	 17 : 14 20 21 22
	 18 : 14
	 19 : 14
	 20 : 17
	 21 : 17
	 22 : 17
	 23 : 4
	 24 : 4
	 25 : 4

	Assuming in current code that numbering for constraints corresponds to unified fragment.
	Frozen dihedral atom list: 
	     9     5     3     6
	---Fragment 1 Geometry and Gradient---
	 O           5.3901420878        2.5137480062       -0.4374890976
	 C           5.3387528754        0.2703237227       -0.4366595078
	 C           2.8850096322       -1.2053823117       -0.4377139750
	 C           7.7426980554       -1.2741173203       -0.4346979721
	 C           0.5145447300        0.4238620813       -0.4355086646
	 H           2.9121782248       -2.4495950051       -2.0735648506
	 H           2.9127697091       -2.4531080060        1.1953816799
	 C          -1.8619427293       -1.0774875368        0.2092148693
	 H           0.3039630984        1.3059257689       -2.2723621500
	 H           0.7541525550        1.9566019401        0.9023153923
	 C          -4.2528110046        0.5344375162        0.2173293534
	 H          -2.0876081550       -2.6140975547       -1.1374323188
	 H          -1.6356914886       -1.9597874401        2.0520002051
	 C          -6.6379609686       -0.9536405552        0.8597814365
	 H          -4.4808461468        1.4168167881       -1.6240859309
	 H          -4.0296570250        2.0700988917        1.5639538648
	 C          -9.0191311693        0.6698004889        0.8640011949
	 H          -6.8637624544       -2.4877013326       -0.4866522127
	 H          -6.4126772676       -1.8343304119        2.7011872721
	 H          -9.3335022293        1.5258048531       -0.9722230117
	 H         -10.6759372179       -0.4426170349        1.3261639564
	 H          -8.8792989944        2.1836714323        2.2394818245
	 H           7.8030540184       -2.4901201821       -2.0831627696
	 H           9.3616415513       -0.0343039094       -0.4362740037
	 H           7.8028877225       -2.4851993352        1.2173856510
	            -0.0003631619        0.0001403345       -0.0000201698
	            -0.0001954435       -0.0001514956        0.0009631944
	            -0.0002078420        0.0004354720        0.0001924379
	             0.0000009809        0.0000128545       -0.0000133810
	             0.0003990073       -0.0007474125       -0.0021108640
	             0.0000082738        0.0004734370       -0.0005893322
	            -0.0005012922       -0.0004865849       -0.0002928468
	             0.0005093311        0.0000511485        0.0014081587
	             0.0001307799       -0.0006948096        0.0001920208
	             0.0002360269        0.0009146616        0.0000496067
	             0.0000176912        0.0000938570        0.0001016628
	             0.0002238286        0.0003039531       -0.0000494511
	            -0.0002647540       -0.0003082161        0.0000987718
	             0.0000043681       -0.0000161148        0.0000412535
	             0.0000718283       -0.0000240576        0.0000313107
	            -0.0000763589        0.0000215792        0.0000178604
	            -0.0000125705        0.0000078878       -0.0000291206
	             0.0000071249        0.0000076200        0.0000034590
	            -0.0000007915       -0.0000023577       -0.0000104734
	             0.0000028130       -0.0000057106        0.0000157692
	             0.0000098372        0.0000058172       -0.0000027397
	            -0.0000025209       -0.0000009819        0.0000017954
	             0.0000212125       -0.0000303200        0.0000014623
	            -0.0000309626        0.0000017601        0.0000048062
	             0.0000125945       -0.0000023214       -0.0000051911

	Previous optimization step data not found.  Starting new optimization.

	---Fragment 1 Intrafragment Coordinates---
	 - Coordinate -           - BOHR/RAD -       - ANG/DEG -
	 R(1,2)           =         2.244013	       1.187481
	 R(2,3)           =         2.863314	       1.515200
	 R(2,4)           =         2.857316	       1.512026
	 R(3,5)           =         2.876377	       1.522113
	 R(3,6)           =         2.055435	       1.087689
	 R(3,7)           =         2.055381	       1.087661
	 R(4,23)          =         2.049327	       1.084457
	 R(4,24)          =         2.039146	       1.079070
	 R(4,25)          =         2.049323	       1.084455
	 R(5,8)           =         2.883992	       1.526143
	 R(5,9)           =         2.048515	       1.084027
	 R(5,10)          =         2.048530	       1.084036
	 R(8,11)          =         2.883508	       1.525887
	 R(8,12)          =         2.055615	       1.087785
	 R(8,13)          =         2.055602	       1.087778
	 R(11,14)         =         2.883758	       1.526019
	 R(11,15)         =         2.054605	       1.087250
	 R(11,16)         =         2.054617	       1.087257
	 R(14,17)         =         2.881935	       1.525054
	 R(14,18)         =         2.053585	       1.086711
	 R(14,19)         =         2.053568	       1.086702
	 R(17,20)         =         2.050193	       1.084915
	 R(17,21)         =         2.048432	       1.083984
	 R(17,22)         =         2.050196	       1.084917
	 B(1,2,3)         =         2.135154	     122.335335
	 B(1,2,4)         =         2.118951	     121.406948
	 B(2,3,5)         =         1.997978	     114.475713
	 B(2,3,6)         =         1.876477	     107.514213
	 B(2,3,7)         =         1.876536	     107.517601
	 B(2,4,23)        =         1.922986	     110.178983
	 B(2,4,24)        =         1.916988	     109.835310
	 B(2,4,25)        =         1.922709	     110.163128
	 B(3,2,4)         =         2.029080	     116.257717
	 B(3,5,8)         =         1.965350	     112.606239
	 B(3,5,9)         =         1.904901	     109.142779
	 B(3,5,10)        =         1.904890	     109.142145
	 B(5,3,6)         =         1.933042	     110.755129
	 B(5,3,7)         =         1.933036	     110.754830
	 B(5,8,11)        =         1.974537	     113.132628
	 B(5,8,12)        =         1.910443	     109.460341
	 B(5,8,13)        =         1.910442	     109.460260
	 B(6,3,7)         =         1.838697	     105.349579
	 B(8,5,9)         =         1.917608	     109.870872
	 B(8,5,10)        =         1.917601	     109.870431
	 B(8,11,14)       =         1.980082	     113.450330
	 B(8,11,15)       =         1.906655	     109.243303
	 B(8,11,16)       =         1.906685	     109.245007
	 B(9,5,10)        =         1.849844	     105.988252
	 B(11,8,12)       =         1.905716	     109.189484
	 B(11,8,13)       =         1.905699	     109.188522
	 B(11,14,17)      =         1.974715	     113.142842
	 B(11,14,18)      =         1.907472	     109.290087
	 B(11,14,19)      =         1.907450	     109.288831
	 B(12,8,13)       =         1.853048	     106.171810
	 B(14,11,15)      =         1.906551	     109.237300
	 B(14,11,16)      =         1.906571	     109.238475
	 B(14,17,20)      =         1.939686	     111.135817
	 B(14,17,21)      =         1.941953	     111.265715
	 B(14,17,22)      =         1.939690	     111.136042
	 B(15,11,16)      =         1.852998	     106.168985
	 B(17,14,18)      =         1.908072	     109.324455
	 B(17,14,19)      =         1.908066	     109.324103
	 B(18,14,19)      =         1.854185	     106.236978
	 B(20,17,21)      =         1.880513	     107.745473
	 B(20,17,22)      =         1.878678	     107.640317
	 B(21,17,22)      =         1.880517	     107.745711
	 B(23,4,24)       =         1.914277	     109.679988
	 B(23,4,25)       =         1.872288	     107.274207
	 B(24,4,25)       =         1.914118	     109.670862
	 D(1,2,3,5)       =        -0.001681	      -0.096297
	 D(1,2,3,6)       =         2.153810	     123.404209
	 D(1,2,3,7)       =        -2.157209	    -123.598975
	 D(1,2,4,23)      =        -2.111677	    -120.990175
	 D(1,2,4,24)      =        -0.001055	      -0.060462
	 D(1,2,4,25)      =         2.109191	     120.847752
	 D(2,3,5,8)       =        -2.896579	    -165.961735
	 D(2,3,5,9)       =         1.252159	      71.743405
	 D(2,3,5,10)      =        -0.762148	     -43.667890
	 D(3,2,4,23)      =         1.029830	      59.004898
	 D(3,2,4,24)      =         3.140451	     179.934611
	 D(3,2,4,25)      =        -1.032487	     -59.157174
	 D(3,5,8,11)      =        -3.141397	    -179.988804
	 D(3,5,8,12)      =        -1.011955	     -57.980779
	 D(3,5,8,13)      =         1.012369	      58.004464
	 D(4,2,3,5)       =         3.139999	     179.908679
	 D(4,2,3,6)       =        -0.987696	     -56.590814
	 D(4,2,3,7)       =         0.984470	      56.406001
	 D(5,8,11,14)     =         3.141308	     179.983684
	 D(5,8,11,15)     =         1.009757	      57.854827
	 D(5,8,11,16)     =        -1.010279	     -57.884701
	 D(6,3,5,8)       =         1.261784	      72.294883
	*D(6,3,5,9)       =        -0.872664	     -49.999977
	 D(6,3,5,10)      =        -2.886971	    -165.411272
	 D(7,3,5,8)       =        -0.771682	     -44.214118
	 D(7,3,5,9)       =        -2.906130	    -166.508978
	 D(7,3,5,10)      =         1.362748	      78.079727
	 D(8,11,14,17)    =        -3.141533	    -179.996586
	 D(8,11,14,18)    =        -1.011097	     -57.931610
	 D(8,11,14,19)    =         1.011240	      57.939798
	 D(9,5,8,11)      =        -1.014129	     -58.105294
	 D(9,5,8,12)      =         1.115313	      63.902731
	 D(9,5,8,13)      =         3.139637	     179.887974
	 D(10,5,8,11)     =         1.014539	      58.128815
	 D(10,5,8,12)     =        -3.139204	    -179.863161
	 D(10,5,8,13)     =        -1.114880	     -63.877917
	 D(11,14,17,20)   =         1.045797	      59.919744
	 D(11,14,17,21)   =         3.141468	     179.992872
	 D(11,14,17,22)   =        -1.046038	     -59.933546
	 D(12,8,11,14)    =         1.009222	      57.824145
	 D(12,8,11,15)    =        -1.122329	     -64.304712
	 D(12,8,11,16)    =         3.140821	     179.955760
	 D(13,8,11,14)    =        -1.009805	     -57.857575
	 D(13,8,11,15)    =        -3.141356	    -179.986432
	 D(13,8,11,16)    =         1.121794	      64.274039
	 D(15,11,14,17)   =        -1.009924	     -57.864393
	 D(15,11,14,18)   =         1.120512	      64.200583
	 D(15,11,14,19)   =        -3.140336	    -179.928009
	 D(16,11,14,17)   =         1.009990	      57.868169
	 D(16,11,14,18)   =         3.140426	     179.933146
	 D(16,11,14,19)   =        -1.120422	     -64.195447
	 D(18,14,17,20)   =        -1.084303	     -62.126005
	 D(18,14,17,21)   =         1.011368	      57.947123
	 D(18,14,17,22)   =         3.107047	     178.020704
	 D(19,14,17,20)   =        -3.107321	    -178.036373
	 D(19,14,17,21)   =        -1.011649	     -57.963245
	 D(19,14,17,22)   =         1.084030	      62.110336

	Current energy   :      -387.2740270135

	Generating empirical Hessian (Schlegel '84) for each fragment.
	Taking RFO optimization step.
	Going to follow RFO solution 1.
	Using RFO vector 1.
	Norm of target step-size    0.17034
	Projected energy change by RFO approximation:         0.0000900556

	Back-transformation to cartesian coordinates...
	Could not converge backtransformation.
	Using first guess instead.

	Back-transformation to cartesian coordinates to adjust frozen coordinates...
	Successfully converged to displaced geometry.

	--- Internal Coordinate Step in ANG or DEG, aJ/ANG or AJ/DEG ---
	 ---------------------------------------------------------------------------
	   Coordinate                Previous        Force       Change         New 
	   ----------                --------       ------       ------       ------
	    1 R(1,2)          =      1.187481    -0.001087     0.000010     1.187490
	    2 R(2,3)          =      1.515200     0.004038     0.001476     1.516677
	    3 R(2,4)          =      1.512026    -0.000107     0.000788     1.512815
	    4 R(3,5)          =      1.522113     0.010362     0.002637     1.524750
	    5 R(3,6)          =      1.087689    -0.001504     0.000037     1.087727
	    6 R(3,7)          =      1.087661    -0.000461     0.000224     1.087884
	    7 R(4,23)         =      1.084457    -0.000144     0.000578     1.085036
	    8 R(4,24)         =      1.079070     0.000194     0.000380     1.079450
	    9 R(4,25)         =      1.084455     0.000020     0.000289     1.084744
	   10 R(5,8)          =      1.526143     0.000903     0.000439     1.526582
	   11 R(5,9)          =      1.084027     0.003994     0.000906     1.084933
	   12 R(5,10)         =      1.084036    -0.006133    -0.000782     1.083254
	   13 R(8,11)         =      1.525887    -0.000261     0.000444     1.526330
	   14 R(8,12)         =      1.087785     0.001807     0.000590     1.088375
	   15 R(8,13)         =      1.087778    -0.001579    -0.000051     1.087727
	   16 R(11,14)        =      1.526019     0.000003     0.000069     1.526089
	   17 R(11,15)        =      1.087250     0.000382     0.000313     1.087563
	   18 R(11,16)        =      1.087257    -0.000161     0.000228     1.087485
	   19 R(14,17)        =      1.525054    -0.000049     0.000417     1.525472
	   20 R(14,18)        =      1.086711     0.000072     0.000251     1.086962
	   21 R(14,19)        =      1.086702     0.000070     0.000236     1.086938
	   22 R(17,20)        =      1.084915     0.000140     0.000258     1.085173
	   23 R(17,21)        =      1.083984     0.000097     0.000054     1.084037
	   24 R(17,22)        =      1.084917    -0.000003     0.000247     1.085164
	   25 B(1,2,3)        =    122.335335     0.000043     0.104783   122.440117
	   26 B(1,2,4)        =    121.406948    -0.000020    -0.066636   121.340312
	   27 B(2,3,5)        =    114.475713     0.000065     0.059487   114.535200
	   28 B(2,3,6)        =    107.514213    -0.000059    -0.983832   106.530381
	   29 B(2,3,7)        =    107.517601    -0.000021    -0.004802   107.512800
	   30 B(2,4,23)       =    110.178983    -0.000004    -0.027073   110.151910
	   31 B(2,4,24)       =    109.835310     0.000003     0.045254   109.880564
	   32 B(2,4,25)       =    110.163128    -0.000001    -0.017301   110.145827
	   33 B(3,2,4)        =    116.257717    -0.000023    -0.038275   116.219441
	   34 B(3,5,8)        =    112.606239     0.000025    -0.134909   112.471330
	   35 B(3,5,9)        =    109.142779     0.000013    -0.122721   109.020058
	   36 B(3,5,10)       =    109.142145    -0.000008     0.463706   109.605851
	   37 B(5,3,6)        =    110.755129     0.000005    -0.034913   110.720216
	   38 B(5,3,7)        =    110.754830    -0.000006     0.398991   111.153821
	   39 B(5,8,11)       =    113.132628     0.000006     0.037799   113.170428
	   40 B(5,8,12)       =    109.460341     0.000022     0.205872   109.666213
	   41 B(5,8,13)       =    109.460260    -0.000029    -0.269218   109.191042
	   42 B(6,3,7)        =    105.349579     0.000010     0.567915   105.917495
	   43 B(8,5,9)        =    109.870872    -0.000058    -1.090650   108.780223
	   44 B(8,5,10)       =    109.870431     0.000015     0.303740   110.174171
	   45 B(8,11,14)      =    113.450330     0.000001     0.010722   113.461052
	   46 B(8,11,15)      =    109.243303     0.000005     0.043129   109.286432
	   47 B(8,11,16)      =    109.245007    -0.000006    -0.046416   109.198591
	   48 B(9,5,10)       =    105.988252     0.000013     0.618185   106.606437
	   49 B(11,8,12)      =    109.189484    -0.000017    -0.016335   109.173149
	   50 B(11,8,13)      =    109.188522     0.000015     0.018768   109.207290
	   51 B(11,14,17)     =    113.142842     0.000001     0.008484   113.151326
	   52 B(11,14,18)     =    109.290087     0.000000    -0.001120   109.288967
	   53 B(11,14,19)     =    109.288831    -0.000000    -0.017090   109.271741
	   54 B(12,8,13)      =    106.171810     0.000002     0.022022   106.193832
	   55 B(14,11,15)     =    109.237300    -0.000004    -0.021513   109.215788
	   56 B(14,11,16)     =    109.238475     0.000004     0.002523   109.240998
	   57 B(14,17,20)     =    111.135817    -0.000000     0.001168   111.136985
	   58 B(14,17,21)     =    111.265715     0.000000     0.005751   111.271466
	   59 B(14,17,22)     =    111.136042    -0.000000     0.000744   111.136786
	   60 B(15,11,16)     =    106.168985     0.000000     0.011698   106.180684
	   61 B(17,14,18)     =    109.324455    -0.000000     0.004798   109.329253
	   62 B(17,14,19)     =    109.324103    -0.000001    -0.006532   109.317571
	   63 B(18,14,19)     =    106.236978     0.000000     0.011707   106.248685
	   64 B(20,17,21)     =    107.745473    -0.000000    -0.009834   107.735639
	   65 B(20,17,22)     =    107.640317     0.000000     0.009022   107.649339
	   66 B(21,17,22)     =    107.745711     0.000000    -0.007297   107.738414
	   67 B(23,4,24)      =    109.679988    -0.000000    -0.013439   109.666549
	   68 B(23,4,25)      =    107.274207     0.000002     0.034940   107.309148
	   69 B(24,4,25)      =    109.670862    -0.000000    -0.023250   109.647612
	   70 D(1,2,3,5)      =     -0.096297     0.000001     0.655979     0.559682
	   71 D(1,2,3,6)      =    123.404209     0.000003    -0.081543   123.322667
	   72 D(1,2,3,7)      =   -123.598975    -0.000003     0.102289  -123.496686
	   73 D(1,2,4,23)     =   -120.990175    -0.000000    -0.019189  -121.009364
	   74 D(1,2,4,24)     =     -0.060462    -0.000000    -0.024087    -0.084549
	   75 D(1,2,4,25)     =    120.847752     0.000000    -0.034930   120.812822
	   76 D(2,3,5,8)      =   -165.961735    -0.000017    -2.833009  -168.794744
	   77 D(2,3,5,9)      =     71.743405    -0.000006    -1.275036    70.468369
	   78 D(2,3,5,10)     =    -43.667890    -0.000010    -2.203552   -45.871442
	   79 D(3,2,4,23)     =     59.004898     0.000000     0.113373    59.118271
	   80 D(3,2,4,24)     =    179.934611    -0.000000     0.108475   180.043086
	   81 D(3,2,4,25)     =    -59.157174     0.000000     0.097632   -59.059542
	   82 D(3,5,8,11)     =   -179.988804     0.000004     3.052837  -176.935968
	   83 D(3,5,8,12)     =    -57.980779     0.000003     3.207574   -54.773206
	   84 D(3,5,8,13)     =     58.004464     0.000003     3.197566    61.202030
	   85 D(4,2,3,5)      =    179.908679     0.000001     0.521834   180.430513
	   86 D(4,2,3,6)      =    -56.590814     0.000003    -0.215688   -56.806502
	   87 D(4,2,3,7)      =     56.406001    -0.000004    -0.031856    56.374145
	   88 D(5,8,11,14)    =    179.983684     0.000003     0.531818   180.515502
	   89 D(5,8,11,15)    =     57.854827     0.000003     0.520603    58.375430
	   90 D(5,8,11,16)    =    -57.884701     0.000004     0.508460   -57.376241
	   91 D(6,3,5,8)      =     72.294883    -0.000011    -1.557974    70.736909
	   92 *D(6,3,5,9)     =    -49.999977     0.000000     0.000000   -49.999977
	   93 D(6,3,5,10)     =   -165.411272    -0.000004    -0.928516  -166.339788
	   94 D(7,3,5,8)      =    -44.214118    -0.000014    -2.486162   -46.700280
	   95 D(7,3,5,9)      =   -166.508978    -0.000003    -0.928188  -167.437166
	   96 D(7,3,5,10)     =     78.079727    -0.000007    -1.856704    76.223023
	   97 D(8,11,14,17)   =   -179.996586    -0.000001    -0.118875  -180.115462
	   98 D(8,11,14,18)   =    -57.931610    -0.000001    -0.107753   -58.039363
	   99 D(8,11,14,19)   =     57.939798    -0.000001    -0.103904    57.835893
	  100 D(9,5,8,11)     =    -58.105294     0.000002     2.043931   -56.061364
	  101 D(9,5,8,12)     =     63.902731     0.000001     2.198668    66.101398
	  102 D(9,5,8,13)     =    179.887974     0.000001     2.188660   182.076634
	  103 D(10,5,8,11)    =     58.128815    -0.000000     2.331418    60.460232
	  104 D(10,5,8,12)    =   -179.863161    -0.000001     2.486155  -177.377006
	  105 D(10,5,8,13)    =    -63.877917    -0.000001     2.476147   -61.401770
	  106 D(11,14,17,20)  =     59.919744     0.000000     0.044853    59.964597
	  107 D(11,14,17,21)  =    179.992872     0.000000     0.037054   180.029926
	  108 D(11,14,17,22)  =    -59.933546     0.000000     0.032181   -59.901365
	  109 D(12,8,11,14)   =     57.824145    -0.000002     0.253632    58.077777
	  110 D(12,8,11,15)   =    -64.304712    -0.000001     0.242416   -64.062296
	  111 D(12,8,11,16)   =    179.955760    -0.000001     0.230274   180.186033
	  112 D(13,8,11,14)   =    -57.857575    -0.000002     0.225975   -57.631600
	  113 D(13,8,11,15)   =   -179.986432    -0.000002     0.214759  -179.771673
	  114 D(13,8,11,16)   =     64.274039    -0.000001     0.202617    64.476656
	  115 D(15,11,14,17)  =    -57.864393     0.000000    -0.071757   -57.936150
	  116 D(15,11,14,18)  =     64.200583     0.000000    -0.060635    64.139949
	  117 D(15,11,14,19)  =   -179.928009     0.000000    -0.056786  -179.984795
	  118 D(16,11,14,17)  =     57.868169     0.000000    -0.068316    57.799853
	  119 D(16,11,14,18)  =    179.933146     0.000000    -0.057195   179.875951
	  120 D(16,11,14,19)  =    -64.195447     0.000000    -0.053345   -64.248792
	  121 D(18,14,17,20)  =    -62.126005    -0.000000     0.037036   -62.088969
	  122 D(18,14,17,21)  =     57.947123    -0.000000     0.029236    57.976359
	  123 D(18,14,17,22)  =    178.020704    -0.000000     0.024364   178.045068
	  124 D(19,14,17,20)  =   -178.036373    -0.000000     0.023975  -178.012399
	  125 D(19,14,17,21)  =    -57.963245    -0.000000     0.016175   -57.947070
	  126 D(19,14,17,22)  =     62.110336     0.000000     0.011303    62.121639
	 ---------------------------------------------------------------------------
	Successfully symmetrized geometry.

  ==> Convergence Check <==

  Measures of convergence in internal coordinates in au.
  Criteria marked as inactive (o), active & met (*), and active & unmet ( ).
  --------------------------------------------------------------------------------------------- ~
   Step     Total Energy     Delta E     MAX Force     RMS Force      MAX Disp      RMS Disp    ~
  --------------------------------------------------------------------------------------------- ~
    Convergence Criteria    1.00e-06 *    3.00e-04 *             o    1.20e-03 *             o  ~
  --------------------------------------------------------------------------------------------- ~
      1    -387.27402701   -3.87e+02      1.26e-03      2.67e-04 o    5.60e-02      1.52e-02 o  ~
  ---------------------------------------------------------------------------------------------

	Writing optimization data to binary file.
	Structure for next step:
	Cartesian Geometry (in Angstrom)
	    O     2.8729866054   1.3275015693  -0.2329073101
	    C     2.8341311957   0.1406601739  -0.2384242435
	    C     1.5289978951  -0.6308232369  -0.1966061682
	    C     4.0990699869  -0.6878107615  -0.2850502739
	    C     0.2788252848   0.2413262856  -0.1607465067
	    H     1.5228989866  -1.2763794166  -1.0720312493
	    H     1.5689295251  -1.2953106510   0.6638324559
	    C    -0.9822929859  -0.5592537792   0.1540607045
	    H     0.1554835126   0.7223350704  -1.1253690058
	    H     0.4093026296   1.0339416984   0.5660098900
	    C    -2.2534820197   0.2849359290   0.1207946751
	    H    -1.0803846310  -1.3810938065  -0.5527047711
	    H    -0.8807520676  -1.0146369921   1.1366419854
	    C    -3.5170156872  -0.5063355175   0.4468598418
	    H    -2.3584098865   0.7376584838  -0.8624783676
	    H    -2.1545875509   1.1081587694   0.8244618725
	    C    -4.7826780299   0.3446089351   0.4143562322
	    H    -3.6178020019  -1.3281137533  -0.2574189092
	    H    -3.4132241449  -0.9590045996   1.4295865421
	    H    -4.9339333416   0.7836725442  -0.5664324415
	    H    -5.6601689426  -0.2465039415   0.6504324864
	    H    -4.7273607964   1.1558217864   1.1330040058
	    H     4.0954296725  -1.3265896353  -1.1621195238
	    H     4.9617326401  -0.0394812000  -0.3113919831
	    H     4.1547877499  -1.3338791294   0.5845245760
			--------------------------
			 OPTKING Finished Execution 
			--------------------------

    Structure for next step:
    Molecular point group: c1
    Full point group: C1

    Geometry (in Angstrom), charge = 0, multiplicity = 1:

    O            2.870112643768     1.326993406869    -0.236221277069
    C            2.831257234117     0.140152011425    -0.241738210425
    C            1.526123933422    -0.631331399407    -0.199920135122
    C            4.096196025256    -0.688318924017    -0.288364240865
    C            0.275951323161     0.240818123102    -0.164060473647
    H            1.520025024995    -1.276887579036    -1.075345216301
    H            1.566055563488    -1.295818813462     0.660518488930
    C           -0.985166947576    -0.559761941677     0.150746737573
    H            0.152609550958     0.721826907964    -1.128682972716
    H            0.406428667929     1.033433535905     0.562695923049
    C           -2.256355981289     0.284427766477     0.117480708121
    H           -1.083258592616    -1.381601968986    -0.556018738076
    H           -0.883626029245    -1.015145154581     1.133328018493
    C           -3.519889648785    -0.506843679959     0.443545874801
    H           -2.361283848128     0.737150321330    -0.865792334537
    H           -2.157461512512     1.107650606952     0.821147905521
    C           -4.785551991527     0.344100772609     0.411042265211
    H           -3.620675963493    -1.328621915791    -0.260732876188
    H           -3.416098106539    -0.959512762079     1.426272575118
    H           -4.936807303246     0.783164381715    -0.569746408496
    H           -5.663042904232    -0.247012104001     0.647118519448
    H           -4.730234758029     1.155313623884     1.129690038820
    H            4.092555710834    -1.327097797748    -1.165433490712
    H            4.958858678455    -0.039989362471    -0.314705950063
    H            4.151913788318    -1.334387291830     0.581210609093

gradient() will perform analytic gradient computation.

*** tstart() called on cx1-27-3-4
*** at Sun Sep 11 04:09:06 2016


         ---------------------------------------------------------
                                   SCF
            by Justin Turney, Rob Parrish, and Andy Simmonett
                              RHF Reference
                        4 Threads,   2000 MiB Core
         ---------------------------------------------------------

  ==> Geometry <==

    Molecular point group: c1
    Full point group: C1

    Geometry (in Angstrom), charge = 0, multiplicity = 1:

       Center              X                  Y                   Z               Mass       
    ------------   -----------------  -----------------  -----------------  -----------------
           O          2.870112643768     1.326993406869    -0.236221277069    15.994914619560
           C          2.831257234117     0.140152011425    -0.241738210425    12.000000000000
           C          1.526123933422    -0.631331399407    -0.199920135122    12.000000000000
           C          4.096196025256    -0.688318924017    -0.288364240865    12.000000000000
           C          0.275951323161     0.240818123102    -0.164060473647    12.000000000000
           H          1.520025024995    -1.276887579036    -1.075345216301     1.007825032070
           H          1.566055563488    -1.295818813462     0.660518488930     1.007825032070
           C         -0.985166947576    -0.559761941677     0.150746737573    12.000000000000
           H          0.152609550958     0.721826907964    -1.128682972716     1.007825032070
           H          0.406428667929     1.033433535905     0.562695923049     1.007825032070
           C         -2.256355981289     0.284427766477     0.117480708121    12.000000000000
           H         -1.083258592616    -1.381601968986    -0.556018738076     1.007825032070
           H         -0.883626029245    -1.015145154581     1.133328018493     1.007825032070
           C         -3.519889648785    -0.506843679959     0.443545874801    12.000000000000
           H         -2.361283848128     0.737150321330    -0.865792334537     1.007825032070
           H         -2.157461512512     1.107650606952     0.821147905521     1.007825032070
           C         -4.785551991527     0.344100772609     0.411042265211    12.000000000000
           H         -3.620675963493    -1.328621915791    -0.260732876188     1.007825032070
           H         -3.416098106539    -0.959512762079     1.426272575118     1.007825032070
           H         -4.936807303246     0.783164381715    -0.569746408496     1.007825032070
           H         -5.663042904232    -0.247012104001     0.647118519448     1.007825032070
           H         -4.730234758029     1.155313623884     1.129690038820     1.007825032070
           H          4.092555710834    -1.327097797748    -1.165433490712     1.007825032070
           H          4.958858678455    -0.039989362471    -0.314705950063     1.007825032070
           H          4.151913788318    -1.334387291830     0.581210609093     1.007825032070

  Running in c1 symmetry.

  Rotational constants: A =      0.21511  B =      0.01459  C =      0.01392 [cm^-1]
  Rotational constants: A =   6448.86658  B =    437.38482  C =    417.38290 [MHz]
  Nuclear repulsion =  438.988359412670832

  Charge       = 0
  Multiplicity = 1
  Electrons    = 72
  Nalpha       = 36
  Nbeta        = 36

  ==> Algorithm <==

  SCF Algorithm Type is DF.
  DIIS enabled.
  MOM disabled.
  Fractional occupation disabled.
  Guess Type is READ.
  Energy threshold   = 1.00e-08
  Density threshold  = 1.00e-08
  Integral threshold = 0.00e+00

  ==> Primary Basis <==

  Basis Set: CC-PVTZ
    Number of shells: 186
    Number of basis function: 494
    Number of Cartesian functions: 555
    Spherical Harmonics?: true
    Max angular momentum: 3

  ==> Pre-Iterations <==

   -------------------------------------------------------
    Irrep   Nso     Nmo     Nalpha   Nbeta   Ndocc  Nsocc
   -------------------------------------------------------
     A        494     494       0       0       0       0
   -------------------------------------------------------
    Total     494     494      36      36      36       0
   -------------------------------------------------------

  ==> Integral Setup <==

  ==> DFJK: Density-Fitted J/K Matrices <==

    J tasked:                  Yes
    K tasked:                  Yes
    wK tasked:                  No
    OpenMP threads:              4
    Integrals threads:           4
    Memory (MB):              1430
    Algorithm:                Core
    Integral Cache:           NONE
    Schwarz Cutoff:          1E-12
    Fitting Condition:       1E-12

   => Auxiliary Basis Set <=

  Basis Set: 
    Number of shells: 385
    Number of basis function: 1191
    Number of Cartesian functions: 1424
    Spherical Harmonics?: true
    Max angular momentum: 4

  Minimum eigenvalue in the overlap matrix is 2.1853897668E-04.
  Using Symmetric Orthogonalization.
  SCF Guess: Reading in previously saved MOs, projecting if necessary.

  Using orbitals from previous SCF, no projection.
  Recomputing DOCC and SOCC from number of alpha and beta electrons from previous calculation.
              A 
    DOCC [    36 ]

  ==> Iterations <==

                           Total Energy        Delta E     RMS |[F,P]|

   @DF-RHF iter   0:  -387.26747920719782   -3.87267e+02   1.45635e-04 
   @DF-RHF iter   1:  -387.27388925890665   -6.41005e-03   2.63372e-05 
   @DF-RHF iter   2:  -387.27405914819116   -1.69889e-04   9.55035e-06 DIIS
   @DF-RHF iter   3:  -387.27409441302899   -3.52648e-05   3.39446e-06 DIIS
   @DF-RHF iter   4:  -387.27409907684904   -4.66382e-06   2.01073e-06 DIIS
   @DF-RHF iter   5:  -387.27410184150739   -2.76466e-06   1.06542e-06 DIIS
   @DF-RHF iter   6:  -387.27410249837698   -6.56870e-07   3.43815e-07 DIIS
   @DF-RHF iter   7:  -387.27410256769764   -6.93207e-08   7.08082e-08 DIIS
   @DF-RHF iter   8:  -387.27410256942943   -1.73179e-09   2.28759e-08 DIIS
   @DF-RHF iter   9:  -387.27410256958223   -1.52795e-10   7.61635e-09 DIIS

  ==> Post-Iterations <==

    Orbital Energies (a.u.)
    -----------------------

    Doubly Occupied:                                                      

       1A    -20.538804     2A    -11.320555     3A    -11.230644  
       4A    -11.226802     5A    -11.215335     6A    -11.214696  
       7A    -11.213646     8A    -11.211610     9A    -11.206563  
      10A     -1.398783    11A     -1.094870    12A     -1.057354  
      13A     -1.015405    14A     -0.969828    15A     -0.891719  
      16A     -0.814567    17A     -0.791178    18A     -0.730409  
      19A     -0.663839    20A     -0.652685    21A     -0.633586  
      22A     -0.626570    23A     -0.596939    24A     -0.585043  
      25A     -0.567888    26A     -0.560002    27A     -0.540830  
      28A     -0.527163    29A     -0.513833    30A     -0.493173  
      31A     -0.488613    32A     -0.473866    33A     -0.463762  
      34A     -0.462886    35A     -0.452431    36A     -0.401119  

    Virtual:                                                              

      37A      0.130117    38A      0.143689    39A      0.151071  
      40A      0.161826    41A      0.168932    42A      0.173812  
      43A      0.191195    44A      0.203146    45A      0.213044  
      46A      0.219465    47A      0.225725    48A      0.228226  
      49A      0.244329    50A      0.249672    51A      0.250889  
      52A      0.282087    53A      0.291852    54A      0.301305  
      55A      0.312383    56A      0.321056    57A      0.337705  
      58A      0.350714    59A      0.366269    60A      0.376936  
      61A      0.387313    62A      0.401586    63A      0.403450  
      64A      0.428290    65A      0.444224    66A      0.452612  
      67A      0.466975    68A      0.473582    69A      0.498066  
      70A      0.503412    71A      0.514226    72A      0.521736  
      73A      0.525895    74A      0.537203    75A      0.557953  
      76A      0.563177    77A      0.578374    78A      0.597119  
      79A      0.604902    80A      0.610582    81A      0.616523  
      82A      0.625686    83A      0.634573    84A      0.642692  
      85A      0.645950    86A      0.650015    87A      0.655439  
      88A      0.659088    89A      0.667819    90A      0.673937  
      91A      0.676287    92A      0.680386    93A      0.686589  
      94A      0.694131    95A      0.706312    96A      0.716593  
      97A      0.726568    98A      0.739198    99A      0.742302  
     100A      0.758347   101A      0.781564   102A      0.798129  
     103A      0.806355   104A      0.825334   105A      0.858049  
     106A      0.869737   107A      0.876140   108A      0.885457  
     109A      0.891469   110A      0.909892   111A      0.929672  
     112A      0.934968   113A      0.941236   114A      0.964495  
     115A      0.974362   116A      0.991537   117A      0.997612  
     118A      1.005516   119A      1.011768   120A      1.031066  
     121A      1.047652   122A      1.058130   123A      1.070481  
     124A      1.095436   125A      1.098607   126A      1.136703  
     127A      1.142497   128A      1.154278   129A      1.156589  
     130A      1.167874   131A      1.189410   132A      1.204069  
     133A      1.217566   134A      1.231762   135A      1.240993  
     136A      1.246180   137A      1.264147   138A      1.273772  
     139A      1.279354   140A      1.280352   141A      1.286234  
     142A      1.299831   143A      1.307215   144A      1.314621  
     145A      1.337002   146A      1.339781   147A      1.349002  
     148A      1.362678   149A      1.373421   150A      1.377707  
     151A      1.390300   152A      1.406563   153A      1.409981  
     154A      1.415499   155A      1.425124   156A      1.430574  
     157A      1.455030   158A      1.462960   159A      1.465953  
     160A      1.473857   161A      1.493186   162A      1.497074  
     163A      1.501533   164A      1.510798   165A      1.522129  
     166A      1.541214   167A      1.542441   168A      1.556144  
     169A      1.567776   170A      1.570844   171A      1.579377  
     172A      1.590911   173A      1.605381   174A      1.616196  
     175A      1.619212   176A      1.628621   177A      1.637314  
     178A      1.642818   179A      1.652044   180A      1.657826  
     181A      1.698014   182A      1.716197   183A      1.727634  
     184A      1.747554   185A      1.758393   186A      1.774881  
     187A      1.783706   188A      1.788821   189A      1.791293  
     190A      1.824019   191A      1.832983   192A      1.840991  
     193A      1.847831   194A      1.857330   195A      1.891471  
     196A      1.898681   197A      1.924601   198A      1.964882  
     199A      2.008581   200A      2.033193   201A      2.094082  
     202A      2.123082   203A      2.220340   204A      2.244138  
     205A      2.433582   206A      2.468050   207A      2.479115  
     208A      2.502715   209A      2.555969   210A      2.575965  
     211A      2.598927   212A      2.610784   213A      2.645217  
     214A      2.663846   215A      2.674346   216A      2.694262  
     217A      2.703995   218A      2.717029   219A      2.737219  
     220A      2.753379   221A      2.762372   222A      2.776235  
     223A      2.789329   224A      2.796715   225A      2.809797  
     226A      2.826427   227A      2.834792   228A      2.860288  
     229A      2.875307   230A      2.882991   231A      2.904374  
     232A      2.913942   233A      2.915735   234A      2.922916  
     235A      2.940440   236A      2.961570   237A      2.963657  
     238A      2.973357   239A      2.988123   240A      3.000176  
     241A      3.027377   242A      3.035886   243A      3.042699  
     244A      3.058891   245A      3.075219   246A      3.104873  
     247A      3.110336   248A      3.114925   249A      3.120803  
     250A      3.138250   251A      3.147451   252A      3.158335  
     253A      3.183075   254A      3.184796   255A      3.193051  
     256A      3.214067   257A      3.234147   258A      3.248086  
     259A      3.263117   260A      3.272263   261A      3.279483  
     262A      3.298582   263A      3.317101   264A      3.324268  
     265A      3.331262   266A      3.340189   267A      3.348953  
     268A      3.360278   269A      3.369572   270A      3.372654  
     271A      3.389853   272A      3.391637   273A      3.401700  
     274A      3.407385   275A      3.411689   276A      3.427112  
     277A      3.429008   278A      3.433068   279A      3.435696  
     280A      3.439341   281A      3.447959   282A      3.456731  
     283A      3.461003   284A      3.471868   285A      3.485043  
     286A      3.500357   287A      3.518887   288A      3.525662  
     289A      3.532704   290A      3.546718   291A      3.556364  
     292A      3.576213   293A      3.578546   294A      3.581906  
     295A      3.585558   296A      3.602090   297A      3.615863  
     298A      3.629996   299A      3.634572   300A      3.645779  
     301A      3.656981   302A      3.699539   303A      3.708002  
     304A      3.710211   305A      3.737972   306A      3.745668  
     307A      3.766042   308A      3.777007   309A      3.790944  
     310A      3.800794   311A      3.825341   312A      3.827828  
     313A      3.843502   314A      3.846784   315A      3.866695  
     316A      3.875287   317A      3.887094   318A      3.891898  
     319A      3.914122   320A      3.915285   321A      3.933050  
     322A      3.938946   323A      3.942122   324A      3.975274  
     325A      3.994153   326A      4.002115   327A      4.007590  
     328A      4.019928   329A      4.053628   330A      4.065978  
     331A      4.075423   332A      4.083362   333A      4.094029  
     334A      4.105261   335A      4.110597   336A      4.119392  
     337A      4.135439   338A      4.141898   339A      4.148126  
     340A      4.163532   341A      4.172257   342A      4.184229  
     343A      4.194335   344A      4.201264   345A      4.206492  
     346A      4.212484   347A      4.235981   348A      4.249262  
     349A      4.254881   350A      4.264110   351A      4.275318  
     352A      4.284052   353A      4.301141   354A      4.304459  
     355A      4.319948   356A      4.335837   357A      4.351830  
     358A      4.358599   359A      4.366658   360A      4.373482  
     361A      4.375260   362A      4.394403   363A      4.403341  
     364A      4.412369   365A      4.415998   366A      4.423355  
     367A      4.436419   368A      4.444074   369A      4.452457  
     370A      4.465856   371A      4.485423   372A      4.493512  
     373A      4.507486   374A      4.532497   375A      4.555931  
     376A      4.559480   377A      4.563601   378A      4.576273  
     379A      4.594579   380A      4.602825   381A      4.612841  
     382A      4.622841   383A      4.632859   384A      4.658250  
     385A      4.670032   386A      4.675166   387A      4.689963  
     388A      4.695781   389A      4.701482   390A      4.708671  
     391A      4.718725   392A      4.730218   393A      4.765893  
     394A      4.774030   395A      4.776711   396A      4.808439  
     397A      4.847881   398A      4.853358   399A      4.862574  
     400A      4.906890   401A      4.951573   402A      4.985694  
     403A      4.995934   404A      5.002889   405A      5.026929  
     406A      5.052117   407A      5.065125   408A      5.100636  
     409A      5.113674   410A      5.130098   411A      5.155196  
     412A      5.172185   413A      5.185181   414A      5.205745  
     415A      5.219001   416A      5.231788   417A      5.241646  
     418A      5.246823   419A      5.258661   420A      5.269380  
     421A      5.276958   422A      5.321029   423A      5.334446  
     424A      5.342818   425A      5.351505   426A      5.361726  
     427A      5.415305   428A      5.419890   429A      5.430019  
     430A      5.438420   431A      5.459131   432A      5.481773  
     433A      5.504370   434A      5.510085   435A      5.519784  
     436A      5.542940   437A      5.568780   438A      5.571139  
     439A      5.604910   440A      5.629485   441A      5.635569  
     442A      5.643449   443A      5.653722   444A      5.659473  
     445A      5.711249   446A      5.739492   447A      5.743617  
     448A      5.752532   449A      5.760055   450A      5.787221  
     451A      5.802225   452A      5.823322   453A      5.849703  
     454A      5.866681   455A      5.877701   456A      5.895017  
     457A      5.922930   458A      5.927320   459A      5.935204  
     460A      5.949231   461A      5.966352   462A      5.981489  
     463A      6.021331   464A      6.053022   465A      6.101671  
     466A      6.109037   467A      6.122668   468A      6.233902  
     469A      6.242763   470A      6.258640   471A      6.285724  
     472A      6.332912   473A      6.334876   474A      6.395162  
     475A      6.415377   476A      6.445891   477A      6.528078  
     478A      6.825982   479A      6.842468   480A      6.952857  
     481A      7.033785   482A      7.241299   483A      7.400593  
     484A      7.600753   485A      7.606284   486A      9.608980  
     487A     13.236232   488A     13.430839   489A     13.497966  
     490A     13.814462   491A     14.057561   492A     14.224805  
     493A     14.263255   494A     14.652344  

    Final Occupation by Irrep:
              A 
    DOCC [    36 ]

  Energy converged.

  @DF-RHF Final Energy:  -387.27410256958223

   => Energetics <=

    Nuclear Repulsion Energy =            438.9883594126708317
    One-Electron Energy =               -1394.8309294458663317
    Two-Electron Energy =                 568.5684674636125919
    DFT Exchange-Correlation Energy =       0.0000000000000000
    Empirical Dispersion Energy =           0.0000000000000000
    PCM Polarization Energy =               0.0000000000000000
    EFP Energy =                            0.0000000000000000
    Total Energy =                       -387.2741025695828512


  Saving occupied orbitals to File 180.

*** tstop() called on cx1-27-3-4 at Sun Sep 11 04:09:31 2016
Module time:
	user time   =      89.37 seconds =       1.49 minutes
	system time =       1.36 seconds =       0.02 minutes
	total time  =         25 seconds =       0.42 minutes
Total time:
	user time   =     276.59 seconds =       4.61 minutes
	system time =       4.17 seconds =       0.07 minutes
	total time  =         76 seconds =       1.27 minutes


Properties will be evaluated at   0.000000,   0.000000,   0.000000 Bohr

Properties computed using the SCF density matrix

  Nuclear Dipole Moment: (a.u.)
     X:   -11.2396      Y:    -4.3693      Z:     0.9603

  Electronic Dipole Moment: (a.u.)
     X:    11.1412      Y:     3.2078      Z:    -0.9593

  Dipole Moment: (a.u.)
     X:    -0.0985      Y:    -1.1615      Z:     0.0009     Total:     1.1656

  Dipole Moment: (Debye)
     X:    -0.2503      Y:    -2.9521      Z:     0.0024     Total:     2.9627


*** tstart() called on cx1-27-3-4
*** at Sun Sep 11 04:09:31 2016


         ------------------------------------------------------------
                                   SCF GRAD                          
                          Rob Parrish, Justin Turney,                
                       Andy Simmonett, and Alex Sokolov              
         ------------------------------------------------------------

  ==> Geometry <==

    Molecular point group: c1
    Full point group: C1

    Geometry (in Angstrom), charge = 0, multiplicity = 1:

       Center              X                  Y                   Z               Mass       
    ------------   -----------------  -----------------  -----------------  -----------------
           O          2.870112643768     1.326993406869    -0.236221277069    15.994914619560
           C          2.831257234117     0.140152011425    -0.241738210425    12.000000000000
           C          1.526123933422    -0.631331399407    -0.199920135122    12.000000000000
           C          4.096196025256    -0.688318924017    -0.288364240865    12.000000000000
           C          0.275951323161     0.240818123102    -0.164060473647    12.000000000000
           H          1.520025024995    -1.276887579036    -1.075345216301     1.007825032070
           H          1.566055563488    -1.295818813462     0.660518488930     1.007825032070
           C         -0.985166947576    -0.559761941677     0.150746737573    12.000000000000
           H          0.152609550958     0.721826907964    -1.128682972716     1.007825032070
           H          0.406428667929     1.033433535905     0.562695923049     1.007825032070
           C         -2.256355981289     0.284427766477     0.117480708121    12.000000000000
           H         -1.083258592616    -1.381601968986    -0.556018738076     1.007825032070
           H         -0.883626029245    -1.015145154581     1.133328018493     1.007825032070
           C         -3.519889648785    -0.506843679959     0.443545874801    12.000000000000
           H         -2.361283848128     0.737150321330    -0.865792334537     1.007825032070
           H         -2.157461512512     1.107650606952     0.821147905521     1.007825032070
           C         -4.785551991527     0.344100772609     0.411042265211    12.000000000000
           H         -3.620675963493    -1.328621915791    -0.260732876188     1.007825032070
           H         -3.416098106539    -0.959512762079     1.426272575118     1.007825032070
           H         -4.936807303246     0.783164381715    -0.569746408496     1.007825032070
           H         -5.663042904232    -0.247012104001     0.647118519448     1.007825032070
           H         -4.730234758029     1.155313623884     1.129690038820     1.007825032070
           H          4.092555710834    -1.327097797748    -1.165433490712     1.007825032070
           H          4.958858678455    -0.039989362471    -0.314705950063     1.007825032070
           H          4.151913788318    -1.334387291830     0.581210609093     1.007825032070

  Nuclear repulsion =  438.988359412670832

  ==> Basis Set <==

  Basis Set: CC-PVTZ
    Number of shells: 186
    Number of basis function: 494
    Number of Cartesian functions: 555
    Spherical Harmonics?: true
    Max angular momentum: 3

  ==> DFJKGrad: Density-Fitted SCF Gradients <==

    Gradient:                    1
    J tasked:                  Yes
    K tasked:                  Yes
    wK tasked:                  No
    OpenMP threads:              4
    Integrals threads:           4
    Memory (MB):              1430
    Schwarz Cutoff:          0E+00
    Fitting Condition:       1E-12

   => Auxiliary Basis Set <=

  Basis Set: 
    Number of shells: 385
    Number of basis function: 1191
    Number of Cartesian functions: 1424
    Spherical Harmonics?: true
    Max angular momentum: 4


  -Total Gradient:
     Atom            X                  Y                   Z
    ------   -----------------  -----------------  -----------------
       1        0.000019044027     0.000184970307     0.000299429444
       2       -0.000060205055    -0.000529139860    -0.000901540737
       3       -0.001556538646    -0.002101113991     0.001178362993
       4        0.000194084563     0.000195536529     0.000355056945
       5        0.001195827101     0.002217859858     0.001678913657
       6        0.001411782920     0.001449189690    -0.001301487420
       7        0.000110785978    -0.000327000142     0.000311232668
       8        0.000266887067     0.000327227749    -0.000648571990
       9       -0.001638958997    -0.001763237359    -0.000769783821
      10        0.000052719788     0.000542519970     0.000179649947
      11       -0.000233896486    -0.000078505776    -0.000147608742
      12       -0.000168971948    -0.000346915434    -0.000091212438
      13        0.000288724357     0.000245933368     0.000053288500
      14        0.000090880334     0.000046081465    -0.000098716195
      15       -0.000074986941     0.000080093471    -0.000154952381
      16        0.000040449127     0.000058398512     0.000125235979
      17       -0.000140354944    -0.000039937349     0.000044956251
      18       -0.000001476315    -0.000107820459    -0.000117740277
      19        0.000048536574    -0.000058375887     0.000168319370
      20       -0.000036367360     0.000044912669    -0.000149492161
      21       -0.000046324791     0.000009825622     0.000007416240
      22       -0.000014657213     0.000127270040     0.000129299548
      23       -0.000079590861    -0.000179259479    -0.000368114931
      24        0.000286877322     0.000076883546     0.000021419358
      25        0.000045730408    -0.000075397058     0.000196640195


*** tstop() called on cx1-27-3-4 at Sun Sep 11 04:09:52 2016
Module time:
	user time   =      82.30 seconds =       1.37 minutes
	system time =       1.39 seconds =       0.02 minutes
	total time  =         21 seconds =       0.35 minutes
Total time:
	user time   =     359.09 seconds =       5.98 minutes
	system time =       5.57 seconds =       0.09 minutes
	total time  =         97 seconds =       1.62 minutes

			-----------------------------------------
			 OPTKING 2.0: for geometry optimizations 
			  - R.A. King,  Bethel University        
			-----------------------------------------

	Previous internal coordinate definitions found.
[...]
	 D(12,8,11,14)    =         1.011168	      57.935659
	 D(12,8,11,15)    =        -1.120322	     -64.189696
	 D(12,8,11,16)    =        -3.140269	    -179.924156
	 D(13,8,11,14)    =        -1.007901	     -57.748465
	 D(13,8,11,15)    =        -3.139390	    -179.873819
	 D(13,8,11,16)    =         1.123848	      64.391720
	 D(15,11,14,17)   =        -1.009225	     -57.824340
	 D(15,11,14,18)   =         1.121373	      64.249922
	 D(15,11,14,19)   =        -3.139495	    -179.879800
	 D(16,11,14,17)   =         1.010486	      57.896590
	 D(16,11,14,18)   =         3.141084	     179.970852
	 D(16,11,14,19)   =        -1.119784	     -64.158870
	 D(18,14,17,20)   =        -1.083473	     -62.078433
	 D(18,14,17,21)   =         1.012215	      57.995647
	 D(18,14,17,22)   =         3.107909	     178.070053
	 D(19,14,17,20)   =        -3.106452	    -177.986585
	 D(19,14,17,21)   =        -1.010764	     -57.912505
	 D(19,14,17,22)   =         1.084930	      62.161901

	Current energy   :      -387.2741220553

	Energy change for the previous step:
		Projected    :        -0.0000003830
		Actual       :        -0.0000009602
	Energy ratio indicates good step: Trust radius increased to 3.750e-01.


	Performing BFGS update.
	Previous computed or guess Hessian on step 1.
	Steps to be used in Hessian update: 4 3
	Taking RFO optimization step.
	Going to follow RFO solution 1.
	Using RFO vector 1.
	Norm of target step-size    0.01515
	Projected energy change by RFO approximation:        -0.0000067612

	Back-transformation to cartesian coordinates...
	Could not converge backtransformation.
	Using first guess instead.

	Back-transformation to cartesian coordinates to adjust frozen coordinates...
	Successfully converged to displaced geometry.

	--- Internal Coordinate Step in ANG or DEG, aJ/ANG or AJ/DEG ---
	 ---------------------------------------------------------------------------
	   Coordinate                Previous        Force       Change         New 
	   ----------                --------       ------       ------       ------
	    1 R(1,2)          =      1.187313     0.000805     0.000055     1.187368
	    2 R(2,3)          =      1.516424     0.000461     0.000114     1.516539
	    3 R(2,4)          =      1.512220     0.000183     0.000063     1.512283
	    4 R(3,5)          =      1.523271     0.001164     0.000192     1.523463
	    5 R(3,6)          =      1.087452     0.000074     0.000023     1.087475
	    6 R(3,7)          =      1.087081     0.000337     0.000016     1.087097
	    7 R(4,23)         =      1.084376     0.000434     0.000075     1.084451
	    8 R(4,24)         =      1.079053     0.000304     0.000051     1.079105
	    9 R(4,25)         =      1.084422     0.000175     0.000033     1.084455
	   10 R(5,8)          =      1.527218    -0.000274     0.000007     1.527225
	   11 R(5,9)          =      1.084606    -0.000004    -0.000006     1.084601
	   12 R(5,10)         =      1.082591     0.000331     0.000033     1.082624
	   13 R(8,11)         =      1.525779     0.000064     0.000035     1.525813
	   14 R(8,12)         =      1.087881     0.000484     0.000066     1.087947
	   15 R(8,13)         =      1.087712    -0.000243    -0.000014     1.087698
	   16 R(11,14)        =      1.526010     0.000025     0.000008     1.526017
	   17 R(11,15)        =      1.087306     0.000074     0.000022     1.087329
	   18 R(11,16)        =      1.087240     0.000225     0.000034     1.087274
	   19 R(14,17)        =      1.525020     0.000126     0.000038     1.525059
	   20 R(14,18)        =      1.086719     0.000066     0.000018     1.086736
	   21 R(14,19)        =      1.086662     0.000221     0.000033     1.086695
	   22 R(17,20)        =      1.084915     0.000167     0.000027     1.084942
	   23 R(17,21)        =      1.083997     0.000003     0.000002     1.083999
	   24 R(17,22)        =      1.084892     0.000139     0.000026     1.084918
	   25 B(1,2,3)        =    122.457836    -0.000001    -0.003633   122.454204
	   26 B(1,2,4)        =    121.374293    -0.000000     0.001564   121.375857
	   27 B(2,3,5)        =    114.411182     0.000005     0.005619   114.416800
	   28 B(2,3,6)        =    106.681471    -0.000005    -0.058021   106.623450
	   29 B(2,3,7)        =    107.571683     0.000000     0.018572   107.590255
	   30 B(2,4,23)       =    110.175987    -0.000002    -0.006061   110.169926
	   31 B(2,4,24)       =    109.837961     0.000001     0.006081   109.844042
	   32 B(2,4,25)       =    110.174140     0.000000    -0.000736   110.173404
	   33 B(3,2,4)        =    116.167589     0.000001     0.002099   116.169688
	   34 B(3,5,8)        =    112.447774    -0.000001    -0.007249   112.440525
	   35 B(3,5,9)        =    109.057533     0.000004     0.006293   109.063826
	   36 B(3,5,10)       =    109.456898    -0.000001     0.021042   109.477940
	   37 B(5,3,6)        =    110.688291    -0.000000    -0.009350   110.678940
	   38 B(5,3,7)        =    111.084371    -0.000001     0.024130   111.108501
	   39 B(5,8,11)       =    113.132266     0.000001     0.001865   113.134131
	   40 B(5,8,12)       =    109.522431     0.000004     0.026010   109.548441
	   41 B(5,8,13)       =    109.393418    -0.000006    -0.037247   109.356172
	   42 B(6,3,7)        =    105.954425    -0.000000     0.017800   105.972226
	   43 B(8,5,9)        =    109.062820    -0.000004    -0.055418   109.007402
	   44 B(8,5,10)       =    110.006475     0.000004     0.019569   110.026044
	   45 B(8,11,14)      =    113.457710    -0.000000     0.000347   113.458057
	   46 B(8,11,15)      =    109.263659    -0.000000     0.003243   109.266902
	   47 B(8,11,16)      =    109.229691     0.000000    -0.001807   109.227884
	   48 B(9,5,10)       =    106.634341    -0.000001     0.016575   106.650916
	   49 B(11,8,12)      =    109.183715    -0.000001     0.012907   109.196622
	   50 B(11,8,13)      =    109.200039     0.000002    -0.006600   109.193439
	   51 B(11,14,17)     =    113.147262    -0.000000    -0.000244   113.147019
	   52 B(11,14,18)     =    109.294689    -0.000001    -0.004628   109.290061
	   53 B(11,14,19)     =    109.283030     0.000001     0.002669   109.285698
	   54 B(12,8,13)      =    106.171159     0.000000     0.003134   106.174293
	   55 B(14,11,15)     =    109.219085     0.000001     0.003305   109.222390
	   56 B(14,11,16)     =    109.249912    -0.000001    -0.005385   109.244527
	   57 B(14,17,20)     =    111.137242     0.000000     0.001216   111.138457
	   58 B(14,17,21)     =    111.266052    -0.000000    -0.000451   111.265601
	   59 B(14,17,22)     =    111.134008     0.000000     0.000946   111.134954
	   60 B(15,11,16)     =    106.162409     0.000000     0.000294   106.162703
	   61 B(17,14,18)     =    109.326750     0.000000     0.000185   109.326935
	   62 B(17,14,19)     =    109.318673    -0.000000     0.001765   109.320438
	   63 B(18,14,19)     =    106.236594    -0.000000     0.000287   106.236881
	   64 B(20,17,21)     =    107.745288    -0.000000    -0.001202   107.744086
	   65 B(20,17,22)     =    107.639233    -0.000000     0.000323   107.639556
	   66 B(21,17,22)     =    107.747266    -0.000000    -0.000931   107.746335
	   67 B(23,4,24)      =    109.663493     0.000000    -0.001023   109.662471
	   68 B(23,4,25)      =    107.274288     0.000001     0.001257   107.275545
	   69 B(24,4,25)      =    109.676443    -0.000000     0.000332   109.676775
	   70 D(1,2,3,5)      =     -0.361396     0.000000    -0.066580    -0.427975
	   71 D(1,2,3,6)      =    122.391343     0.000000    -0.117322   122.274021
	   72 D(1,2,3,7)      =   -124.287258    -0.000000    -0.115832  -124.403090
	   73 D(1,2,4,23)     =   -120.765854    -0.000000    -0.053853  -120.819707
	   74 D(1,2,4,24)     =      0.143143    -0.000000    -0.055088     0.088055
	   75 D(1,2,4,25)     =    121.067055    -0.000000    -0.051228   121.015827
	   76 D(2,3,5,8)      =   -168.341798    -0.000002    -0.149181  -168.490979
	   77 D(2,3,5,9)      =     70.554118    -0.000001    -0.078784    70.475334
	   78 D(2,3,5,10)     =    -45.756915    -0.000001    -0.114017   -45.870932
	   79 D(3,2,4,23)     =     59.045589     0.000000    -0.043281    59.002307
	   80 D(3,2,4,24)     =    179.954586    -0.000000    -0.044517   179.910069
	   81 D(3,2,4,25)     =    -59.121502     0.000000    -0.040657   -59.162159
	   82 D(3,5,8,11)     =   -178.186055    -0.000000    -0.128235  -178.314289
	   83 D(3,5,8,12)     =    -56.140657    -0.000000    -0.091465   -56.232122
	   84 D(3,5,8,13)     =     59.841067    -0.000000    -0.094111    59.746956
	   85 D(4,2,3,5)      =    179.829396     0.000000    -0.077286   179.752110
	   86 D(4,2,3,6)      =    -57.417866    -0.000000    -0.128029   -57.545895
	   87 D(4,2,3,7)      =     55.903534    -0.000001    -0.126539    55.776995
	   88 D(5,8,11,14)    =   -179.829585     0.000001     0.252460  -179.577125
	   89 D(5,8,11,15)    =     58.045060     0.000001     0.245593    58.290653
	   90 D(5,8,11,16)    =    -57.689400     0.000001     0.244444   -57.444956
	   91 D(6,3,5,8)      =     71.104107    -0.000001    -0.070397    71.033710
	   92 *D(6,3,5,9)     =    -49.999977    -0.000000     0.000000   -49.999977
	   93 D(6,3,5,10)     =   -166.311010    -0.000000    -0.035233  -166.346243
	   94 D(7,3,5,8)      =    -46.315283    -0.000001    -0.101689   -46.416971
	   95 D(7,3,5,9)      =   -167.419367     0.000000    -0.031292  -167.450659
	   96 D(7,3,5,10)     =     76.269600     0.000000    -0.066525    76.203075
	   97 D(8,11,14,17)   =   -179.974461    -0.000000    -0.030426  -180.004887
	   98 D(8,11,14,18)   =    -57.900199    -0.000000    -0.033705   -57.933904
	   99 D(8,11,14,19)   =     57.970079    -0.000000    -0.034456    57.935624
	  100 D(9,5,8,11)     =    -57.084999    -0.000000    -0.163268   -57.248266
	  101 D(9,5,8,12)     =     64.960399     0.000000    -0.126498    64.833901
	  102 D(9,5,8,13)     =   -179.057877     0.000000    -0.129144  -179.187021
	  103 D(10,5,8,11)    =     59.539319    -0.000001    -0.164310    59.375009
	  104 D(10,5,8,12)    =   -178.415283    -0.000000    -0.127540  -178.542824
	  105 D(10,5,8,13)    =    -62.433559    -0.000000    -0.130186   -62.563745
	  106 D(11,14,17,20)  =     59.977896    -0.000000    -0.033683    59.944213
	  107 D(11,14,17,21)  =   -179.948024    -0.000000    -0.034690  -179.982714
	  108 D(11,14,17,22)  =    -59.873618    -0.000000    -0.035534   -59.909152
	  109 D(12,8,11,14)   =     57.935659     0.000000     0.208459    58.144118
	  110 D(12,8,11,15)   =    -64.189696    -0.000000     0.201592   -63.988104
	  111 D(12,8,11,16)   =   -179.924156    -0.000000     0.200444  -179.723713
	  112 D(13,8,11,14)   =    -57.748465    -0.000000     0.201221   -57.547243
	  113 D(13,8,11,15)   =   -179.873819    -0.000000     0.194354  -179.679465
	  114 D(13,8,11,16)   =     64.391720    -0.000000     0.193206    64.584926
	  115 D(15,11,14,17)  =    -57.824340     0.000000    -0.023596   -57.847935
	  116 D(15,11,14,18)  =     64.249922    -0.000000    -0.026875    64.223048
	  117 D(15,11,14,19)  =   -179.879800    -0.000000    -0.027625  -179.907425
	  118 D(16,11,14,17)  =     57.896590     0.000000    -0.024398    57.872192
	  119 D(16,11,14,18)  =    179.970852    -0.000000    -0.027677   179.943175
	  120 D(16,11,14,19)  =    -64.158870     0.000000    -0.028428   -64.187298
	  121 D(18,14,17,20)  =    -62.078433     0.000000    -0.027711   -62.106144
	  122 D(18,14,17,21)  =     57.995647     0.000000    -0.028717    57.966930
	  123 D(18,14,17,22)  =    178.070053     0.000000    -0.029562   178.040491
	  124 D(19,14,17,20)  =   -177.986585     0.000000    -0.029147  -178.015732
	  125 D(19,14,17,21)  =    -57.912505     0.000000    -0.030154   -57.942659
	  126 D(19,14,17,22)  =     62.161901    -0.000000    -0.030999    62.130903
	 ---------------------------------------------------------------------------
	Successfully symmetrized geometry.

  ==> Convergence Check <==

  Measures of convergence in internal coordinates in au.
  Criteria marked as inactive (o), active & met (*), and active & unmet ( ).
  ---------------------------------------------------------------------------------------------
   Step     Total Energy     Delta E     MAX Force     RMS Force      MAX Disp      RMS Disp   
  ---------------------------------------------------------------------------------------------
    Convergence Criteria    1.00e-06 *    3.00e-04 *             o    1.20e-03 *             o
  ---------------------------------------------------------------------------------------------
      5    -387.27412206   -9.60e-07 *    1.41e-04 *    2.94e-05 o    4.41e-03      1.35e-03 o  ~
  ---------------------------------------------------------------------------------------------


  **** Optimization is complete! (in 5 steps) ****

  ==> Optimization Summary <==

  Measures of convergence in internal coordinates in au.
  --------------------------------------------------------------------------------------------------------------- ~
   Step         Total Energy             Delta E       MAX Force       RMS Force        MAX Disp        RMS Disp  ~
  --------------------------------------------------------------------------------------------------------------- ~
      1    -387.274027013487   -387.274027013487      0.00125766      0.00026679      0.05598272      0.01518142  ~
      2    -387.274102569582     -0.000075556095      0.00105655      0.00019100      0.02838586      0.00932123  ~
      3    -387.274059143022      0.000043426560      0.00092762      0.00023236      0.01992116      0.00540677  ~
      4    -387.274121095077     -0.000061952056      0.00014349      0.00003655      0.01099309      0.00352873  ~
      5    -387.274122055314     -0.000000960237      0.00014132      0.00002943      0.00440626      0.00134924  ~
  --------------------------------------------------------------------------------------------------------------- ~

	Writing optimization data to binary file.
	Final energy is   -387.2741220553145
	Final (previous) structure:
	Cartesian Geometry (in Angstrom)
	    O     2.8629375472   1.3263546379  -0.2700324423
	    C     2.8274588070   0.1396735132  -0.2545098694
	    C     1.5245745719  -0.6350876469  -0.2123182139
	    C     4.0939406795  -0.6862532736  -0.2805716429
	    C     0.2750329586   0.2356249489  -0.1830018175
	    H     1.5195374373  -1.2850661111  -1.0841291725
	    H     1.5624097758  -1.2940310098   0.6514570382
	    C    -0.9849275619  -0.5633096322   0.1434892509
	    H     0.1521646213   0.7114105536  -1.1499052370
	    H     0.4067209119   1.0311540492   0.5393520048
	    C    -2.2525021880   0.2859016402   0.1336870194
	    H    -1.0943852130  -1.3772045605  -0.5700090566
	    H    -0.8741395592  -1.0293732905   1.1200281457
	    C    -3.5156945984  -0.5043718518   0.4631077527
	    H    -2.3654579896   0.7505381946  -0.8428317899
	    H    -2.1433752631   1.1003861382   0.8455840923
	    C    -4.7782226289   0.3509391786   0.4507360134
	    H    -3.6257608404  -1.3183974832  -0.2483731417
	    H    -3.4047634228  -0.9674714596   1.4398716988
	    H    -4.9368673973   0.8002165276  -0.5239543613
	    H    -5.6554819197  -0.2395255303   0.6891010022
	    H    -4.7133371008   1.1546514978   1.1765645316
	    H     4.0980930282  -1.3373053961  -1.1477423224
	    H     4.9545834457  -0.0360603839  -0.3105574602
	    H     4.1453994797  -1.3198208794   0.5980150998
	Saving final (previous) structure.
			--------------------------
			 OPTKING Finished Execution 
			--------------------------

    Final optimized geometry and variables:
    Molecular point group: c1
    Full point group: C1

    Geometry (in Angstrom), charge = 0, multiplicity = 1:

    O            2.862937547181     1.326354637867    -0.270032442292
    C            2.827458806974     0.139673513175    -0.254509869381
    C            1.524574571874    -0.635087646854    -0.212318213887
    C            4.093940679483    -0.686253273641    -0.280571642902
    C            0.275032958585     0.235624948923    -0.183001817470
    H            1.519537437343    -1.285066111125    -1.084129172491
    H            1.562409775770    -1.294031009849     0.651457038159
    C           -0.984927561945    -0.563309632200     0.143489250872
    H            0.152164621332     0.711410553557    -1.149905236987
    H            0.406720911862     1.031154049216     0.539352004786
    C           -2.252502187986     0.285901640159     0.133687019432
    H           -1.094385213036    -1.377204560515    -0.570009056579
    H           -0.874139559157    -1.029373290477     1.120028145713
    C           -3.515694598419    -0.504371851837     0.463107752679
    H           -2.365457989567     0.750538194630    -0.842831789868
    H           -2.143375263141     1.100386138172     0.845584092315
    C           -4.778222628874     0.350939178585     0.450736013414
    H           -3.625760840445    -1.318397483237    -0.248373141660
    H           -3.404763422781    -0.967471459561     1.439871698829
    H           -4.936867397328     0.800216527592    -0.523954361341
    H           -5.655481919655    -0.239525530298     0.689101002215
    H           -4.713337100824     1.154651497842     1.176564531553
    H            4.098093028220    -1.337305396142    -1.147742322411
    H            4.954583445749    -0.036060383926    -0.310557460202
    H            4.145399479653    -1.319820879424     0.598015099812

	Cleaning optimization helper files.


Properties will be evaluated at   0.000000,   0.000000,   0.000000 Bohr

Properties computed using the  density matrix

  Nuclear Dipole Moment: (a.u.)
     X:   -11.2121      Y:    -4.3584      Z:     1.1072

  Electronic Dipole Moment: (a.u.)
     X:    11.1180      Y:     3.1969      Z:    -1.0884

  Dipole Moment: (a.u.)
     X:    -0.0941      Y:    -1.1615      Z:     0.0188     Total:     1.1655

  Dipole Moment: (Debye)
     X:    -0.2392      Y:    -2.9523      Z:     0.0479     Total:     2.9623

  Quadrupole Moment: (Debye Ang)
    XX:   -58.9856     YY:   -62.9253     ZZ:   -56.8951
    XY:    -8.6327     XZ:     0.2951     YZ:     1.0767

  Traceless Quadrupole Moment: (Debye Ang)
    XX:     0.6164     YY:    -3.3233     ZZ:     2.7069
    XY:    -8.6327     XZ:     0.2951     YZ:     1.0767

  Mulliken Charges: (a.u.)
   Center  Symbol    Alpha    Beta     Spin     Total
       1     O     4.17051  4.17051  0.00000 -0.34103
       2     C     2.86220  2.86220  0.00000  0.27559
       3     C     3.11402  3.11402  0.00000 -0.22804
       4     C     3.15144  3.15144  0.00000 -0.30289
       5     C     3.08398  3.08398  0.00000 -0.16795
       6     H     0.44457  0.44457  0.00000  0.11085
       7     H     0.44586  0.44586  0.00000  0.10829
       8     C     3.09055  3.09055  0.00000 -0.18110
       9     H     0.44936  0.44936  0.00000  0.10129
      10     H     0.44225  0.44225  0.00000  0.11549
      11     C     3.08637  3.08637  0.00000 -0.17274
      12     H     0.45627  0.45627  0.00000  0.08746
      13     H     0.45573  0.45573  0.00000  0.08853
      14     C     3.08414  3.08414  0.00000 -0.16827
      15     H     0.45418  0.45418  0.00000  0.09165
      16     H     0.45340  0.45340  0.00000  0.09319
      17     C     3.15040  3.15040  0.00000 -0.30080
      18     H     0.45528  0.45528  0.00000  0.08943
      19     H     0.45510  0.45510  0.00000  0.08980
      20     H     0.45492  0.45492  0.00000  0.09016
      21     H     0.44868  0.44868  0.00000  0.10263
      22     H     0.45467  0.45467  0.00000  0.09065
      23     H     0.45028  0.45028  0.00000  0.09944
      24     H     0.43534  0.43534  0.00000  0.12933
      25     H     0.45048  0.45048  0.00000  0.09904

   Total alpha = 36.00000, Total beta = 36.00000, Total charge =  0.00000


*** Psi4 exiting successfully. Buy a developer a beer!
