    -----------------------------------------------------------------------
          Psi4: An Open-Source Ab Initio Electronic Structure Package
                              Psi4 (no tag) Driver

                          Git: Rev {detached?}  

    J. M. Turney, A. C. Simmonett, R. M. Parrish, E. G. Hohenstein,
    F. A. Evangelista, J. T. Fermann, B. J. Mintz, L. A. Burns, J. J. Wilke,
    M. L. Abrams, N. J. Russ, M. L. Leininger, C. L. Janssen, E. T. Seidl,
    W. D. Allen, H. F. Schaefer, R. A. King, E. F. Valeev, C. D. Sherrill,
    and T. D. Crawford, WIREs Comput. Mol. Sci. 2, 556-565 (2012)
    (doi: 10.1002/wcms.93)

                         Additional Contributions by
    A. E. DePrince, M. Saitow, U. Bozkaya, A. Yu. Sokolov
    -----------------------------------------------------------------------


    Psi4 started on: Fri Sep  2 12:44:50 2016

    Process ID:  12720
    PSI4DATADIR: /export131/home/mjharvey/miniconda3/share
    Memory level set to 256.000 MB

  ==> Input File <==

--------------------------------------------------------------------------
set {
	reference rhf
	basis 6-31G*
}


set_num_threads( 4 )
memory 2 gb

molecule MOL {
0 1

H	 -3.519146	 1.078596	 1.338418
O	 -2.659361	 1.365404	 1.065862
C	 -2.026376	 0.340750	 0.341611
C	 -0.673256	 0.843270	 -0.132153
H	 -1.892241	 -0.539286	 0.968094
H	 -2.633610	 0.045723	 -0.513304
C	 0.486613	 -0.083066	 0.235839
H	 -0.715586	 0.970948	 -1.210718
H	 -0.508072	 1.829858	 0.297090
C	 1.840406	 0.433480	 -0.254303
H	 0.300215	 -1.068318	 -0.178947
H	 0.519509	 -0.203625	 1.318070
C	 3.000220	 -0.489290	 0.118523
H	 1.809207	 0.553576	 -1.335192
H	 2.021860	 1.424500	 0.157276
H	 2.864959	 -1.479103	 -0.307933
H	 3.946603	 -0.099227	 -0.243630
H	 3.080049	 -0.602997	 1.196117

	symmetry c1
}
set optking {
	frozen_dihedral = ("
		2 3 4 8
	")
}

ee = optimize('scf')
oeprop('DIPOLE', 'QUADRUPOLE', 'MULLIKEN_CHARGES')
f=open( 'psi4out.xyz', 'w' )
f.write( "18  " )
f.write( str(ee) + "\n" )
f.write( MOL.save_string_xyz() )
f.close()
--------------------------------------------------------------------------

  Memory set to   2.000 GiB by Python script.
gradient() will perform analytic gradient computation.

*** tstart() called on cx1-1-1-4.cx1.hpc.ic.ac.uk
*** at Fri Sep  2 12:44:51 2016


         ---------------------------------------------------------
                                   SCF
            by Justin Turney, Rob Parrish, and Andy Simmonett
                              RHF Reference
                        4 Threads,   2000 MiB Core
         ---------------------------------------------------------

  ==> Geometry <==

    Molecular point group: c1
    Full point group: C1

    Geometry (in Angstrom), charge = 0, multiplicity = 1:

       Center              X                  Y                   Z               Mass       
    ------------   -----------------  -----------------  -----------------  -----------------
           H         -3.454552624577     0.666434203320     1.085723721775     1.007825032070
           O         -2.594767624577     0.953242203320     0.813167721775    15.994914619560
           C         -1.961782624577    -0.071411796680     0.088916721775    12.000000000000
           C         -0.608662624577     0.431108203320    -0.384847278225    12.000000000000
           H         -1.827647624577    -0.951447796680     0.715399721775     1.007825032070
           H         -2.569016624577    -0.366438796680    -0.765998278225     1.007825032070
           C          0.551206375423    -0.495227796680    -0.016855278225    12.000000000000
           H         -0.650992624577     0.558786203320    -1.463412278225     1.007825032070
           H         -0.443478624577     1.417696203320     0.044395721775     1.007825032070
           C          1.904999375423     0.021318203320    -0.506997278225    12.000000000000
           H          0.364808375423    -1.480479796680    -0.431641278225     1.007825032070
           H          0.584102375423    -0.615786796680     1.065375721775     1.007825032070
           C          3.064813375423    -0.901451796680    -0.134171278225    12.000000000000
           H          1.873800375423     0.141414203320    -1.587886278225     1.007825032070
           H          2.086453375423     1.012338203320    -0.095418278225     1.007825032070
           H          2.929552375423    -1.891264796680    -0.560627278225     1.007825032070
           H          4.011196375423    -0.511388796680    -0.496324278225     1.007825032070
           H          3.144642375423    -1.015158796680     0.943422721775     1.007825032070

  Running in c1 symmetry.

  Rotational constants: A =      0.43861  B =      0.03922  C =      0.03875 [cm^-1]
  Rotational constants: A =  13149.30365  B =   1175.91022  C =   1161.81558 [MHz]
  Nuclear repulsion =  245.976507111434586

  Charge       = 0
  Multiplicity = 1
  Electrons    = 50
  Nalpha       = 25
  Nbeta        = 25

  ==> Algorithm <==

  SCF Algorithm Type is DF.
  DIIS enabled.
  MOM disabled.
  Fractional occupation disabled.
  Guess Type is CORE.
  Energy threshold   = 1.00e-08
  Density threshold  = 1.00e-08
  Integral threshold = 0.00e+00

  ==> Primary Basis <==

  Basis Set: 6-31G*
    Number of shells: 60
    Number of basis function: 114
    Number of Cartesian functions: 114
    Spherical Harmonics?: false
    Max angular momentum: 2

  ==> Pre-Iterations <==

   -------------------------------------------------------
    Irrep   Nso     Nmo     Nalpha   Nbeta   Ndocc  Nsocc
   -------------------------------------------------------
     A        114     114       0       0       0       0
   -------------------------------------------------------
    Total     114     114      25      25      25       0
   -------------------------------------------------------

 OEINTS: Overlap, kinetic, potential, dipole, and quadrupole integrals
         stored in file 35.

  ==> Integral Setup <==

  ==> DFJK: Density-Fitted J/K Matrices <==

    J tasked:                  Yes
    K tasked:                  Yes
    wK tasked:                  No
    OpenMP threads:              4
    Integrals threads:           4
    Memory (MB):              1430
    Algorithm:                Core
    Integral Cache:           NONE
    Schwarz Cutoff:          1E-12
    Fitting Condition:       1E-12

   => Auxiliary Basis Set <=

  Basis Set: 
    Number of shells: 252
    Number of basis function: 786
    Number of Cartesian functions: 786
    Spherical Harmonics?: false
    Max angular momentum: 3

  Minimum eigenvalue in the overlap matrix is 3.3606214964E-03.
  Using Symmetric Orthogonalization.
  SCF Guess: Core (One-Electron) Hamiltonian.

  ==> Iterations <==

                           Total Energy        Delta E     RMS |[F,P]|

   @DF-RHF iter   1:  -209.15053023495872   -2.09151e+02   7.14555e-02 
   @DF-RHF iter   2:   -89.42468416056064    1.19726e+02   9.23053e-02 DIIS
   @DF-RHF iter   3:  -228.79885501098082   -1.39374e+02   3.93753e-02 DIIS
   @DF-RHF iter   4:  -161.93733062248018    6.68615e+01   7.45381e-02 DIIS
   @DF-RHF iter   5:  -212.40961650212515   -5.04723e+01   5.97599e-02 DIIS
   @DF-RHF iter   6:  -234.99982796811381   -2.25902e+01   4.73602e-02 DIIS
   @DF-RHF iter   7:  -263.40845875058744   -2.84086e+01   2.32481e-02 DIIS
   @DF-RHF iter   8:  -270.79971969687267   -7.39126e+00   7.64321e-03 DIIS
   @DF-RHF iter   9:  -271.12925447000475   -3.29535e-01   2.63678e-03 DIIS
   @DF-RHF iter  10:  -271.17091324518879   -4.16588e-02   4.51209e-04 DIIS
   @DF-RHF iter  11:  -271.17346600332462   -2.55276e-03   1.51546e-04 DIIS
   @DF-RHF iter  12:  -271.17373861696819   -2.72614e-04   5.05415e-05 DIIS
   @DF-RHF iter  13:  -271.17376639502447   -2.77781e-05   2.29098e-05 DIIS
   @DF-RHF iter  14:  -271.17377191259959   -5.51758e-06   5.27720e-06 DIIS
   @DF-RHF iter  15:  -271.17377220189564   -2.89296e-07   2.15183e-06 DIIS
   @DF-RHF iter  16:  -271.17377224982624   -4.79306e-08   3.75984e-07 DIIS
   @DF-RHF iter  17:  -271.17377225154144   -1.71519e-09   1.18852e-07 DIIS
   @DF-RHF iter  18:  -271.17377225167411   -1.32673e-10   2.98276e-08 DIIS
   @DF-RHF iter  19:  -271.17377225168605   -1.19371e-11   6.30329e-09 DIIS

  ==> Post-Iterations <==

    Orbital Energies (a.u.)
    -----------------------

    Doubly Occupied:                                                      

       1A    -20.551560     2A    -11.266110     3A    -11.214511  
       4A    -11.213903     5A    -11.209201     6A    -11.207750  
       7A     -1.358189     8A     -1.079156     9A     -1.010266  
      10A     -0.913175    11A     -0.818902    12A     -0.791381  
      13A     -0.700647    14A     -0.647003    15A     -0.626380  
      16A     -0.582116    17A     -0.571016    18A     -0.559535  
      19A     -0.527048    20A     -0.496743    21A     -0.489395  
      22A     -0.468802    23A     -0.463476    24A     -0.451631  
      25A     -0.427052  

    Virtual:                                                              

      26A      0.228372    27A      0.233939    28A      0.265601  
      29A      0.279646    30A      0.282686    31A      0.305931  
      32A      0.323370    33A      0.334649    34A      0.337661  
      35A      0.345988    36A      0.354200    37A      0.370325  
      38A      0.393515    39A      0.428074    40A      0.455659  
      41A      0.466936    42A      0.480768    43A      0.704813  
      44A      0.722290    45A      0.753666    46A      0.756013  
      47A      0.781579    48A      0.824938    49A      0.838512  
      50A      0.867461    51A      0.936368    52A      0.955097  
      53A      0.988689    54A      1.019891    55A      1.031891  
      56A      1.045944    57A      1.105374    58A      1.127536  
      59A      1.131752    60A      1.137351    61A      1.160289  
      62A      1.177601    63A      1.187237    64A      1.196708  
      65A      1.213485    66A      1.222231    67A      1.230108  
      68A      1.245584    69A      1.260130    70A      1.270748  
      71A      1.300668    72A      1.355768    73A      1.465644  
      74A      1.513155    75A      1.633495    76A      1.670908  
      77A      1.729368    78A      1.751801    79A      1.825594  
      80A      1.887043    81A      1.963603    82A      2.016827  
      83A      2.048175    84A      2.140684    85A      2.150976  
      86A      2.206479    87A      2.235374    88A      2.276889  
      89A      2.289040    90A      2.325345    91A      2.356980  
      92A      2.382497    93A      2.402686    94A      2.479234  
      95A      2.564094    96A      2.627311    97A      2.645655  
      98A      2.684547    99A      2.732214   100A      2.765687  
     101A      2.804137   102A      2.818768   103A      2.896246  
     104A      2.933246   105A      2.949567   106A      3.079891  
     107A      3.170885   108A      3.236033   109A      4.178743  
     110A      4.563576   111A      4.656711   112A      4.760337  
     113A      4.873510   114A      4.997377  

    Final Occupation by Irrep:
              A 
    DOCC [    25 ]

  Energy converged.

  @DF-RHF Final Energy:  -271.17377225168605

   => Energetics <=

    Nuclear Repulsion Energy =            245.9765071114345858
    One-Electron Energy =                -855.0106637235840026
    Two-Electron Energy =                 337.8603843604635699
    DFT Exchange-Correlation Energy =       0.0000000000000000
    Empirical Dispersion Energy =           0.0000000000000000
    PCM Polarization Energy =               0.0000000000000000
    EFP Energy =                            0.0000000000000000
    Total Energy =                       -271.1737722516858753

    Alert: EFP and PCM quantities not currently incorporated into SCF psivars.

Properties will be evaluated at   0.000000,   0.000000,   0.000000 Bohr
  ==> Properties <==


Properties computed using the SCF density matrix

  Nuclear Dipole Moment: (a.u.)
     X:     5.6582      Y:    -2.8409      Z:    -1.4463

  Electronic Dipole Moment: (a.u.)
     X:    -5.9196      Y:     2.2754      Z:     1.3145

  Dipole Moment: (a.u.)
     X:    -0.2615      Y:    -0.5655      Z:    -0.1318     Total:     0.6368

  Dipole Moment: (Debye)
     X:    -0.6646      Y:    -1.4374      Z:    -0.3351     Total:     1.6187


  Saving occupied orbitals to File 180.

*** tstop() called on cx1-1-1-4.cx1.hpc.ic.ac.uk at Fri Sep  2 12:44:56 2016
Module time:
	user time   =      16.77 seconds =       0.28 minutes
	system time =       0.21 seconds =       0.00 minutes
	total time  =          5 seconds =       0.08 minutes
Total time:
	user time   =      16.77 seconds =       0.28 minutes
	system time =       0.21 seconds =       0.00 minutes
	total time  =          5 seconds =       0.08 minutes

*** tstart() called on cx1-1-1-4.cx1.hpc.ic.ac.uk
*** at Fri Sep  2 12:44:56 2016


         ------------------------------------------------------------
                                   SCF GRAD                          
                          Rob Parrish, Justin Turney,                
                       Andy Simmonett, and Alex Sokolov              
         ------------------------------------------------------------

  ==> Geometry <==

    Molecular point group: c1
    Full point group: C1

    Geometry (in Angstrom), charge = 0, multiplicity = 1:

       Center              X                  Y                   Z               Mass       
    ------------   -----------------  -----------------  -----------------  -----------------
           H         -3.454552624577     0.666434203320     1.085723721775     1.007825032070
           O         -2.594767624577     0.953242203320     0.813167721775    15.994914619560
           C         -1.961782624577    -0.071411796680     0.088916721775    12.000000000000
           C         -0.608662624577     0.431108203320    -0.384847278225    12.000000000000
           H         -1.827647624577    -0.951447796680     0.715399721775     1.007825032070
           H         -2.569016624577    -0.366438796680    -0.765998278225     1.007825032070
           C          0.551206375423    -0.495227796680    -0.016855278225    12.000000000000
           H         -0.650992624577     0.558786203320    -1.463412278225     1.007825032070
           H         -0.443478624577     1.417696203320     0.044395721775     1.007825032070
           C          1.904999375423     0.021318203320    -0.506997278225    12.000000000000
           H          0.364808375423    -1.480479796680    -0.431641278225     1.007825032070
           H          0.584102375423    -0.615786796680     1.065375721775     1.007825032070
           C          3.064813375423    -0.901451796680    -0.134171278225    12.000000000000
           H          1.873800375423     0.141414203320    -1.587886278225     1.007825032070
           H          2.086453375423     1.012338203320    -0.095418278225     1.007825032070
           H          2.929552375423    -1.891264796680    -0.560627278225     1.007825032070
           H          4.011196375423    -0.511388796680    -0.496324278225     1.007825032070
           H          3.144642375423    -1.015158796680     0.943422721775     1.007825032070

  Nuclear repulsion =  245.976507111434586

  ==> Basis Set <==

  Basis Set: 6-31G*
    Number of shells: 60
    Number of basis function: 114
    Number of Cartesian functions: 114
    Spherical Harmonics?: false
    Max angular momentum: 2

  ==> DFJKGrad: Density-Fitted SCF Gradients <==

    Gradient:                    1
    J tasked:                  Yes
    K tasked:                  Yes
    wK tasked:                  No
    OpenMP threads:              4
    Integrals threads:           4
    Memory (MB):              1430
    Schwarz Cutoff:          0E+00
    Fitting Condition:       1E-12

   => Auxiliary Basis Set <=

  Basis Set: 
    Number of shells: 252
    Number of basis function: 786
    Number of Cartesian functions: 786
    Spherical Harmonics?: false
    Max angular momentum: 3


  -Total Gradient:
     Atom            X                  Y                   Z
    ------   -----------------  -----------------  -----------------
       1        0.000362043927     0.000282636978    -0.000139694292
       2        0.001487720930    -0.000266653869     0.000242833709
       3        0.004114672366     0.002733666534    -0.002961514420
       4       -0.005112818001    -0.004821391753     0.003402359102
       5        0.002329407254    -0.000025468718    -0.000805046189
       6        0.000821896100     0.000556724068    -0.002253620422
       7       -0.000758556563    -0.003974804733    -0.000149713156
       8       -0.003895479867    -0.001783726161    -0.000035003319
       9        0.000827319335     0.002728911311     0.000776667543
      10       -0.000417276469     0.001045351935     0.000458531524
      11       -0.000887055346     0.002994131843     0.000840215940
      12        0.000596197196     0.000051953074     0.000635341592
      13       -0.000105445979    -0.000061066545    -0.000093026631
      14       -0.000041761172    -0.000119242001     0.000013747135
      15        0.000713932929     0.000452097109    -0.000063296845
      16       -0.000138288351     0.000184759554     0.000066915707
      17        0.000107545512     0.000062751783    -0.000023582615
      18       -0.000004053798    -0.000040630407     0.000087885636


*** tstop() called on cx1-1-1-4.cx1.hpc.ic.ac.uk at Fri Sep  2 12:45:01 2016
Module time:
	user time   =      17.24 seconds =       0.29 minutes
	system time =       0.18 seconds =       0.00 minutes
	total time  =          5 seconds =       0.08 minutes
Total time:
	user time   =      34.03 seconds =       0.57 minutes
	system time =       0.39 seconds =       0.01 minutes
	total time  =         10 seconds =       0.17 minutes
CURRENT ENERGY: -271.1737722517

			-----------------------------------------
			 OPTKING 2.0: for geometry optimizations 
			  - R.A. King,  Bethel University        
			-----------------------------------------

	Internal coordinates to be generated automatically.
	Detected frag with atoms:  1 2 3 4 5 6 7 8 9 10 11 12 13 14 15 16 17 18
	---Fragment 1 Bond Connectivity---
	 1 : 2
	 2 : 1 3
	 3 : 2 4 5 6
	 4 : 3 7 8 9
	 5 : 3
	 6 : 3
	 7 : 4 10 11 12
	 8 : 4
	 9 : 4
	 10 : 7 13 14 15
	 11 : 7
	 12 : 7
	 13 : 10 16 17 18
	 14 : 10
	 15 : 10
	 16 : 13
	 17 : 13
	 18 : 13

	Assuming in current code that numbering for constraints corresponds to unified fragment.
	Frozen dihedral atom list: 
	     2     3     4     8
	---Fragment 1 Geometry and Gradient---
	 H          -6.5281583721        1.2593781299        2.0517204901
	 O          -4.9034001889        1.8013667026        1.5366642943
	 C          -3.7072318927       -0.1349487384        0.1680282528
	 C          -1.1502056678        0.8146764379       -0.7272559588
	 H          -3.4537534779       -1.7979757655        1.3519095497
	 H          -4.8547378513       -0.6924689702       -1.4475269641
	 C           1.0416290923       -0.9358449091       -0.0318518597
	 H          -1.2301977750        1.0559528911       -2.7654484253
	 H          -0.8380531462        2.6790575639        0.0838957556
	 C           3.5999271029        0.0402855659       -0.9580860060
	 H           0.6893879205       -2.7977013610       -0.8156838035
	 H           1.1037935231       -1.1636684020        2.0132683428
	 C           5.7916579280       -1.7034970177       -0.2535469707
	 H           3.5409695372        0.2672341156       -3.0006701960
	 H           3.9428254686        1.9130419581       -0.1803144139
	 H           5.5360516815       -3.5739725105       -1.0594320185
	 H           7.5800626148       -0.9663847732       -0.9379169589
	 H           5.9425128754       -1.9183721071        1.7828105717
	             0.0003620439        0.0002826370       -0.0001396943
	             0.0014877209       -0.0002666539        0.0002428337
	             0.0041146724        0.0027336665       -0.0029615144
	            -0.0051128180       -0.0048213918        0.0034023591
	             0.0023294073       -0.0000254687       -0.0008050462
	             0.0008218961        0.0005567241       -0.0022536204
	            -0.0007585566       -0.0039748047       -0.0001497132
	            -0.0038954799       -0.0017837262       -0.0000350033
	             0.0008273193        0.0027289113        0.0007766675
	            -0.0004172765        0.0010453519        0.0004585315
	            -0.0008870553        0.0029941318        0.0008402159
	             0.0005961972        0.0000519531        0.0006353416
	            -0.0001054460       -0.0000610665       -0.0000930266
	            -0.0000417612       -0.0001192420        0.0000137471
	             0.0007139329        0.0004520971       -0.0000632968
	            -0.0001382884        0.0001847596        0.0000669157
	             0.0001075455        0.0000627518       -0.0000235826
	            -0.0000040538       -0.0000406304        0.0000878856

	Previous optimization step data not found.  Starting new optimization.

	---Fragment 1 Intrafragment Coordinates---
	 - Coordinate -           - BOHR/RAD -       - ANG/DEG -
	 R(1,2)           =         1.788540	       0.946454
	 R(2,3)           =         2.655805	       1.405392
	 R(3,4)           =         2.870837	       1.519182
	 R(3,5)           =         2.057057	       1.088548
	 R(3,6)           =         2.058547	       1.089336
	 R(4,7)           =         2.889992	       1.529318
	 R(4,8)           =         2.053982	       1.086920
	 R(4,9)           =         2.057018	       1.088527
	 R(7,10)          =         2.890611	       1.529645
	 R(7,11)          =         2.050604	       1.085133
	 R(7,12)          =         2.058709	       1.089422
	 R(10,13)         =         2.888051	       1.528291
	 R(10,14)         =         2.055999	       1.087988
	 R(10,15)         =         2.056629	       1.088321
	 R(13,16)         =         2.052672	       1.086228
	 R(13,17)         =         2.051850	       1.085792
	 R(13,18)         =         2.053212	       1.086513
	 B(1,2,3)         =         1.914121	     109.671063
	 B(2,3,4)         =         1.897270	     108.705567
	 B(2,3,5)         =         1.926599	     110.385969
	 B(2,3,6)         =         1.929255	     110.538190
	 B(3,4,7)         =         1.982442	     113.585545
	 B(3,4,8)         =         1.889806	     108.277886
	 B(3,4,9)         =         1.888087	     108.179400
	 B(4,3,5)         =         1.914681	     109.703128
	 B(4,3,6)         =         1.919142	     109.958758
	 B(4,7,10)        =         1.970976	     112.928616
	 B(4,7,11)        =         1.904675	     109.129851
	 B(4,7,12)        =         1.906008	     109.206186
	 B(5,3,6)         =         1.876964	     107.542121
	 B(7,4,8)         =         1.917144	     109.844236
	 B(7,4,9)         =         1.916668	     109.816971
	 B(7,10,13)       =         1.970981	     112.928889
	 B(7,10,14)       =         1.907348	     109.282984
	 B(7,10,15)       =         1.911214	     109.504488
	 B(8,4,9)         =         1.865802	     106.902585
	 B(10,7,11)       =         1.913625	     109.642615
	 B(10,7,12)       =         1.905997	     109.205597
	 B(10,13,16)      =         1.938982	     111.095484
	 B(10,13,17)      =         1.942479	     111.295867
	 B(10,13,18)      =         1.940023	     111.155108
	 B(11,7,12)       =         1.859209	     106.524834
	 B(13,10,14)      =         1.907914	     109.315442
	 B(13,10,15)      =         1.908185	     109.330960
	 B(14,10,15)      =         1.854566	     106.258811
	 B(16,13,17)      =         1.880676	     107.754774
	 B(16,13,18)      =         1.878809	     107.647803
	 B(17,13,18)      =         1.880059	     107.719467
	 D(1,2,3,4)       =         3.102385	     177.753579
	 D(1,2,3,5)       =        -1.079975	     -61.878037
	 D(1,2,3,6)       =         0.994437	      56.977049
	 D(2,3,4,7)       =         2.228861	     127.704304
	*D(2,3,4,8)       =        -1.919862	    -109.999993
	 D(2,3,4,9)       =         0.096250	       5.514735
	 D(3,4,7,10)      =         3.136521	     179.709424
	 D(3,4,7,11)      =         1.003525	      57.497755
	 D(3,4,7,12)      =        -1.022461	     -58.582704
	 D(4,7,10,13)     =         3.137389	     179.759149
	 D(4,7,10,14)     =        -1.018183	     -58.337615
	 D(4,7,10,15)     =         1.006651	      57.676847
	 D(5,3,4,7)       =         0.120677	       6.914303
	 D(5,3,4,8)       =         2.255140	     129.210006
	 D(5,3,4,9)       =        -2.011933	    -115.275266
	 D(6,3,4,7)       =        -1.940157	    -111.162792
	 D(6,3,4,8)       =         0.194306	      11.132910
	 D(6,3,4,9)       =         2.210418	     126.647638
	 D(7,10,13,16)    =         1.043549	      59.790955
	 D(7,10,13,17)    =         3.139305	     179.868943
	 D(7,10,13,18)    =        -1.048203	     -60.057585
	 D(8,4,7,10)      =         1.017258	      58.284587
	 D(8,4,7,11)      =        -1.115738	     -63.927081
	 D(8,4,7,12)      =         3.141461	     179.992460
	 D(9,4,7,10)      =        -1.029966	     -59.012724
	 D(9,4,7,11)      =         3.120223	     178.775607
	 D(9,4,7,12)      =         1.094237	      62.695148
	 D(11,7,10,13)    =        -1.017827	     -58.317182
	 D(11,7,10,14)    =         1.109786	      63.586055
	 D(11,7,10,15)    =         3.134620	     179.600516
	 D(12,7,10,13)    =         1.013180	      58.050945
	 D(12,7,10,14)    =         3.140793	     179.954182
	 D(12,7,10,15)    =        -1.117558	     -64.031357
	 D(14,10,13,16)   =        -1.083745	     -62.094017
	 D(14,10,13,17)   =         1.012011	      57.983971
	 D(14,10,13,18)   =         3.107689	     178.057443
	 D(15,10,13,16)   =        -3.107198	    -178.029347
	 D(15,10,13,17)   =        -1.011442	     -57.951359
	 D(15,10,13,18)   =         1.084235	      62.122113

	Current energy   :      -271.1737722517

	Generating empirical Hessian (Schlegel '84) for each fragment.
	Taking RFO optimization step.
	Going to follow RFO solution 1.
	Using RFO vector 1.
	Norm of target step-size    0.10617
	Projected energy change by RFO approximation:        -0.0011240086

	Back-transformation to cartesian coordinates...
	Successfully converged to displaced geometry.

	Back-transformation to cartesian coordinates to adjust frozen coordinates...
	Successfully converged to displaced geometry.

	--- Internal Coordinate Step in ANG or DEG, aJ/ANG or AJ/DEG ---
	 ---------------------------------------------------------------------------
	   Coordinate                Previous        Force       Change         New 
	   ----------                --------       ------       ------       ------
	    1 R(1,2)          =      0.946454     0.003747     0.000411     0.946865
	    2 R(2,3)          =      1.405392     0.006330     0.000907     1.406298
	    3 R(3,4)          =      1.519182     0.091036     0.019139     1.538320
	    4 R(3,5)          =      1.088548     0.001283     0.000235     1.088783
	    5 R(3,6)          =      1.089336    -0.009555    -0.001754     1.087583
	    6 R(4,7)          =      1.529318     0.005297     0.001150     1.530467
	    7 R(4,8)          =      1.086920     0.000190     0.000035     1.086955
	    8 R(4,9)          =      1.088527    -0.023935    -0.004381     1.084146
	    9 R(7,10)         =      1.529645    -0.003896    -0.000846     1.528799
	   10 R(7,11)         =      1.085133     0.023788     0.004305     1.089438
	   11 R(7,12)         =      1.089422    -0.005301    -0.000973     1.088449
	   12 R(10,13)        =      1.528291     0.001525     0.000330     1.528621
	   13 R(10,14)        =      1.087988     0.000211     0.000039     1.088026
	   14 R(10,15)        =      1.088321    -0.004175    -0.000764     1.087558
	   15 R(13,16)        =      1.086228     0.001462     0.000266     1.086493
	   16 R(13,17)        =      1.085792    -0.001023    -0.000186     1.085607
	   17 R(13,18)        =      1.086513    -0.000751    -0.000136     1.086377
	   18 B(1,2,3)        =    109.671063    -0.000018    -0.083846   109.587216
	   19 B(2,3,4)        =    108.705567     0.000097     0.418413   109.123980
	   20 B(2,3,5)        =    110.385969    -0.000121    -1.088025   109.297945
	   21 B(2,3,6)        =    110.538190    -0.000129    -0.466943   110.071247
	   22 B(3,4,7)        =    113.585545    -0.000011    -0.031432   113.554112
	   23 B(3,4,8)        =    108.277886     0.000264     2.221749   110.499635
	   24 B(3,4,9)        =    108.179400    -0.000089    -0.497837   107.681563
	   25 B(4,3,5)        =    109.703128     0.000136     0.840090   110.543218
	   26 B(4,3,6)        =    109.958758     0.000109     0.980796   110.939554
	   27 B(4,7,10)       =    112.928616     0.000065     0.286797   113.215413
	   28 B(4,7,11)       =    109.129851     0.000070     0.579745   109.709596
	   29 B(4,7,12)       =    109.206186    -0.000065    -0.274646   108.931540
	   30 B(5,3,6)        =    107.542121    -0.000092    -0.707734   106.834387
	   31 B(7,4,8)        =    109.844236    -0.000191    -1.376274   108.467962
	   32 B(7,4,9)        =    109.816971     0.000065    -0.171596   109.645375
	   33 B(7,10,13)      =    112.928889     0.000033     0.116519   113.045408
	   34 B(7,10,14)      =    109.282984     0.000004     0.111645   109.394629
	   35 B(7,10,15)      =    109.504488    -0.000053    -0.429423   109.075065
	   36 B(8,4,9)        =    106.902585    -0.000035    -0.126848   106.775737
	   37 B(10,7,11)      =    109.642615    -0.000103    -0.596164   109.046451
	   38 B(10,7,12)      =    109.205597     0.000030     0.196546   109.402143
	   39 B(10,13,16)     =    111.095484     0.000017     0.088798   111.184282
	   40 B(10,13,17)     =    111.295867    -0.000003    -0.027638   111.268229
	   41 B(10,13,18)     =    111.155108    -0.000003    -0.012055   111.143053
	   42 B(11,7,12)      =    106.524834    -0.000002    -0.222331   106.302504
	   43 B(13,10,14)     =    109.315442    -0.000013     0.085509   109.400951
	   44 B(13,10,15)     =    109.330960     0.000020     0.096003   109.426963
	   45 B(14,10,15)     =    106.258811     0.000008     0.013327   106.272138
	   46 B(16,13,17)     =    107.754774    -0.000008    -0.044150   107.710624
	   47 B(16,13,18)     =    107.647803    -0.000003     0.010606   107.658409
	   48 B(17,13,18)     =    107.719467     0.000000    -0.018434   107.701032
	   49 D(1,2,3,4)      =    177.753579    -0.000002     0.669303   178.422883
	   50 D(1,2,3,5)      =    -61.878037     0.000033     1.294251   -60.583786
	   51 D(1,2,3,6)      =     56.977049    -0.000029    -0.519880    56.457169
	   52 D(2,3,4,7)      =    127.704304     0.000014     0.160767   127.865072
	   53 *D(2,3,4,8)     =   -109.999993    -0.000000     0.000000  -109.999993
	   54 D(2,3,4,9)      =      5.514735     0.000011     0.755477     6.270212
	   55 D(3,4,7,10)     =    179.709424     0.000014    -0.131271   179.578153
	   56 D(3,4,7,11)     =     57.497755     0.000023     0.018163    57.515918
	   57 D(3,4,7,12)     =    -58.582704     0.000023     0.115715   -58.466989
	   58 D(4,7,10,13)    =    179.759149    -0.000006    -0.143162   179.615986
	   59 D(4,7,10,14)    =    -58.337615    -0.000004     0.125960   -58.211655
	   60 D(4,7,10,15)    =     57.676847    -0.000008    -0.036234    57.640613
	   61 D(5,3,4,7)      =      6.914303     0.000015     0.720180     7.634483
	   62 D(5,3,4,8)      =    129.210006     0.000001     0.559412   129.769418
	   63 D(5,3,4,9)      =   -115.275266     0.000013     1.314889  -113.960377
	   64 D(6,3,4,7)      =   -111.162792     0.000007     0.467831  -110.694961
	   65 D(6,3,4,8)      =     11.132910    -0.000007     0.307063    11.439973
	   66 D(6,3,4,9)      =    126.647638     0.000004     1.062540   127.710179
	   67 D(7,10,13,16)   =     59.790955     0.000004     0.333685    60.124641
	   68 D(7,10,13,17)   =    179.868943     0.000004     0.319040   180.187984
	   69 D(7,10,13,18)   =    -60.057585     0.000003     0.268994   -59.788591
	   70 D(8,4,7,10)     =     58.284587    -0.000030    -1.961327    56.323261
	   71 D(8,4,7,11)     =    -63.927081    -0.000021    -1.811893   -65.738974
	   72 D(8,4,7,12)     =    179.992460    -0.000022    -1.714340   178.278119
	   73 D(9,4,7,10)     =    -59.012724    -0.000003    -0.916375   -59.929099
	   74 D(9,4,7,11)     =    178.775607     0.000005    -0.766942   178.008666
	   75 D(9,4,7,12)     =     62.695148     0.000005    -0.669389    62.025759
	   76 D(11,7,10,13)   =    -58.317182     0.000008     0.365117   -57.952064
	   77 D(11,7,10,14)   =     63.586055     0.000010     0.634240    64.220295
	   78 D(11,7,10,15)   =    179.600516     0.000006     0.472046   180.072562
	   79 D(12,7,10,13)   =     58.050945    -0.000002    -0.126231    57.924714
	   80 D(12,7,10,14)   =    179.954182     0.000000     0.142891   180.097073
	   81 D(12,7,10,15)   =    -64.031357    -0.000004    -0.019303   -64.050660
	   82 D(14,10,13,16)  =    -62.094017     0.000000     0.049837   -62.044180
	   83 D(14,10,13,17)  =     57.983971    -0.000000     0.035192    58.019163
	   84 D(14,10,13,18)  =    178.057443    -0.000001    -0.014854   178.042589
	   85 D(15,10,13,16)  =   -178.029347    -0.000003    -0.068258  -178.097606
	   86 D(15,10,13,17)  =    -57.951359    -0.000003    -0.082903   -58.034263
	   87 D(15,10,13,18)  =     62.122113    -0.000004    -0.132950    61.989163
	 ---------------------------------------------------------------------------

  ==> Convergence Check <==

  Measures of convergence in internal coordinates in au.
  Criteria marked as inactive (o), active & met (*), and active & unmet ( ).
  --------------------------------------------------------------------------------------------- ~
   Step     Total Energy     Delta E     MAX Force     RMS Force      MAX Disp      RMS Disp    ~
  --------------------------------------------------------------------------------------------- ~
    Convergence Criteria    1.00e-06 *    3.00e-04 *             o    1.20e-03 *             o  ~
  --------------------------------------------------------------------------------------------- ~
      1    -271.17377225   -2.71e+02      1.10e-02      1.53e-03 o    3.88e-02      1.14e-02 o  ~
  ---------------------------------------------------------------------------------------------

	Writing optimization data to binary file.
	Structure for next step:
	Cartesian Geometry (in Angstrom)
	    H    -3.4714077495   0.6530253031   1.0925232239
	    O    -2.6169801588   0.9509470681   0.8136869932
	    C    -1.9745001894  -0.0699386772   0.0907163349
	    C    -0.6048235163   0.4386969098  -0.3906408115
	    H    -1.8546816375  -0.9430099362   0.7301207738
	    H    -2.5922289990  -0.3775525546  -0.7498913490
	    C     0.5558105373  -0.4884668696  -0.0223659222
	    H    -0.6071717188   0.5758308310  -1.4689080307
	    H    -0.4437039688   1.4165998323   0.0488122783
	    C     1.9117516608   0.0191674919  -0.5132399085
	    H     0.3777125055  -1.4813546790  -0.4338639503
	    H     0.5839242012  -0.6065506581   1.0592935284
	    C     3.0692399740  -0.9049783119  -0.1352759537
	    H     1.8829698540   0.1388007699  -1.5942861865
	    H     2.0905970305   1.0098269156  -0.1016695743
	    H     2.9357756962  -1.8956684591  -0.5609370988
	    H     4.0170357777  -0.5161385729  -0.4944817791
	    H     3.1453549477  -1.0169559797   0.9426302953
			--------------------------
			 OPTKING Finished Execution 
			--------------------------

    Structure for next step:
    Molecular point group: c1
    Full point group: C1

    Geometry (in Angstrom), charge = 0, multiplicity = 1:

    H           -3.468489925889     0.652149730518     1.094537657845
    O           -2.614062400429     0.950071472723     0.815701448503
    C           -1.971582480113    -0.070814194619     0.092730845402
    C           -0.601905911575     0.437821353583    -0.388626264291
    H           -1.851763937344    -0.943885386919     0.732135235451
    H           -2.589311242491    -0.378428048435    -0.747876774368
    C            0.558728053397    -0.489342354988    -0.020351403137
    H           -0.604254113923     0.574955264296    -1.466893401155
    H           -0.440786376322     1.415724201411     0.050826791970
    C            1.914669073375     0.018291967702    -0.511225351873
    H            0.380630035174    -1.482230088636    -0.431849399764
    H            0.586841715201    -0.607426134504     1.061307964915
    C            3.072157298163    -0.905853765539    -0.133261425967
    H            1.885887268710     0.137925236575    -1.592271547389
    H            2.093514429357     1.008951315770    -0.099655049143
    H            2.938693030570    -1.896543837089    -0.558922538597
    H            4.019953029524    -0.517014056172    -0.492467223936
    H            3.148272266078    -1.017831424718     0.944644740730

gradient() will perform analytic gradient computation.

*** tstart() called on cx1-1-1-4.cx1.hpc.ic.ac.uk
*** at Fri Sep  2 12:45:02 2016


         ---------------------------------------------------------
                                   SCF
            by Justin Turney, Rob Parrish, and Andy Simmonett
                              RHF Reference
                        4 Threads,   2000 MiB Core
         ---------------------------------------------------------

  ==> Geometry <==

    Molecular point group: c1
    Full point group: C1

    Geometry (in Angstrom), charge = 0, multiplicity = 1:

       Center              X                  Y                   Z               Mass       
    ------------   -----------------  -----------------  -----------------  -----------------
           H         -3.468489925889     0.652149730518     1.094537657845     1.007825032070
           O         -2.614062400429     0.950071472723     0.815701448503    15.994914619560
           C         -1.971582480113    -0.070814194619     0.092730845402    12.000000000000
           C         -0.601905911575     0.437821353583    -0.388626264291    12.000000000000
           H         -1.851763937344    -0.943885386919     0.732135235451     1.007825032070
           H         -2.589311242491    -0.378428048435    -0.747876774368     1.007825032070
           C          0.558728053397    -0.489342354988    -0.020351403137    12.000000000000
           H         -0.604254113923     0.574955264296    -1.466893401155     1.007825032070
           H         -0.440786376322     1.415724201411     0.050826791970     1.007825032070
           C          1.914669073375     0.018291967702    -0.511225351873    12.000000000000
           H          0.380630035174    -1.482230088636    -0.431849399764     1.007825032070
           H          0.586841715201    -0.607426134504     1.061307964915     1.007825032070
           C          3.072157298163    -0.905853765539    -0.133261425967    12.000000000000
           H          1.885887268710     0.137925236575    -1.592271547389     1.007825032070
           H          2.093514429357     1.008951315770    -0.099655049143     1.007825032070
           H          2.938693030570    -1.896543837089    -0.558922538597     1.007825032070
           H          4.019953029524    -0.517014056172    -0.492467223936     1.007825032070
           H          3.148272266078    -1.017831424718     0.944644740730     1.007825032070

  Running in c1 symmetry.

  Rotational constants: A =      0.43857  B =      0.03890  C =      0.03842 [cm^-1]
  Rotational constants: A =  13147.98609  B =   1166.13646  C =   1151.67018 [MHz]
  Nuclear repulsion =  245.311330826770586

  Charge       = 0
  Multiplicity = 1
  Electrons    = 50
  Nalpha       = 25
  Nbeta        = 25

  ==> Algorithm <==

  SCF Algorithm Type is DF.
  DIIS enabled.
  MOM disabled.
  Fractional occupation disabled.
  Guess Type is READ.
  Energy threshold   = 1.00e-08
  Density threshold  = 1.00e-08
  Integral threshold = 0.00e+00

  ==> Primary Basis <==

  Basis Set: 6-31G*
    Number of shells: 60
    Number of basis function: 114
    Number of Cartesian functions: 114
    Spherical Harmonics?: false
    Max angular momentum: 2

  ==> Pre-Iterations <==

   -------------------------------------------------------
    Irrep   Nso     Nmo     Nalpha   Nbeta   Ndocc  Nsocc
   -------------------------------------------------------
     A        114     114       0       0       0       0
   -------------------------------------------------------
    Total     114     114      25      25      25       0
   -------------------------------------------------------

 OEINTS: Overlap, kinetic, potential, dipole, and quadrupole integrals
         stored in file 35.

  ==> Integral Setup <==

  ==> DFJK: Density-Fitted J/K Matrices <==

    J tasked:                  Yes
    K tasked:                  Yes
    wK tasked:                  No
    OpenMP threads:              4
    Integrals threads:           4
    Memory (MB):              1430
    Algorithm:                Core
    Integral Cache:           NONE
    Schwarz Cutoff:          1E-12
    Fitting Condition:       1E-12

   => Auxiliary Basis Set <=

  Basis Set: 
    Number of shells: 252
    Number of basis function: 786
    Number of Cartesian functions: 786
    Spherical Harmonics?: false
    Max angular momentum: 3

  Minimum eigenvalue in the overlap matrix is 3.4445017755E-03.
  Using Symmetric Orthogonalization.
  SCF Guess: Reading in previously saved MOs, projecting if necessary.

  Using orbitals from previous SCF, no projection.
  Recomputing DOCC and SOCC from number of alpha and beta electrons from previous calculation.
              A 
    DOCC [    25 ]

  ==> Iterations <==

                           Total Energy        Delta E     RMS |[F,P]|

   @DF-RHF iter   0:  -271.17044387375734   -2.71170e+02   3.97441e-04 
   @DF-RHF iter   1:  -271.17405844724817   -3.61457e-03   4.89316e-05 
   @DF-RHF iter   2:  -271.17408275265325   -2.43054e-05   1.64156e-05 DIIS
   @DF-RHF iter   3:  -271.17408584602390   -3.09337e-06   6.73108e-06 DIIS
   @DF-RHF iter   4:  -271.17408640783810   -5.61814e-07   1.78139e-06 DIIS
   @DF-RHF iter   5:  -271.17408644959312   -4.17550e-08   5.77074e-07 DIIS
   @DF-RHF iter   6:  -271.17408645437831   -4.78519e-09   2.02295e-07 DIIS
   @DF-RHF iter   7:  -271.17408645494129   -5.62977e-10   5.68353e-08 DIIS
   @DF-RHF iter   8:  -271.17408645500848   -6.71889e-11   1.31885e-08 DIIS
   @DF-RHF iter   9:  -271.17408645501177   -3.29692e-12   4.18013e-09 DIIS

  ==> Post-Iterations <==

    Orbital Energies (a.u.)
    -----------------------

    Doubly Occupied:                                                      

       1A    -20.551017     2A    -11.268087     3A    -11.214738  
       4A    -11.214137     5A    -11.211649     6A    -11.208129  
       7A     -1.357411     8A     -1.078173     9A     -1.007746  
      10A     -0.912328    11A     -0.821334    12A     -0.791207  
      13A     -0.699125    14A     -0.646013    15A     -0.625485  
      16A     -0.581731    17A     -0.570627    18A     -0.560885  
      19A     -0.527218    20A     -0.496799    21A     -0.489772  
      22A     -0.468370    23A     -0.463066    24A     -0.451913  
      25A     -0.426864  

    Virtual:                                                              

      26A      0.228066    27A      0.233685    28A      0.266585  
      29A      0.279565    30A      0.282815    31A      0.306371  
      32A      0.323189    33A      0.334772    34A      0.336487  
      35A      0.345998    36A      0.353598    37A      0.368767  
      38A      0.392200    39A      0.426009    40A      0.455262  
      41A      0.464574    42A      0.478029    43A      0.708223  
      44A      0.719379    45A      0.752567    46A      0.753849  
      47A      0.781173    48A      0.825106    49A      0.841319  
      50A      0.860658    51A      0.934050    52A      0.949601  
      53A      0.987141    54A      1.022015    55A      1.031619  
      56A      1.046501    57A      1.105160    58A      1.128497  
      59A      1.132302    60A      1.136446    61A      1.160563  
      62A      1.177505    63A      1.186819    64A      1.196473  
      65A      1.212131    66A      1.221433    67A      1.232011  
      68A      1.244413    69A      1.258425    70A      1.271018  
      71A      1.298536    72A      1.355858    73A      1.462324  
      74A      1.515203    75A      1.633541    76A      1.670018  
      77A      1.731293    78A      1.750091    79A      1.824791  
      80A      1.885704    81A      1.958187    82A      2.009486  
      83A      2.041258    84A      2.133881    85A      2.149330  
      86A      2.200842    87A      2.227851    88A      2.272320  
      89A      2.288506    90A      2.316428    91A      2.353965  
      92A      2.382796    93A      2.404649    94A      2.482578  
      95A      2.562435    96A      2.622705    97A      2.647740  
      98A      2.684623    99A      2.727576   100A      2.762219  
     101A      2.802315   102A      2.813422   103A      2.892534  
     104A      2.933997   105A      2.946859   106A      3.076921  
     107A      3.164149   108A      3.231106   109A      4.177306  
     110A      4.559446   111A      4.652836   112A      4.759842  
     113A      4.872956   114A      4.992802  

    Final Occupation by Irrep:
              A 
    DOCC [    25 ]

  Energy converged.

  @DF-RHF Final Energy:  -271.17408645501177

   => Energetics <=

    Nuclear Repulsion Energy =            245.3113308267705861
    One-Electron Energy =                -853.6831879478276051
    Two-Electron Energy =                 337.1977706660453009
    DFT Exchange-Correlation Energy =       0.0000000000000000
    Empirical Dispersion Energy =           0.0000000000000000
    PCM Polarization Energy =               0.0000000000000000
    EFP Energy =                            0.0000000000000000
    Total Energy =                       -271.1740864550117180

    Alert: EFP and PCM quantities not currently incorporated into SCF psivars.

Properties will be evaluated at   0.000000,   0.000000,   0.000000 Bohr
  ==> Properties <==


Properties computed using the SCF density matrix

  Nuclear Dipole Moment: (a.u.)
     X:     5.7052      Y:    -2.8581      Z:    -1.4084

  Electronic Dipole Moment: (a.u.)
     X:    -5.9526      Y:     2.2854      Z:     1.2822

  Dipole Moment: (a.u.)
     X:    -0.2474      Y:    -0.5727      Z:    -0.1262     Total:     0.6365

  Dipole Moment: (Debye)
     X:    -0.6288      Y:    -1.4557      Z:    -0.3207     Total:     1.6178


  Saving occupied orbitals to File 180.

*** tstop() called on cx1-1-1-4.cx1.hpc.ic.ac.uk at Fri Sep  2 12:45:07 2016
Module time:
	user time   =      11.57 seconds =       0.19 minutes
	system time =       0.16 seconds =       0.00 minutes
	total time  =          5 seconds =       0.08 minutes
Total time:
	user time   =      46.89 seconds =       0.78 minutes
	system time =       0.59 seconds =       0.01 minutes
	total time  =         16 seconds =       0.27 minutes

*** tstart() called on cx1-1-1-4.cx1.hpc.ic.ac.uk
*** at Fri Sep  2 12:45:07 2016


         ------------------------------------------------------------
                                   SCF GRAD                          
                          Rob Parrish, Justin Turney,                
                       Andy Simmonett, and Alex Sokolov              
         ------------------------------------------------------------

  ==> Geometry <==

    Molecular point group: c1
    Full point group: C1

    Geometry (in Angstrom), charge = 0, multiplicity = 1:

       Center              X                  Y                   Z               Mass       
    ------------   -----------------  -----------------  -----------------  -----------------
           H         -3.468489925889     0.652149730518     1.094537657845     1.007825032070
           O         -2.614062400429     0.950071472723     0.815701448503    15.994914619560
           C         -1.971582480113    -0.070814194619     0.092730845402    12.000000000000
           C         -0.601905911575     0.437821353583    -0.388626264291    12.000000000000
           H         -1.851763937344    -0.943885386919     0.732135235451     1.007825032070
           H         -2.589311242491    -0.378428048435    -0.747876774368     1.007825032070
           C          0.558728053397    -0.489342354988    -0.020351403137    12.000000000000
           H         -0.604254113923     0.574955264296    -1.466893401155     1.007825032070
           H         -0.440786376322     1.415724201411     0.050826791970     1.007825032070
           C          1.914669073375     0.018291967702    -0.511225351873    12.000000000000
           H          0.380630035174    -1.482230088636    -0.431849399764     1.007825032070
           H          0.586841715201    -0.607426134504     1.061307964915     1.007825032070
           C          3.072157298163    -0.905853765539    -0.133261425967    12.000000000000
           H          1.885887268710     0.137925236575    -1.592271547389     1.007825032070
           H          2.093514429357     1.008951315770    -0.099655049143     1.007825032070
           H          2.938693030570    -1.896543837089    -0.558922538597     1.007825032070
           H          4.019953029524    -0.517014056172    -0.492467223936     1.007825032070
           H          3.148272266078    -1.017831424718     0.944644740730     1.007825032070

  Nuclear repulsion =  245.311330826770586

  ==> Basis Set <==

  Basis Set: 6-31G*
    Number of shells: 60
    Number of basis function: 114
    Number of Cartesian functions: 114
    Spherical Harmonics?: false
    Max angular momentum: 2

  ==> DFJKGrad: Density-Fitted SCF Gradients <==

    Gradient:                    1
    J tasked:                  Yes
    K tasked:                  Yes
    wK tasked:                  No
    OpenMP threads:              4
    Integrals threads:           4
    Memory (MB):              1430
    Schwarz Cutoff:          0E+00
    Fitting Condition:       1E-12

   => Auxiliary Basis Set <=

  Basis Set: 
    Number of shells: 252
    Number of basis function: 786
    Number of Cartesian functions: 786
    Spherical Harmonics?: false
    Max angular momentum: 3


  -Total Gradient:
     Atom            X                  Y                   Z
    ------   -----------------  -----------------  -----------------
       1       -0.000289847919     0.000248427719     0.000248473976
       2       -0.000327984403    -0.002517879984     0.001126786630
       3       -0.000395157435     0.001214752224    -0.001086779396
       4        0.000387697612     0.001752065836     0.000214654003
       5       -0.001719691799     0.000156132803     0.000575897688
       6       -0.000814509713    -0.000120152517     0.000862119187
       7        0.000485539331     0.000919109409    -0.000837195554
       8        0.002196997731    -0.001210120728    -0.000339693461
       9        0.000441092540    -0.000141548588    -0.000552439227
      10        0.000088365465    -0.000370261802    -0.000233051253
      11        0.000356258578     0.000002574129    -0.000040235323
      12       -0.000386877595     0.000326876090    -0.000055670819
      13        0.000199900032    -0.000050700468    -0.000034102590
      14        0.000003991939     0.000068741936    -0.000004220452
      15       -0.000331749455    -0.000197269445     0.000064913211
      16        0.000031371735    -0.000026244918     0.000006434159
      17        0.000044722662    -0.000042452844     0.000052537712
      18        0.000029880699    -0.000012048854     0.000031571509


*** tstop() called on cx1-1-1-4.cx1.hpc.ic.ac.uk at Fri Sep  2 12:45:12 2016
Module time:
	user time   =      18.37 seconds =       0.31 minutes
	system time =       0.26 seconds =       0.00 minutes
	total time  =          5 seconds =       0.08 minutes
Total time:
	user time   =      65.28 seconds =       1.09 minutes
	system time =       0.85 seconds =       0.01 minutes
	total time  =         21 seconds =       0.35 minutes
CURRENT ENERGY: -271.1740864550

			-----------------------------------------
			 OPTKING 2.0: for geometry optimizations 
			  - R.A. King,  Bethel University        
			-----------------------------------------

	Previous internal coordinate definitions found.
	---Fragment 1 Geometry and Gradient---
	 H          -6.5544960546        1.2323843883        2.0683764155
	 O          -4.9398620311        1.7953748901        1.5414523439
	 C          -3.7257509358       -0.1338194342        0.1752359019
	 C          -1.1374373306        0.8273624534       -0.7343972076
	 H          -3.4993267043       -1.7836848821        1.3835350872
	 H          -4.8930891211       -0.7151253725       -1.4132822847
	 C           1.0558430037       -0.9247230361       -0.0384585783
	 H          -1.1418747900        1.0865079882       -2.7720267943
	 H          -0.8329655344        2.6753310204        0.0960487170
	 C           3.6182001838        0.0345668094       -0.9660759072
	 H           0.7192865244       -2.8010089334       -0.8160770962
	 H           1.1089701251       -1.1478690402        2.0055813963
	 C           5.8055359307       -1.7118155333       -0.2518275992
	 H           3.5638104554        0.2606409239       -3.0089571538
	 H           3.9561689267        1.9066416682       -0.1883207506
	 H           5.5533250164       -3.5839484511       -1.0562105274
	 H           7.5966102929       -0.9770149730       -0.9306281827
	 H           5.9493723746       -1.9234226422        1.7851198529
	            -0.0002898479        0.0002484277        0.0002484740
	            -0.0003279844       -0.0025178800        0.0011267866
	            -0.0003951574        0.0012147522       -0.0010867794
	             0.0003876976        0.0017520658        0.0002146540
	            -0.0017196918        0.0001561328        0.0005758977
	            -0.0008145097       -0.0001201525        0.0008621192
	             0.0004855393        0.0009191094       -0.0008371956
	             0.0021969977       -0.0012101207       -0.0003396935
	             0.0004410925       -0.0001415486       -0.0005524392
	             0.0000883655       -0.0003702618       -0.0002330513
	             0.0003562586        0.0000025741       -0.0000402353
	            -0.0003868776        0.0003268761       -0.0000556708
	             0.0001999000       -0.0000507005       -0.0000341026
	             0.0000039919        0.0000687419       -0.0000042205
	            -0.0003317495       -0.0001972694        0.0000649132
	             0.0000313717       -0.0000262449        0.0000064342
	             0.0000447227       -0.0000424528        0.0000525377
	             0.0000298807       -0.0000120489        0.0000315715

	---Fragment 1 Intrafragment Coordinates---
	 - Coordinate -           - BOHR/RAD -       - ANG/DEG -
	 R(1,2)           =         1.789316	       0.946865
	 R(2,3)           =         2.657518	       1.406298
	 R(3,4)           =         2.907004	       1.538320
	 R(3,5)           =         2.057501	       1.088783
	 R(3,6)           =         2.055234	       1.087583
	 R(4,7)           =         2.892164	       1.530467
	 R(4,8)           =         2.054047	       1.086955
	 R(4,9)           =         2.048739	       1.084146
	 R(7,10)          =         2.889011	       1.528799
	 R(7,11)          =         2.058740	       1.089438
	 R(7,12)          =         2.056870	       1.088449
	 R(10,13)         =         2.888674	       1.528621
	 R(10,14)         =         2.056072	       1.088026
	 R(10,15)         =         2.055186	       1.087558
	 R(13,16)         =         2.053174	       1.086493
	 R(13,17)         =         2.051499	       1.085607
	 R(13,18)         =         2.052954	       1.086377
	 B(1,2,3)         =         1.912658	     109.587216
	 B(2,3,4)         =         1.904573	     109.123980
	 B(2,3,5)         =         1.907609	     109.297945
	 B(2,3,6)         =         1.921106	     110.071247
	 B(3,4,7)         =         1.981893	     113.554112
	 B(3,4,8)         =         1.928582	     110.499635
	 B(3,4,9)         =         1.879398	     107.681563
	 B(4,3,5)         =         1.929343	     110.543218
	 B(4,3,6)         =         1.936260	     110.939554
	 B(4,7,10)        =         1.975982	     113.215413
	 B(4,7,11)        =         1.914794	     109.709596
	 B(4,7,12)        =         1.901214	     108.931540
	 B(5,3,6)         =         1.864612	     106.834387
	 B(7,4,8)         =         1.893123	     108.467962
	 B(7,4,9)         =         1.913673	     109.645375
	 B(7,10,13)       =         1.973015	     113.045408
	 B(7,10,14)       =         1.909296	     109.394629
	 B(7,10,15)       =         1.903719	     109.075065
	 B(8,4,9)         =         1.863588	     106.775737
	 B(10,7,11)       =         1.903220	     109.046451
	 B(10,7,12)       =         1.909428	     109.402143
	 B(10,13,16)      =         1.940532	     111.184282
	 B(10,13,17)      =         1.941997	     111.268229
	 B(10,13,18)      =         1.939812	     111.143053
	 B(11,7,12)       =         1.855329	     106.302504
	 B(13,10,14)      =         1.909407	     109.400951
	 B(13,10,15)      =         1.909861	     109.426963
	 B(14,10,15)      =         1.854799	     106.272138
	 B(16,13,17)      =         1.879905	     107.710624
	 B(16,13,18)      =         1.878994	     107.658409
	 B(17,13,18)      =         1.879738	     107.701032
	 D(1,2,3,4)       =         3.114067	     178.422883
	 D(1,2,3,5)       =        -1.057387	     -60.583786
	 D(1,2,3,6)       =         0.985363	      56.457169
	 D(2,3,4,7)       =         2.231667	     127.865072
	*D(2,3,4,8)       =        -1.919862	    -109.999993
	 D(2,3,4,9)       =         0.109436	       6.270212
	 D(3,4,7,10)      =         3.134230	     179.578153
	 D(3,4,7,11)      =         1.003842	      57.515918
	 D(3,4,7,12)      =        -1.020441	     -58.466989
	 D(4,7,10,13)     =         3.134890	     179.615986
	 D(4,7,10,14)     =        -1.015985	     -58.211655
	 D(4,7,10,15)     =         1.006018	      57.640613
	 D(5,3,4,7)       =         0.133247	       7.634483
	 D(5,3,4,8)       =         2.264904	     129.769418
	 D(5,3,4,9)       =        -1.988984	    -113.960377
	 D(6,3,4,7)       =        -1.931992	    -110.694961
	 D(6,3,4,8)       =         0.199665	      11.439973
	 D(6,3,4,9)       =         2.228963	     127.710179
	 D(7,10,13,16)    =         1.049373	      60.124641
	 D(7,10,13,17)    =        -3.138312	    -179.812016
	 D(7,10,13,18)    =        -1.043508	     -59.788591
	 D(8,4,7,10)      =         0.983026	      56.323261
	 D(8,4,7,11)      =        -1.147362	     -65.738974
	 D(8,4,7,12)      =         3.111540	     178.278119
	 D(9,4,7,10)      =        -1.045960	     -59.929099
	 D(9,4,7,11)      =         3.106837	     178.008666
	 D(9,4,7,12)      =         1.082554	      62.025759
	 D(11,7,10,13)    =        -1.011454	     -57.952064
	 D(11,7,10,14)    =         1.120856	      64.220295
	 D(11,7,10,15)    =        -3.140326	    -179.927438
	 D(12,7,10,13)    =         1.010977	      57.924714
	 D(12,7,10,14)    =        -3.139898	    -179.902927
	 D(12,7,10,15)    =        -1.117895	     -64.050660
	 D(14,10,13,16)   =        -1.082875	     -62.044180
	 D(14,10,13,17)   =         1.012625	      58.019163
	 D(14,10,13,18)   =         3.107429	     178.042589
	 D(15,10,13,16)   =        -3.108390	    -178.097606
	 D(15,10,13,17)   =        -1.012889	     -58.034263
	 D(15,10,13,18)   =         1.081915	      61.989163

	Current energy   :      -271.1740864550

	Energy change for the previous step:
		Projected    :        -0.0011240086
		Actual       :        -0.0003142033

	Performing BFGS update.
	Previous computed or guess Hessian on step 1.
	Steps to be used in Hessian update: 1
	Taking RFO optimization step.
	Going to follow RFO solution 1.
	Using RFO vector 1.
	Norm of target step-size    0.03139
	Projected energy change by RFO approximation:        -0.0001597471

	Back-transformation to cartesian coordinates...
	Successfully converged to displaced geometry.

	Back-transformation to cartesian coordinates to adjust frozen coordinates...
	Successfully converged to displaced geometry.

	--- Internal Coordinate Step in ANG or DEG, aJ/ANG or AJ/DEG ---
	 ---------------------------------------------------------------------------
	   Coordinate                Previous        Force       Change         New 
	   ----------                --------       ------       ------       ------
	    1 R(1,2)          =      0.946865    -0.002114    -0.000150     0.946715
	    2 R(2,3)          =      1.406298     0.005423     0.000592     1.406890
	    3 R(3,4)          =      1.538320    -0.033246    -0.004273     1.534047
	    4 R(3,5)          =      1.088783    -0.000196    -0.000017     1.088766
	    5 R(3,6)          =      1.087583     0.001398     0.000116     1.087699
	    6 R(4,7)          =      1.530467     0.001908     0.000342     1.530809
	    7 R(4,8)          =      1.086955    -0.001479    -0.000192     1.086763
	    8 R(4,9)          =      1.084146     0.002357     0.000140     1.084286
	    9 R(7,10)         =      1.528799     0.000932     0.000112     1.528911
	   10 R(7,11)         =      1.089438     0.000374     0.000215     1.089653
	   11 R(7,12)         =      1.088449     0.000830     0.000072     1.088521
	   12 R(10,13)        =      1.528621    -0.002678    -0.000403     1.528218
	   13 R(10,14)        =      1.088026    -0.000096    -0.000011     1.088015
	   14 R(10,15)        =      1.087558     0.001728     0.000197     1.087755
	   15 R(13,16)        =      1.086493    -0.000145    -0.000009     1.086484
	   16 R(13,17)        =      1.085607    -0.000053    -0.000014     1.085593
	   17 R(13,18)        =      1.086377    -0.000286    -0.000043     1.086334
	   18 B(1,2,3)        =    109.587216    -0.000051    -0.175597   109.411619
	   19 B(2,3,4)        =    109.123980    -0.000175    -0.456725   108.667255
	   20 B(2,3,5)        =    109.297945     0.000139     0.524036   109.821981
	   21 B(2,3,6)        =    110.071247     0.000111     0.371326   110.442574
	   22 B(3,4,7)        =    113.554112    -0.000059    -0.227358   113.326754
	   23 B(3,4,8)        =    110.499635    -0.000072    -0.463837   110.035798
	   24 B(3,4,9)        =    107.681563     0.000009    -0.094568   107.586995
	   25 B(4,3,5)        =    110.543218    -0.000085    -0.457771   110.085447
	   26 B(4,3,6)        =    110.939554    -0.000023    -0.227612   110.711942
	   27 B(4,7,10)       =    113.215413    -0.000049    -0.108097   113.107316
	   28 B(4,7,11)       =    109.709596    -0.000012    -0.091126   109.618469
	   29 B(4,7,12)       =    108.931540     0.000048     0.208969   109.140508
	   30 B(5,3,6)        =    106.834387     0.000042     0.271059   107.105445
	   31 B(7,4,8)        =    108.467962     0.000080     0.303956   108.771918
	   32 B(7,4,9)        =    109.645375     0.000025     0.201784   109.847159
	   33 B(7,10,13)      =    113.045408    -0.000020    -0.045339   113.000069
	   34 B(7,10,14)      =    109.394629    -0.000000    -0.038006   109.356624
	   35 B(7,10,15)      =    109.075065     0.000027     0.144766   109.219831
	   36 B(8,4,9)        =    106.775737     0.000022     0.310543   107.086280
	   37 B(10,7,11)      =    109.046451     0.000038     0.074200   109.120650
	   38 B(10,7,12)      =    109.402143    -0.000009    -0.031114   109.371029
	   39 B(10,13,16)     =    111.184282    -0.000003    -0.007362   111.176921
	   40 B(10,13,17)     =    111.268229    -0.000007    -0.026280   111.241949
	   41 B(10,13,18)     =    111.143053    -0.000001     0.001095   111.144148
	   42 B(11,7,12)      =    106.302504    -0.000014    -0.049837   106.252667
	   43 B(13,10,14)     =    109.400951     0.000006    -0.039797   109.361154
	   44 B(13,10,15)     =    109.426963    -0.000007    -0.013273   109.413690
	   45 B(14,10,15)     =    106.272138    -0.000005    -0.005647   106.266490
	   46 B(16,13,17)     =    107.710624     0.000004     0.005171   107.715795
	   47 B(16,13,18)     =    107.658409     0.000002     0.010031   107.668440
	   48 B(17,13,18)     =    107.701032     0.000005     0.019367   107.720399
	   49 D(1,2,3,4)      =    178.422883     0.000004     0.067325   178.490208
	   50 D(1,2,3,5)      =    -60.583786    -0.000025    -0.455255   -61.039041
	   51 D(1,2,3,6)      =     56.457169     0.000020     0.410062    56.867232
	   52 D(2,3,4,7)      =    127.865072    -0.000002     0.110595   127.975667
	   53 *D(2,3,4,8)     =   -109.999993    -0.000000     0.000000  -109.999993
	   54 D(2,3,4,9)      =      6.270212    -0.000002     0.067735     6.337946
	   55 D(3,4,7,10)     =    179.578153    -0.000003    -0.205493   179.372659
	   56 D(3,4,7,11)     =     57.515918    -0.000005    -0.160161    57.355756
	   57 D(3,4,7,12)     =    -58.466989    -0.000006    -0.167744   -58.634733
	   58 D(4,7,10,13)    =    179.615986     0.000003     0.124279   179.740265
	   59 D(4,7,10,14)    =    -58.211655     0.000002     0.014847   -58.196807
	   60 D(4,7,10,15)    =     57.640613     0.000004     0.067905    57.708518
	   61 D(5,3,4,7)      =      7.634483    -0.000004     0.033539     7.668022
	   62 D(5,3,4,8)      =    129.769418    -0.000002    -0.077055   129.692362
	   63 D(5,3,4,9)      =   -113.960377    -0.000004    -0.009321  -113.969698
	   64 D(6,3,4,7)      =   -110.694961     0.000000     0.128842  -110.566119
	   65 D(6,3,4,8)      =     11.439973     0.000002     0.018247    11.458221
	   66 D(6,3,4,9)      =    127.710179     0.000000     0.085982   127.796160
	   67 D(7,10,13,16)   =     60.124641    -0.000002    -0.195101    59.929540
	   68 D(7,10,13,17)   =   -179.812016    -0.000002    -0.211191  -180.023208
	   69 D(7,10,13,18)   =    -59.788591    -0.000002    -0.203588   -59.992178
	   70 D(8,4,7,10)     =     56.323261     0.000014     0.322885    56.646146
	   71 D(8,4,7,11)     =    -65.738974     0.000012     0.368217   -65.370757
	   72 D(8,4,7,12)     =    178.278119     0.000011     0.360635   178.638754
	   73 D(9,4,7,10)     =    -59.929099    -0.000006    -0.335074   -60.264173
	   74 D(9,4,7,11)     =    178.008666    -0.000007    -0.289742   177.718924
	   75 D(9,4,7,12)     =     62.025759    -0.000008    -0.297324    61.728434
	   76 D(11,7,10,13)   =    -57.952064    -0.000001    -0.012378   -57.964443
	   77 D(11,7,10,14)   =     64.220295    -0.000003    -0.121810    64.098485
	   78 D(11,7,10,15)   =   -179.927438    -0.000001    -0.068752  -179.996190
	   79 D(12,7,10,13)   =     57.924714    -0.000001    -0.047824    57.876889
	   80 D(12,7,10,14)   =   -179.902927    -0.000003    -0.157256  -180.060183
	   81 D(12,7,10,15)   =    -64.050660    -0.000001    -0.104198   -64.154858
	   82 D(14,10,13,16)  =    -62.044180     0.000000    -0.086667   -62.130847
	   83 D(14,10,13,17)  =     58.019163     0.000000    -0.102757    57.916406
	   84 D(14,10,13,18)  =    178.042589     0.000000    -0.095154   177.947435
	   85 D(15,10,13,16)  =   -178.097606     0.000002    -0.049949  -178.147555
	   86 D(15,10,13,17)  =    -58.034263     0.000001    -0.066040   -58.100302
	   87 D(15,10,13,18)  =     61.989163     0.000002    -0.058436    61.930727
	 ---------------------------------------------------------------------------

  ==> Convergence Check <==

  Measures of convergence in internal coordinates in au.
  Criteria marked as inactive (o), active & met (*), and active & unmet ( ).
  ---------------------------------------------------------------------------------------------
   Step     Total Energy     Delta E     MAX Force     RMS Force      MAX Disp      RMS Disp   
  ---------------------------------------------------------------------------------------------
    Convergence Criteria    1.00e-06 *    3.00e-04 *             o    1.20e-03 *             o
  ---------------------------------------------------------------------------------------------
      2    -271.17408646   -3.14e-04      4.04e-03      6.81e-04 o    9.15e-03      3.37e-03 o  ~
  ---------------------------------------------------------------------------------------------

	Writing optimization data to binary file.
	Structure for next step:
	Cartesian Geometry (in Angstrom)
	    H    -3.4605294110   0.6543655973   1.0922693304
	    O    -2.6066126204   0.9519250982   0.8119954487
	    C    -1.9677520804  -0.0731993941   0.0906662645
	    C    -0.6031541612   0.4395462118  -0.3871046604
	    H    -1.8369550880  -0.9465194560   0.7275461200
	    H    -2.5798886532  -0.3818588169  -0.7537908066
	    C     0.5565414457  -0.4887774419  -0.0173780089
	    H    -0.6128769748   0.5746390466  -1.4653949086
	    H    -0.4474121730   1.4172529091   0.0550613617
	    C     1.9121088199   0.0193475956  -0.5091259625
	    H     0.3764485487  -1.4812362618  -0.4296104885
	    H     0.5866836853  -0.6089583581   1.0640680166
	    C     3.0687959180  -0.9059912138  -0.1332630563
	    H     1.8820578140   0.1383700027  -1.5901939780
	    H     2.0935770517   1.0101158455  -0.0984457006
	    H     2.9323711258  -1.8969686449  -0.5572918549
	    H     4.0159521911  -0.5189688512  -0.4960579981
	    H     3.1478348665  -1.0165628549   0.9445350605
			--------------------------
			 OPTKING Finished Execution 
			--------------------------

    Structure for next step:
    Molecular point group: c1
    Full point group: C1

    Geometry (in Angstrom), charge = 0, multiplicity = 1:

    H           -3.461107055030     0.653947514234     1.092334723721
    O           -2.607190329545     0.951506992458     0.812060863482
    C           -1.968329838404    -0.073617421540     0.090731734320
    C           -0.603732023345     0.439128145190    -0.387039154061
    H           -1.837532855979    -0.946937416746     0.727611541174
    H           -2.580466364417    -0.382276820797    -0.753725272232
    C            0.555963494955    -0.489195437659    -0.017312530774
    H           -0.613454836227     0.574220969610    -1.465329319941
    H           -0.447990047098     1.416834767836     0.055126834265
    C            1.911530765637     0.018929561015    -0.509060446835
    H            0.375870611700    -1.481654181755    -0.429544978952
    H            0.586105732257    -0.609376344685     1.064133412154
    C            3.068217775377    -0.906409177635    -0.133197569321
    H            1.881479761991     0.137951959083    -1.590128379807
    H            2.092998983594     1.009697735334    -0.098380216347
    H            2.931792993600    -1.897386533116    -0.557226335549
    H            4.015373976232    -0.519386844684    -0.495992483424
    H            3.147256717846    -1.016980810387     0.944600465117

gradient() will perform analytic gradient computation.

*** tstart() called on cx1-1-1-4.cx1.hpc.ic.ac.uk
*** at Fri Sep  2 12:45:12 2016


         ---------------------------------------------------------
                                   SCF
            by Justin Turney, Rob Parrish, and Andy Simmonett
                              RHF Reference
                        4 Threads,   2000 MiB Core
         ---------------------------------------------------------

  ==> Geometry <==

    Molecular point group: c1
    Full point group: C1

    Geometry (in Angstrom), charge = 0, multiplicity = 1:

       Center              X                  Y                   Z               Mass       
    ------------   -----------------  -----------------  -----------------  -----------------
           H         -3.461107055030     0.653947514234     1.092334723721     1.007825032070
           O         -2.607190329545     0.951506992458     0.812060863482    15.994914619560
           C         -1.968329838404    -0.073617421540     0.090731734320    12.000000000000
           C         -0.603732023345     0.439128145190    -0.387039154061    12.000000000000
           H         -1.837532855979    -0.946937416746     0.727611541174     1.007825032070
           H         -2.580466364417    -0.382276820797    -0.753725272232     1.007825032070
           C          0.555963494955    -0.489195437659    -0.017312530774    12.000000000000
           H         -0.613454836227     0.574220969610    -1.465329319941     1.007825032070
           H         -0.447990047098     1.416834767836     0.055126834265     1.007825032070
           C          1.911530765637     0.018929561015    -0.509060446835    12.000000000000
           H          0.375870611700    -1.481654181755    -0.429544978952     1.007825032070
           H          0.586105732257    -0.609376344685     1.064133412154     1.007825032070
           C          3.068217775377    -0.906409177635    -0.133197569321    12.000000000000
           H          1.881479761991     0.137951959083    -1.590128379807     1.007825032070
           H          2.092998983594     1.009697735334    -0.098380216347     1.007825032070
           H          2.931792993600    -1.897386533116    -0.557226335549     1.007825032070
           H          4.015373976232    -0.519386844684    -0.495992483424     1.007825032070
           H          3.147256717846    -1.016980810387     0.944600465117     1.007825032070

  Running in c1 symmetry.

  Rotational constants: A =      0.43826  B =      0.03903  C =      0.03854 [cm^-1]
  Rotational constants: A =  13138.66922  B =   1170.19989  C =   1155.52680 [MHz]
  Nuclear repulsion =  245.533535906023417

  Charge       = 0
  Multiplicity = 1
  Electrons    = 50
  Nalpha       = 25
  Nbeta        = 25

  ==> Algorithm <==

  SCF Algorithm Type is DF.
  DIIS enabled.
  MOM disabled.
  Fractional occupation disabled.
  Guess Type is READ.
  Energy threshold   = 1.00e-08
  Density threshold  = 1.00e-08
  Integral threshold = 0.00e+00

  ==> Primary Basis <==

  Basis Set: 6-31G*
    Number of shells: 60
    Number of basis function: 114
    Number of Cartesian functions: 114
    Spherical Harmonics?: false
    Max angular momentum: 2

  ==> Pre-Iterations <==

   -------------------------------------------------------
    Irrep   Nso     Nmo     Nalpha   Nbeta   Ndocc  Nsocc
   -------------------------------------------------------
     A        114     114       0       0       0       0
   -------------------------------------------------------
    Total     114     114      25      25      25       0
   -------------------------------------------------------

 OEINTS: Overlap, kinetic, potential, dipole, and quadrupole integrals
         stored in file 35.

  ==> Integral Setup <==

  ==> DFJK: Density-Fitted J/K Matrices <==

    J tasked:                  Yes
    K tasked:                  Yes
    wK tasked:                  No
    OpenMP threads:              4
    Integrals threads:           4
    Memory (MB):              1430
    Algorithm:                Core
    Integral Cache:           NONE
    Schwarz Cutoff:          1E-12
    Fitting Condition:       1E-12

   => Auxiliary Basis Set <=

  Basis Set: 
    Number of shells: 252
    Number of basis function: 786
    Number of Cartesian functions: 786
    Spherical Harmonics?: false
    Max angular momentum: 3

  Minimum eigenvalue in the overlap matrix is 3.4207479154E-03.
  Using Symmetric Orthogonalization.
  SCF Guess: Reading in previously saved MOs, projecting if necessary.

  Using orbitals from previous SCF, no projection.
  Recomputing DOCC and SOCC from number of alpha and beta electrons from previous calculation.
              A 
    DOCC [    25 ]

  ==> Iterations <==

                           Total Energy        Delta E     RMS |[F,P]|

   @DF-RHF iter   0:  -271.17500858798326   -2.71175e+02   1.20345e-04 
   @DF-RHF iter   1:  -271.17416232838889    8.46260e-04   1.52263e-05 
   @DF-RHF iter   2:  -271.17416450383018   -2.17544e-06   5.70182e-06 DIIS
   @DF-RHF iter   3:  -271.17416480389238   -3.00062e-07   2.62929e-06 DIIS
   @DF-RHF iter   4:  -271.17416487092714   -6.70348e-08   4.93274e-07 DIIS
   @DF-RHF iter   5:  -271.17416487369360   -2.76646e-09   1.74506e-07 DIIS
   @DF-RHF iter   6:  -271.17416487405501   -3.61410e-10   4.20281e-08 DIIS
   @DF-RHF iter   7:  -271.17416487408241   -2.73985e-11   1.24196e-08 DIIS
   @DF-RHF iter   8:  -271.17416487408491   -2.50111e-12   3.37842e-09 DIIS

  ==> Post-Iterations <==

    Orbital Energies (a.u.)
    -----------------------

    Doubly Occupied:                                                      

       1A    -20.551526     2A    -11.267552     3A    -11.214619  
       4A    -11.214018     5A    -11.210784     6A    -11.207921  
       7A     -1.357637     8A     -1.078283     9A     -1.008361  
      10A     -0.912328    11A     -0.820544    12A     -0.791258  
      13A     -0.699583    14A     -0.646192    15A     -0.625662  
      16A     -0.581467    17A     -0.570423    18A     -0.560472  
      19A     -0.527370    20A     -0.496784    21A     -0.489914  
      22A     -0.468526    23A     -0.463014    24A     -0.451596  
      25A     -0.427351  

    Virtual:                                                              

      26A      0.228461    27A      0.233776    28A      0.266370  
      29A      0.279396    30A      0.282917    31A      0.306321  
      32A      0.323354    33A      0.334996    34A      0.337009  
      35A      0.346047    36A      0.353525    37A      0.369175  
      38A      0.392353    39A      0.426519    40A      0.455336  
      41A      0.465087    42A      0.478080    43A      0.707298  
      44A      0.720249    45A      0.753736    46A      0.754112  
      47A      0.780982    48A      0.824041    49A      0.840583  
      50A      0.862141    51A      0.935140    52A      0.951042  
      53A      0.988093    54A      1.021339    55A      1.031579  
      56A      1.045473    57A      1.104942    58A      1.128693  
      59A      1.132499    60A      1.136650    61A      1.160781  
      62A      1.177403    63A      1.186767    64A      1.196507  
      65A      1.212370    66A      1.221796    67A      1.231520  
      68A      1.244753    69A      1.258776    70A      1.270948  
      71A      1.299943    72A      1.355725    73A      1.462659  
      74A      1.515383    75A      1.633494    76A      1.669935  
      77A      1.731142    78A      1.750302    79A      1.825458  
      80A      1.885553    81A      1.960977    82A      2.011776  
      83A      2.042269    84A      2.136374    85A      2.152043  
      86A      2.202258    87A      2.229945    88A      2.274073  
      89A      2.288466    90A      2.317762    91A      2.355254  
      92A      2.382679    93A      2.403017    94A      2.480989  
      95A      2.561964    96A      2.624431    97A      2.646568  
      98A      2.684542    99A      2.729911   100A      2.762604  
     101A      2.803294   102A      2.814720   103A      2.892291  
     104A      2.933783   105A      2.945491   106A      3.076555  
     107A      3.165743   108A      3.232911   109A      4.176985  
     110A      4.560688   111A      4.653957   112A      4.759750  
     113A      4.873257   114A      4.994387  

    Final Occupation by Irrep:
              A 
    DOCC [    25 ]

  Energy converged.

  @DF-RHF Final Energy:  -271.17416487408491

   => Energetics <=

    Nuclear Repulsion Energy =            245.5335359060234168
    One-Electron Energy =                -854.1290350365463837
    Two-Electron Energy =                 337.4213342564378308
    DFT Exchange-Correlation Energy =       0.0000000000000000
[...]
	            -0.0000002083       -0.0000056599       -0.0000144241
	             0.0000178132       -0.0000007426        0.0000192607
	            -0.0000042656       -0.0000191848       -0.0000299344
	            -0.0000239299       -0.0000311896       -0.0000100605
	             0.0000225935        0.0000274794        0.0000215647
	            -0.0000050685       -0.0000168322        0.0000069066
	             0.0000177971        0.0000108308       -0.0000168254
	            -0.0000050806        0.0000103624       -0.0000062528
	             0.0000096763       -0.0000038198        0.0000066429
	             0.0000008557       -0.0000075436       -0.0000003151

	---Fragment 1 Intrafragment Coordinates---
	 - Coordinate -           - BOHR/RAD -       - ANG/DEG -
	 R(1,2)           =         1.789248	       0.946830
	 R(2,3)           =         2.658714	       1.406931
	 R(3,4)           =         2.898806	       1.533982
	 R(3,5)           =         2.057172	       1.088609
	 R(3,6)           =         2.055366	       1.087653
	 R(4,7)           =         2.892704	       1.530753
	 R(4,8)           =         2.053468	       1.086648
	 R(4,9)           =         2.048987	       1.084277
	 R(7,10)          =         2.889547	       1.529083
	 R(7,11)          =         2.058935	       1.089541
	 R(7,12)          =         2.057044	       1.088541
	 R(10,13)         =         2.888015	       1.528272
	 R(10,14)         =         2.056049	       1.088014
	 R(10,15)         =         2.055640	       1.087798
	 R(13,16)         =         2.053135	       1.086472
	 R(13,17)         =         2.051529	       1.085622
	 R(13,18)         =         2.052886	       1.086341
	 B(1,2,3)         =         1.911233	     109.505556
	 B(2,3,4)         =         1.897938	     108.743818
	 B(2,3,5)         =         1.915642	     109.758223
	 B(2,3,6)         =         1.926001	     110.351735
	 B(3,4,7)         =         1.978171	     113.340856
	 B(3,4,8)         =         1.918805	     109.939416
	 B(3,4,9)         =         1.878366	     107.622421
	 B(4,3,5)         =         1.921881	     110.115671
	 B(4,3,6)         =         1.932448	     110.721102
	 B(4,7,10)        =         1.974547	     113.133203
	 B(4,7,11)        =         1.912131	     109.557021
	 B(4,7,12)        =         1.904875	     109.141325
	 B(5,3,6)         =         1.869974	     107.141634
	 B(7,4,8)         =         1.898011	     108.748038
	 B(7,4,9)         =         1.917347	     109.855882
	 B(7,10,13)       =         1.972514	     113.016708
	 B(7,10,14)       =         1.908395	     109.342973
	 B(7,10,15)       =         1.906539	     109.236645
	 B(8,4,9)         =         1.870160	     107.152286
	 B(10,7,11)       =         1.905089	     109.153539
	 B(10,7,12)       =         1.908764	     109.364120
	 B(10,13,16)      =         1.940216	     111.166208
	 B(10,13,17)      =         1.941790	     111.256354
	 B(10,13,18)      =         1.939932	     111.149934
	 B(11,7,12)       =         1.854593	     106.260353
	 B(13,10,14)      =         1.908768	     109.364326
	 B(13,10,15)      =         1.909341	     109.397185
	 B(14,10,15)      =         1.854561	     106.258507
	 B(16,13,17)      =         1.879941	     107.712707
	 B(16,13,18)      =         1.879084	     107.663584
	 B(17,13,18)      =         1.880038	     107.718267
	 D(1,2,3,4)       =         3.114864	     178.468560
	 D(1,2,3,5)       =        -1.064914	     -61.015055
	 D(1,2,3,6)       =         0.992076	      56.841774
	 D(2,3,4,7)       =         2.235202	     128.067616
	*D(2,3,4,8)       =        -1.919862	    -109.999993
	 D(2,3,4,9)       =         0.111439	       6.384989
	 D(3,4,7,10)      =         3.137446	     179.762393
	 D(3,4,7,11)      =         1.007579	      57.730036
	 D(3,4,7,12)      =        -1.016406	     -58.235758
	 D(4,7,10,13)     =         3.133186	     179.518361
	 D(4,7,10,14)     =        -1.019502	     -58.413167
	 D(4,7,10,15)     =         1.003292	      57.484386
	 D(5,3,4,7)       =         0.135650	       7.772171
	 D(5,3,4,8)       =         2.263772	     129.704562
	 D(5,3,4,9)       =        -1.988113	    -113.910456
	 D(6,3,4,7)       =        -1.929135	    -110.531271
	 D(6,3,4,8)       =         0.198987	      11.401119
	 D(6,3,4,9)       =         2.230288	     127.786102
	 D(7,10,13,16)    =         1.047429	      60.013234
	 D(7,10,13,17)    =        -3.140562	    -179.940951
	 D(7,10,13,18)    =        -1.045436	     -59.899052
	 D(8,4,7,10)      =         0.997761	      57.167472
	 D(8,4,7,11)      =        -1.132106	     -64.864885
	 D(8,4,7,12)      =         3.127095	     179.169322
	 D(9,4,7,10)      =        -1.043941	     -59.813432
	 D(9,4,7,11)      =         3.109378	     178.154211
	 D(9,4,7,12)      =         1.085393	      62.188417
	 D(11,7,10,13)    =        -1.016196	     -58.223733
	 D(11,7,10,14)    =         1.114301	      63.844740
	 D(11,7,10,15)    =         3.137095	     179.742292
	 D(12,7,10,13)    =         1.006031	      57.641335
	 D(12,7,10,14)    =         3.136528	     179.709808
	 D(12,7,10,15)    =        -1.123864	     -64.392640
	 D(14,10,13,16)   =        -1.082859	     -62.043265
	 D(14,10,13,17)   =         1.012335	      58.002551
	 D(14,10,13,18)   =         3.107462	     178.044450
	 D(15,10,13,16)   =        -3.107435	    -178.042886
	 D(15,10,13,17)   =        -1.012240	     -57.997071
	 D(15,10,13,18)   =         1.082887	      62.044828

	Current energy   :      -271.1741657686

	Energy change for the previous step:
		Projected    :         0.0000108461
		Actual       :        -0.0000008945

	Performing BFGS update.
	Previous computed or guess Hessian on step 1.
	Steps to be used in Hessian update: 3 2
	Taking RFO optimization step.
	Going to follow RFO solution 1.
	Using RFO vector 1.
	Norm of target step-size    0.03211
	Projected energy change by RFO approximation:         0.0000003814

	Back-transformation to cartesian coordinates...
	Successfully converged to displaced geometry.

	Back-transformation to cartesian coordinates to adjust frozen coordinates...
	Successfully converged to displaced geometry.

	--- Internal Coordinate Step in ANG or DEG, aJ/ANG or AJ/DEG ---
	 ---------------------------------------------------------------------------
	   Coordinate                Previous        Force       Change         New 
	   ----------                --------       ------       ------       ------
	    1 R(1,2)          =      0.946830    -0.000370     0.000012     0.946842
	    2 R(2,3)          =      1.406931     0.000080     0.000018     1.406949
	    3 R(3,4)          =      1.533982    -0.000561    -0.000206     1.533776
	    4 R(3,5)          =      1.088609    -0.000025    -0.000060     1.088548
	    5 R(3,6)          =      1.087653    -0.000010    -0.000008     1.087645
	    6 R(4,7)          =      1.530753    -0.000023    -0.000029     1.530724
	    7 R(4,8)          =      1.086648     0.000001    -0.000041     1.086607
	    8 R(4,9)          =      1.084277     0.000091     0.000031     1.084308
	    9 R(7,10)         =      1.529083    -0.000401     0.000010     1.529092
	   10 R(7,11)         =      1.089541    -0.000244    -0.000091     1.089450
	   11 R(7,12)         =      1.088541     0.000058     0.000019     1.088560
	   12 R(10,13)        =      1.528272    -0.000087     0.000005     1.528277
	   13 R(10,14)        =      1.088014     0.000071     0.000008     1.088022
	   14 R(10,15)        =      1.087798    -0.000053     0.000013     1.087811
	   15 R(13,16)        =      1.086472     0.000052     0.000000     1.086472
	   16 R(13,17)        =      1.085622    -0.000040     0.000007     1.085629
	   17 R(13,18)        =      1.086341    -0.000004     0.000003     1.086343
	   18 B(1,2,3)        =    109.505556    -0.000007     0.012834   109.518390
	   19 B(2,3,4)        =    108.743818    -0.000008     0.005653   108.749471
	   20 B(2,3,5)        =    109.758223     0.000003    -0.009204   109.749019
	   21 B(2,3,6)        =    110.351735     0.000005    -0.015303   110.336432
	   22 B(3,4,7)        =    113.340856    -0.000001     0.002969   113.343825
	   23 B(3,4,8)        =    109.939416    -0.000000    -0.048285   109.891131
	   24 B(3,4,9)        =    107.622421     0.000001     0.021244   107.643665
	   25 B(4,3,5)        =    110.115671     0.000002     0.008423   110.124094
	   26 B(4,3,6)        =    110.721102    -0.000001    -0.009792   110.711310
	   27 B(4,7,10)       =    113.133203    -0.000002     0.001038   113.134241
	   28 B(4,7,11)       =    109.557021     0.000000    -0.029939   109.527082
	   29 B(4,7,12)       =    109.141325     0.000002     0.013007   109.154332
	   30 B(5,3,6)        =    107.141634    -0.000000     0.020143   107.161778
	   31 B(7,4,8)        =    108.748038     0.000001     0.002833   108.750870
	   32 B(7,4,9)        =    109.855882    -0.000000     0.003041   109.858923
	   33 B(7,10,13)      =    113.016708    -0.000002     0.000458   113.017166
	   34 B(7,10,14)      =    109.342973     0.000001    -0.003203   109.339770
	   35 B(7,10,15)      =    109.236645    -0.000001     0.004253   109.240897
	   36 B(8,4,9)        =    107.152286    -0.000001     0.019240   107.171526
	   37 B(10,7,11)      =    109.153539    -0.000000     0.007078   109.160618
	   38 B(10,7,12)      =    109.364120     0.000001     0.001181   109.365301
	   39 B(10,13,16)     =    111.166208     0.000001     0.000925   111.167133
	   40 B(10,13,17)     =    111.256354    -0.000001     0.000919   111.257274
	   41 B(10,13,18)     =    111.149934    -0.000001     0.000021   111.149956
	   42 B(11,7,12)      =    106.260353    -0.000000     0.008116   106.268469
	   43 B(13,10,14)     =    109.364326    -0.000000    -0.001526   109.362800
	   44 B(13,10,15)     =    109.397185     0.000002     0.001240   109.398424
	   45 B(14,10,15)     =    106.258507    -0.000000    -0.001331   106.257176
	   46 B(16,13,17)     =    107.712707     0.000000    -0.000317   107.712390
	   47 B(16,13,18)     =    107.663584    -0.000000    -0.001397   107.662187
	   48 B(17,13,18)     =    107.718267     0.000001    -0.000268   107.717999
	   49 D(1,2,3,4)      =    178.468560    -0.000000    -0.025993   178.442567
	   50 D(1,2,3,5)      =    -61.015055    -0.000000    -0.017778   -61.032833
	   51 D(1,2,3,6)      =     56.841774     0.000001    -0.007930    56.833844
	   52 D(2,3,4,7)      =    128.067616    -0.000000     0.029719   128.097335
	   53 *D(2,3,4,8)     =   -109.999993     0.000000     0.000000  -109.999993
	   54 D(2,3,4,9)      =      6.384989    -0.000000     0.009034     6.394022
	   55 D(3,4,7,10)     =    179.762393    -0.000001    -0.554435   179.207958
	   56 D(3,4,7,11)     =     57.730036    -0.000000    -0.542513    57.187523
	   57 D(3,4,7,12)     =    -58.235758    -0.000000    -0.542843   -58.778601
	   58 D(4,7,10,13)    =    179.518361     0.000000     0.339387   179.857748
	   59 D(4,7,10,14)    =    -58.413167     0.000000     0.335432   -58.077734
	   60 D(4,7,10,15)    =     57.484386     0.000000     0.334429    57.818815
	   61 D(5,3,4,7)      =      7.772171    -0.000000     0.032369     7.804541
	   62 D(5,3,4,8)      =    129.704562     0.000000     0.002650   129.707212
	   63 D(5,3,4,9)      =   -113.910456     0.000000     0.011684  -113.898772
	   64 D(6,3,4,7)      =   -110.531271    -0.000000     0.008264  -110.523007
	   65 D(6,3,4,8)      =     11.401119     0.000000    -0.021455    11.379665
	   66 D(6,3,4,9)      =    127.786102    -0.000000    -0.012421   127.773681
	   67 D(7,10,13,16)   =     60.013234     0.000000    -0.074244    59.938990
	   68 D(7,10,13,17)   =   -179.940951     0.000000    -0.073405  -180.014355
	   69 D(7,10,13,18)   =    -59.899052    -0.000000    -0.073112   -59.972164
	   70 D(8,4,7,10)     =     57.167472    -0.000000    -0.496557    56.670916
	   71 D(8,4,7,11)     =    -64.864885    -0.000000    -0.484635   -65.349519
	   72 D(8,4,7,12)     =    179.169322    -0.000000    -0.484965   178.684356
	   73 D(9,4,7,10)     =    -59.813432    -0.000000    -0.523077   -60.336510
	   74 D(9,4,7,11)     =    178.154211    -0.000000    -0.511155   177.643055
	   75 D(9,4,7,12)     =     62.188417    -0.000000    -0.511486    61.676931
	   76 D(11,7,10,13)   =    -58.223733     0.000000     0.306818   -57.916915
	   77 D(11,7,10,14)   =     63.844740     0.000000     0.302863    64.147603
	   78 D(11,7,10,15)   =    179.742292     0.000000     0.301860   180.044152
	   79 D(12,7,10,13)   =     57.641335     0.000000     0.321148    57.962484
	   80 D(12,7,10,14)   =    179.709808     0.000000     0.317194   180.027002
	   81 D(12,7,10,15)   =    -64.392640     0.000000     0.316190   -64.076449
	   82 D(14,10,13,16)  =    -62.043265    -0.000000    -0.069348   -62.112613
	   83 D(14,10,13,17)  =     58.002551     0.000000    -0.068509    57.934042
	   84 D(14,10,13,18)  =    178.044450    -0.000000    -0.068217   177.976233
	   85 D(15,10,13,16)  =   -178.042886    -0.000000    -0.067589  -178.110475
	   86 D(15,10,13,17)  =    -57.997071    -0.000000    -0.066749   -58.063820
	   87 D(15,10,13,18)  =     62.044828    -0.000000    -0.066457    61.978371
	 ---------------------------------------------------------------------------

  ==> Convergence Check <==

  Measures of convergence in internal coordinates in au.
  Criteria marked as inactive (o), active & met (*), and active & unmet ( ).
  ---------------------------------------------------------------------------------------------
   Step     Total Energy     Delta E     MAX Force     RMS Force      MAX Disp      RMS Disp   
  ---------------------------------------------------------------------------------------------
    Convergence Criteria    1.00e-06 *    3.00e-04 *             o    1.20e-03 *             o
  ---------------------------------------------------------------------------------------------
      4    -271.17416577   -8.95e-07 *    1.07e-04 *    2.39e-05 o    9.68e-03      3.44e-03 o  ~
  ---------------------------------------------------------------------------------------------


  **** Optimization is complete! (in 4 steps) ****

  ==> Optimization Summary <==

  Measures of convergence in internal coordinates in au.
  --------------------------------------------------------------------------------------------------------------- ~
   Step         Total Energy             Delta E       MAX Force       RMS Force        MAX Disp        RMS Disp  ~
  --------------------------------------------------------------------------------------------------------------- ~
      1    -271.173772251686   -271.173772251686      0.01104983      0.00152676      0.03877684      0.01138227  ~
      2    -271.174086455012     -0.000314203326      0.00403539      0.00068072      0.00914616      0.00336507  ~
      3    -271.174164874085     -0.000078419073      0.00038674      0.00008140      0.00926016      0.00298353  ~
      4    -271.174165768600     -0.000000894515      0.00010689      0.00002387      0.00967671      0.00344202  ~
  --------------------------------------------------------------------------------------------------------------- ~

	Writing optimization data to binary file.
	Final energy is   -271.1741657685997
	Final (previous) structure:
	Cartesian Geometry (in Angstrom)
	    H    -3.4601875186   0.6575313464   1.0961073973
	    O    -2.6063347329   0.9533782524   0.8134483598
	    C    -1.9683712562  -0.0728790501   0.0928557199
	    C    -0.6044138968   0.4375675789  -0.3889796442
	    H    -1.8375376199  -0.9445951212   0.7316533079
	    H    -2.5830320882  -0.3820873751  -0.7495048714
	    C     0.5552067387  -0.4917116094  -0.0216575844
	    H    -0.6180411773   0.5695626741  -1.4674955429
	    H    -0.4459468752   1.4158469184   0.0509237024
	    C     1.9116411814   0.0186873504  -0.5091741099
	    H     0.3750520303  -1.4820893505  -0.4385467396
	    H     0.5838567896  -0.6166336906   1.0593119383
	    C     3.0688246201  -0.9051349330  -0.1308963771
	    H     1.8842533506   0.1385218161  -1.5902222053
	    H     2.0908580334   1.0094475642  -0.0973734285
	    H     2.9357064842  -1.8954905142  -0.5573902627
	    H     4.0166716970  -0.5157775510  -0.4894528991
	    H     3.1441779484  -1.0178198708   0.9469534463
	Saving final (previous) structure.
			--------------------------
			 OPTKING Finished Execution 
			--------------------------

    Final optimized geometry and variables:
    Molecular point group: c1
    Full point group: C1

    Geometry (in Angstrom), charge = 0, multiplicity = 1:

    H           -3.460187254332     0.657531296159     1.096107313587
    O           -2.606334533840     0.953378179635     0.813448297640
    C           -1.968371105923    -0.072879044564     0.092855712838
    C           -0.604413850629     0.437567545528    -0.388979614470
    H           -1.837537479608    -0.944595049116     0.731653252074
    H           -2.583031890968    -0.382087345898    -0.749504814127
    C            0.555206696268    -0.491711571804    -0.021657582767
    H           -0.618041130070     0.569562630618    -1.467495430809
    H           -0.445946841147     1.415846810296     0.050923698541
    C            1.911641035376     0.018687348993    -0.509174071054
    H            0.375052001687    -1.482089237292    -0.438546706147
    H            0.583856745002    -0.616633643538     1.059311857369
    C            3.068824385711    -0.905134863863    -0.130896367091
    H            1.884253206674     0.138521805551    -1.590222083857
    H            2.090857873777     1.009447487090    -0.097373421084
    H            2.935706260016    -1.895490369485    -0.557390220162
    H            4.016671390237    -0.515777511615    -0.489452861763
    H            3.144177708340    -1.017819793057     0.946953374033

	Cleaning optimization helper files.


Properties will be evaluated at   0.000000,   0.000000,   0.000000 Bohr

Properties computed using the  density matrix

  Nuclear Dipole Moment: (a.u.)
     X:     5.6928      Y:    -2.8674      Z:    -1.4070

  Electronic Dipole Moment: (a.u.)
     X:    -5.9447      Y:     2.2948      Z:     1.2842

  Dipole Moment: (a.u.)
     X:    -0.2519      Y:    -0.5726      Z:    -0.1228     Total:     0.6375

  Dipole Moment: (Debye)
     X:    -0.6403      Y:    -1.4555      Z:    -0.3121     Total:     1.6204

  Quadrupole Moment: (Debye Ang)
    XX:   -34.8916     YY:   -42.6533     ZZ:   -39.8546
    XY:     3.8718     XZ:    -0.8621     YZ:    -0.9022

  Traceless Quadrupole Moment: (Debye Ang)
    XX:     4.2415     YY:    -3.5201     ZZ:    -0.7214
    XY:     3.8718     XZ:    -0.8621     YZ:    -0.9022

  Mulliken Charges: (a.u.)
   Center  Symbol    Alpha    Beta     Spin     Total
       1     H     0.28206  0.28206  0.00000  0.43588
       2     O     4.37133  4.37133  0.00000 -0.74265
       3     C     2.99500  2.99500  0.00000  0.01000
       4     C     3.16519  3.16519  0.00000 -0.33039
       5     H     0.42935  0.42935  0.00000  0.14130
       6     H     0.43037  0.43037  0.00000  0.13925
       7     C     3.15846  3.15846  0.00000 -0.31692
       8     H     0.42027  0.42027  0.00000  0.15946
       9     H     0.40332  0.40332  0.00000  0.19336
      10     C     3.15205  3.15205  0.00000 -0.30409
      11     H     0.42555  0.42555  0.00000  0.14891
      12     H     0.42059  0.42059  0.00000  0.15883
      13     C     3.23928  3.23928  0.00000 -0.47856
      14     H     0.42315  0.42315  0.00000  0.15370
      15     H     0.42112  0.42112  0.00000  0.15776
      16     H     0.42236  0.42236  0.00000  0.15528
      17     H     0.41916  0.41916  0.00000  0.16168
      18     H     0.42140  0.42140  0.00000  0.15719

   Total alpha = 25.00000, Total beta = 25.00000, Total charge = -0.00000


*** PSI4 exiting successfully. Buy a developer a beer!
