    -----------------------------------------------------------------------
          Psi4: An Open-Source Ab Initio Electronic Structure Package
                              Psi4 (no tag) Driver

                          Git: Rev {detached?}  

    J. M. Turney, A. C. Simmonett, R. M. Parrish, E. G. Hohenstein,
    F. A. Evangelista, J. T. Fermann, B. J. Mintz, L. A. Burns, J. J. Wilke,
    M. L. Abrams, N. J. Russ, M. L. Leininger, C. L. Janssen, E. T. Seidl,
    W. D. Allen, H. F. Schaefer, R. A. King, E. F. Valeev, C. D. Sherrill,
    and T. D. Crawford, WIREs Comput. Mol. Sci. 2, 556-565 (2012)
    (doi: 10.1002/wcms.93)

                         Additional Contributions by
    A. E. DePrince, M. Saitow, U. Bozkaya, A. Yu. Sokolov
    -----------------------------------------------------------------------


    Psi4 started on: Thu Sep  1 22:11:10 2016

    Process ID:  13760
    PSI4DATADIR: /export131/home/mjharvey/miniconda3/share
    Memory level set to 256.000 MB

  ==> Input File <==

--------------------------------------------------------------------------
set {
	reference rhf
	basis 6-31G*
}


set_num_threads( 1 )
memory 2 gb

molecule MOL {
0 1

H	 3.276176	 0.174363	 -0.109463
N	 2.434251	 -0.367735	 -0.081097
C	 1.267428	 0.496480	 0.024474
H	 2.501951	 -0.965776	 0.720575
C	 -0.016086	 -0.325158	 -0.029487
H	 1.288818	 1.183521	 -0.816092
H	 1.267576	 1.109062	 0.929528
C	 -1.282277	 0.529072	 0.046735
H	 -0.012495	 -0.908639	 -0.945788
H	 -0.015903	 -1.041248	 0.791956
C	 -1.121982	 1.891034	 -0.627853
H	 -1.556356	 0.674844	 1.089624
H	 -2.110393	 -0.005306	 -0.414371
H	 -0.323767	 2.464865	 -0.166017
H	 -2.034073	 2.475446	 -0.556620
H	 -0.881274	 1.780460	 -1.681444

	symmetry c1
}
set optking {
	frozen_dihedral = ("
		6 3 5 9,
		1 2 3 6
	")
}

ee = energy('scf')
oeprop('DIPOLE', 'QUADRUPOLE', 'MULLIKEN_CHARGES')
f=open( 'psi4out.xyz', 'w' )
f.write( "16  " )
f.write( str(ee) + "\n" )
f.write( MOL.save_string_xyz() )
f.close()
--------------------------------------------------------------------------

  Memory set to   2.000 GiB by Python script.

*** tstart() called on cx1-3-6-1.cx1.hpc.ic.ac.uk
*** at Thu Sep  1 22:11:11 2016


         ---------------------------------------------------------
                                   SCF
            by Justin Turney, Rob Parrish, and Andy Simmonett
                              RHF Reference
                        1 Threads,   2000 MiB Core
         ---------------------------------------------------------

  ==> Geometry <==

    Molecular point group: c1
    Full point group: C1

    Geometry (in Angstrom), charge = 0, multiplicity = 1:

       Center              X                  Y                   Z               Mass       
    ------------   -----------------  -----------------  -----------------  -----------------
           H          2.979781662824    -0.276369099777     0.018276255938     1.007825032070
           N          2.137856662824    -0.818467099777     0.046642255938    14.003074004780
           C          0.971033662824     0.045747900223     0.152213255938    12.000000000000
           H          2.205556662824    -1.416508099777     0.848314255938     1.007825032070
           C         -0.312480337176    -0.775890099777     0.098252255938    12.000000000000
           H          0.992423662824     0.732788900223    -0.688352744062     1.007825032070
           H          0.971181662824     0.658329900223     1.057267255938     1.007825032070
           C         -1.578671337176     0.078339900223     0.174474255938    12.000000000000
           H         -0.308889337176    -1.359371099777    -0.818048744062     1.007825032070
           H         -0.312297337176    -1.491980099777     0.919695255938     1.007825032070
           C         -1.418376337176     1.440301900223    -0.500113744062    12.000000000000
           H         -1.852750337176     0.224111900223     1.217363255938     1.007825032070
           H         -2.406787337176    -0.456038099777    -0.286631744062     1.007825032070
           H         -0.620161337176     2.014132900223    -0.038277744062     1.007825032070
           H         -2.330467337176     2.024713900223    -0.428880744062     1.007825032070
           H         -1.177668337176     1.329727900223    -1.553704744062     1.007825032070

  Running in c1 symmetry.

  Rotational constants: A =      0.37257  B =      0.08569  C =      0.07461 [cm^-1]
  Rotational constants: A =  11169.46544  B =   2568.93441  C =   2236.60856 [MHz]
  Nuclear repulsion =  190.798279131368020

  Charge       = 0
  Multiplicity = 1
  Electrons    = 42
  Nalpha       = 21
  Nbeta        = 21

  ==> Algorithm <==

  SCF Algorithm Type is DF.
  DIIS enabled.
  MOM disabled.
  Fractional occupation disabled.
  Guess Type is CORE.
  Energy threshold   = 1.00e-06
  Density threshold  = 1.00e-06
  Integral threshold = 0.00e+00

  ==> Primary Basis <==

  Basis Set: 6-31G*
    Number of shells: 52
    Number of basis function: 97
    Number of Cartesian functions: 97
    Spherical Harmonics?: false
    Max angular momentum: 2

  ==> Pre-Iterations <==

   -------------------------------------------------------
    Irrep   Nso     Nmo     Nalpha   Nbeta   Ndocc  Nsocc
   -------------------------------------------------------
     A         97      97       0       0       0       0
   -------------------------------------------------------
    Total      97      97      21      21      21       0
   -------------------------------------------------------

 OEINTS: Overlap, kinetic, potential, dipole, and quadrupole integrals
         stored in file 35.

  ==> Integral Setup <==

  ==> DFJK: Density-Fitted J/K Matrices <==

    J tasked:                  Yes
    K tasked:                  Yes
    wK tasked:                  No
    OpenMP threads:              1
    Integrals threads:           1
    Memory (MB):              1430
    Algorithm:                Core
    Integral Cache:           NONE
    Schwarz Cutoff:          1E-12
    Fitting Condition:       1E-12

   => Auxiliary Basis Set <=

  Basis Set: 
    Number of shells: 219
    Number of basis function: 680
    Number of Cartesian functions: 680
    Spherical Harmonics?: false
    Max angular momentum: 3

  Minimum eigenvalue in the overlap matrix is 3.7103048813E-03.
  Using Symmetric Orthogonalization.
  SCF Guess: Core (One-Electron) Hamiltonian.

  ==> Iterations <==

                           Total Energy        Delta E     RMS |[F,P]|

   @DF-RHF iter   1:  -165.58658227346513   -1.65587e+02   7.61415e-02 
   @DF-RHF iter   2:  -147.77241557129065    1.78142e+01   6.78811e-02 DIIS
   @DF-RHF iter   3:  -183.69615562063325   -3.59237e+01   4.77762e-02 DIIS
   @DF-RHF iter   4:  -191.24773816294402   -7.55158e+00   4.80692e-02 DIIS
   @DF-RHF iter   5:  -211.84923475279442   -2.06015e+01   9.63739e-03 DIIS
   @DF-RHF iter   6:  -212.24239844815992   -3.93164e-01   3.59483e-03 DIIS
   @DF-RHF iter   7:  -212.30123630947730   -5.88379e-02   1.15418e-03 DIIS
   @DF-RHF iter   8:  -212.30925959184361   -8.02328e-03   3.15598e-04 DIIS
   @DF-RHF iter   9:  -212.30993837396852   -6.78782e-04   1.02662e-04 DIIS
   @DF-RHF iter  10:  -212.31001550687932   -7.71329e-05   2.62987e-05 DIIS
   @DF-RHF iter  11:  -212.31002086775140   -5.36087e-06   8.48671e-06 DIIS
   @DF-RHF iter  12:  -212.31002137838897   -5.10638e-07   2.21357e-06 DIIS
   @DF-RHF iter  13:  -212.31002141968474   -4.12958e-08   4.99923e-07 DIIS

  ==> Post-Iterations <==

    Orbital Energies (a.u.)
    -----------------------

    Doubly Occupied:                                                      

       1A    -15.532129     2A    -11.238808     3A    -11.214457  
       4A    -11.208970     5A    -11.207608     6A     -1.176485  
       7A     -1.061731     8A     -0.950588     9A     -0.865786  
      10A     -0.772629    11A     -0.664219    12A     -0.637089  
      13A     -0.610880    14A     -0.589660    15A     -0.541564  
      16A     -0.531271    17A     -0.514086    18A     -0.468131  
      19A     -0.459932    20A     -0.455325    21A     -0.380608  

    Virtual:                                                              

      22A      0.226162    23A      0.241705    24A      0.270119  
      25A      0.285834    26A      0.312123    27A      0.315060  
      28A      0.325901    29A      0.337683    30A      0.349940  
      31A      0.357613    32A      0.390837    33A      0.395033  
      34A      0.442836    35A      0.466496    36A      0.479069  
      37A      0.726634    38A      0.739158    39A      0.757254  
      40A      0.780510    41A      0.790573    42A      0.830892  
      43A      0.878535    44A      0.932523    45A      0.959438  
      46A      0.976064    47A      1.010066    48A      1.044960  
      49A      1.078079    50A      1.142642    51A      1.146606  
      52A      1.158136    53A      1.173090    54A      1.189587  
      55A      1.194219    56A      1.205565    57A      1.227322  
      58A      1.233365    59A      1.240584    60A      1.261527  
      61A      1.288469    62A      1.318708    63A      1.340559  
      64A      1.605719    65A      1.610767    66A      1.721186  
      67A      1.729273    68A      1.750998    69A      1.858854  
      70A      2.006723    71A      2.009267    72A      2.103104  
      73A      2.185312    74A      2.229230    75A      2.276365  
      76A      2.295672    77A      2.322558    78A      2.365977  
      79A      2.442643    80A      2.463163    81A      2.565224  
      82A      2.575774    83A      2.659437    84A      2.697063  
      85A      2.717762    86A      2.732883    87A      2.797616  
      88A      2.864726    89A      2.942276    90A      2.992465  
      91A      3.094286    92A      3.182380    93A      4.221430  
      94A      4.588803    95A      4.715966    96A      4.804747  
      97A      4.985864  

    Final Occupation by Irrep:
              A 
    DOCC [    21 ]

  Energy converged.

  @DF-RHF Final Energy:  -212.31002141968474

   => Energetics <=

    Nuclear Repulsion Energy =            190.7982791313680195
    One-Electron Energy =                -664.0525673702017002
    Two-Electron Energy =                 260.9442668191491634
    DFT Exchange-Correlation Energy =       0.0000000000000000
    Empirical Dispersion Energy =           0.0000000000000000
    PCM Polarization Energy =               0.0000000000000000
    EFP Energy =                            0.0000000000000000
    Total Energy =                       -212.3100214196845172

    Alert: EFP and PCM quantities not currently incorporated into SCF psivars.

Properties will be evaluated at   0.000000,   0.000000,   0.000000 Bohr
  ==> Properties <==


Properties computed using the SCF density matrix

  Nuclear Dipole Moment: (a.u.)
     X:    -1.7500      Y:     1.8619      Z:     0.2314

  Electronic Dipole Moment: (a.u.)
     X:     1.8119      Y:    -1.5764      Z:     0.2370

  Dipole Moment: (a.u.)
     X:     0.0620      Y:     0.2854      Z:     0.4684     Total:     0.5520

  Dipole Moment: (Debye)
     X:     0.1575      Y:     0.7255      Z:     1.1906     Total:     1.4031


  Saving occupied orbitals to File 180.

*** tstop() called on cx1-3-6-1.cx1.hpc.ic.ac.uk at Thu Sep  1 22:11:17 2016
Module time:
	user time   =       5.78 seconds =       0.10 minutes
	system time =       0.03 seconds =       0.00 minutes
	total time  =          6 seconds =       0.10 minutes
Total time:
	user time   =       5.78 seconds =       0.10 minutes
	system time =       0.03 seconds =       0.00 minutes
	total time  =          6 seconds =       0.10 minutes


Properties will be evaluated at   0.000000,   0.000000,   0.000000 Bohr

Properties computed using the  density matrix

  Nuclear Dipole Moment: (a.u.)
     X:    -1.7500      Y:     1.8619      Z:     0.2314

  Electronic Dipole Moment: (a.u.)
     X:     1.8119      Y:    -1.5764      Z:     0.2370

  Dipole Moment: (a.u.)
     X:     0.0620      Y:     0.2854      Z:     0.4684     Total:     0.5520

  Dipole Moment: (Debye)
     X:     0.1575      Y:     0.7255      Z:     1.1906     Total:     1.4031

  Quadrupole Moment: (Debye Ang)
    XX:   -32.3025     YY:   -35.5524     ZZ:   -33.9248
    XY:     1.9557     XZ:     2.9503     YZ:    -2.0713

  Traceless Quadrupole Moment: (Debye Ang)
    XX:     1.6241     YY:    -1.6258     ZZ:     0.0018
    XY:     1.9557     XZ:     2.9503     YZ:    -2.0713

  Mulliken Charges: (a.u.)
   Center  Symbol    Alpha    Beta     Spin     Total
       1     H     0.33268  0.33268  0.00000  0.33465
       2     N     3.92182  3.92182  0.00000 -0.84364
       3     C     3.06592  3.06592  0.00000 -0.13184
       4     H     0.33566  0.33566  0.00000  0.32868
       5     C     3.15231  3.15231  0.00000 -0.30463
       6     H     0.41647  0.41647  0.00000  0.16705
       7     H     0.43473  0.43473  0.00000  0.13054
       8     C     3.15508  3.15508  0.00000 -0.31016
       9     H     0.41285  0.41285  0.00000  0.17430
      10     H     0.42545  0.42545  0.00000  0.14911
      11     C     3.24790  3.24790  0.00000 -0.49580
      12     H     0.42285  0.42285  0.00000  0.15429
      13     H     0.41890  0.41890  0.00000  0.16220
      14     H     0.41910  0.41910  0.00000  0.16179
      15     H     0.41833  0.41833  0.00000  0.16334
      16     H     0.41994  0.41994  0.00000  0.16012

   Total alpha = 21.00000, Total beta = 21.00000, Total charge = -0.00000


*** PSI4 exiting successfully. Buy a developer a beer!
