    -----------------------------------------------------------------------
          Psi4: An Open-Source Ab Initio Electronic Structure Package
                              Psi4 (no tag) Driver

                          Git: Rev {detached?}  

    J. M. Turney, A. C. Simmonett, R. M. Parrish, E. G. Hohenstein,
    F. A. Evangelista, J. T. Fermann, B. J. Mintz, L. A. Burns, J. J. Wilke,
    M. L. Abrams, N. J. Russ, M. L. Leininger, C. L. Janssen, E. T. Seidl,
    W. D. Allen, H. F. Schaefer, R. A. King, E. F. Valeev, C. D. Sherrill,
    and T. D. Crawford, WIREs Comput. Mol. Sci. 2, 556-565 (2012)
    (doi: 10.1002/wcms.93)

                         Additional Contributions by
    A. E. DePrince, M. Saitow, U. Bozkaya, A. Yu. Sokolov
    -----------------------------------------------------------------------


    Psi4 started on: Fri Sep  2 11:52:50 2016

    Process ID:   2707
    PSI4DATADIR: /export131/home/mjharvey/miniconda3/share
    Memory level set to 256.000 MB

  ==> Input File <==

--------------------------------------------------------------------------
set {
	reference rhf
	basis 6-31G*
}


set_num_threads( 4 )
memory 2 gb

molecule MOL {
0 1

H	 1.156195	 0.885591	 1.825040
O	 1.366598	 0.264196	 1.141336
C	 0.709265	 0.639550	 -0.033818
C	 -0.793441	 0.596080	 0.058728
H	 1.046815	 -0.047216	 -0.801682
H	 1.018969	 1.635324	 -0.349321
C	 -1.530462	 -0.493172	 -0.025500
H	 -1.268471	 1.554324	 0.202247
H	 -1.092586	 -1.461565	 -0.186463
H	 -2.602122	 -0.450675	 0.050101

	symmetry c1
}
set optking {
	frozen_dihedral = ("
		5 3 4 7
	")
}

ee = optimize('scf')
oeprop('DIPOLE', 'QUADRUPOLE', 'MULLIKEN_CHARGES')
f=open( 'psi4out.xyz', 'w' )
f.write( "10  " )
f.write( str(ee) + "\n" )
f.write( MOL.save_string_xyz() )
f.close()
--------------------------------------------------------------------------

  Memory set to   2.000 GiB by Python script.
gradient() will perform analytic gradient computation.

*** tstart() called on cx1-5-7-1.cx1.hpc.ic.ac.uk
*** at Fri Sep  2 11:52:50 2016


         ---------------------------------------------------------
                                   SCF
            by Justin Turney, Rob Parrish, and Andy Simmonett
                              RHF Reference
                        4 Threads,   2000 MiB Core
         ---------------------------------------------------------

  ==> Geometry <==

    Molecular point group: c1
    Full point group: C1

    Geometry (in Angstrom), charge = 0, multiplicity = 1:

       Center              X                  Y                   Z               Mass       
    ------------   -----------------  -----------------  -----------------  -----------------
           H          1.143649962280     0.622545910355     1.497789939253     1.007825032070
           O          1.354052962280     0.001150910355     0.814085939253    15.994914619560
           C          0.696719962280     0.376504910355    -0.361068060747    12.000000000000
           C         -0.805986037720     0.333034910355    -0.268522060747    12.000000000000
           H          1.034269962280    -0.310261089645    -1.128932060747     1.007825032070
           H          1.006423962280     1.372278910355    -0.676571060747     1.007825032070
           C         -1.543007037720    -0.756217089645    -0.352750060747    12.000000000000
           H         -1.281016037720     1.291278910355    -0.125003060747     1.007825032070
           H         -1.105131037720    -1.724610089645    -0.513713060747     1.007825032070
           H         -2.614667037720    -0.713720089645    -0.277149060747     1.007825032070

  Running in c1 symmetry.

  Rotational constants: A =      0.70132  B =      0.16083  C =      0.14881 [cm^-1]
  Rotational constants: A =  21025.04406  B =   4821.43575  C =   4461.25080 [MHz]
  Nuclear repulsion =  117.964356232285752

  Charge       = 0
  Multiplicity = 1
  Electrons    = 32
  Nalpha       = 16
  Nbeta        = 16

  ==> Algorithm <==

  SCF Algorithm Type is DF.
  DIIS enabled.
  MOM disabled.
  Fractional occupation disabled.
  Guess Type is CORE.
  Energy threshold   = 1.00e-08
  Density threshold  = 1.00e-08
  Integral threshold = 0.00e+00

  ==> Primary Basis <==

  Basis Set: 6-31G*
    Number of shells: 36
    Number of basis function: 72
    Number of Cartesian functions: 72
    Spherical Harmonics?: false
    Max angular momentum: 2

  ==> Pre-Iterations <==

   -------------------------------------------------------
    Irrep   Nso     Nmo     Nalpha   Nbeta   Ndocc  Nsocc
   -------------------------------------------------------
     A         72      72       0       0       0       0
   -------------------------------------------------------
    Total      72      72      16      16      16       0
   -------------------------------------------------------

 OEINTS: Overlap, kinetic, potential, dipole, and quadrupole integrals
         stored in file 35.

  ==> Integral Setup <==

  ==> DFJK: Density-Fitted J/K Matrices <==

    J tasked:                  Yes
    K tasked:                  Yes
    wK tasked:                  No
    OpenMP threads:              4
    Integrals threads:           4
    Memory (MB):              1430
    Algorithm:                Core
    Integral Cache:           NONE
    Schwarz Cutoff:          1E-12
    Fitting Condition:       1E-12

   => Auxiliary Basis Set <=

  Basis Set: 
    Number of shells: 150
    Number of basis function: 474
    Number of Cartesian functions: 474
    Spherical Harmonics?: false
    Max angular momentum: 3

  Minimum eigenvalue in the overlap matrix is 4.7745004268E-03.
  Using Symmetric Orthogonalization.
  SCF Guess: Core (One-Electron) Hamiltonian.

  ==> Iterations <==

                           Total Energy        Delta E     RMS |[F,P]|

   @DF-RHF iter   1:  -158.04013130806834   -1.58040e+02   9.03648e-02 
   @DF-RHF iter   2:  -118.64225049308925    3.93979e+01   7.32561e-02 DIIS
   @DF-RHF iter   3:  -162.82119004609120   -4.41789e+01   6.80970e-02 DIIS
   @DF-RHF iter   4:  -184.91985433490476   -2.20987e+01   3.20529e-02 DIIS
   @DF-RHF iter   5:  -191.50922475959590   -6.58937e+00   1.23846e-02 DIIS
   @DF-RHF iter   6:  -191.89283722172217   -3.83612e-01   2.81715e-03 DIIS
   @DF-RHF iter   7:  -191.90606403994053   -1.32268e-02   1.37485e-03 DIIS
   @DF-RHF iter   8:  -191.90993163709334   -3.86760e-03   7.92775e-04 DIIS
   @DF-RHF iter   9:  -191.91170106752719   -1.76943e-03   2.55227e-04 DIIS
   @DF-RHF iter  10:  -191.91200501981382   -3.03952e-04   6.86114e-05 DIIS
   @DF-RHF iter  11:  -191.91204322851598   -3.82087e-05   3.52518e-05 DIIS
   @DF-RHF iter  12:  -191.91204891966044   -5.69114e-06   1.10731e-05 DIIS
   @DF-RHF iter  13:  -191.91204956585051   -6.46190e-07   1.41722e-06 DIIS
   @DF-RHF iter  14:  -191.91204957646585   -1.06153e-08   2.87491e-07 DIIS
   @DF-RHF iter  15:  -191.91204957700421   -5.38364e-10   6.00895e-08 DIIS
   @DF-RHF iter  16:  -191.91204957702809   -2.38742e-11   1.52461e-08 DIIS
   @DF-RHF iter  17:  -191.91204957702968   -1.59162e-12   3.60807e-09 DIIS

  ==> Post-Iterations <==

    Orbital Energies (a.u.)
    -----------------------

    Doubly Occupied:                                                      

       1A    -20.555875     2A    -11.273768     3A    -11.228184  
       4A    -11.225704     5A     -1.364575     6A     -1.060048  
       7A     -0.921491     8A     -0.777216     9A     -0.683795  
      10A     -0.654901    11A     -0.610563    12A     -0.576034  
      13A     -0.547120    14A     -0.476063    15A     -0.440091  
      16A     -0.371839  

    Virtual:                                                              

      17A      0.162911    18A      0.240802    19A      0.269784  
      20A      0.289071    21A      0.305038    22A      0.343125  
      23A      0.350326    24A      0.431942    25A      0.471005  
      26A      0.532043    27A      0.685349    28A      0.743736  
      29A      0.778357    30A      0.815919    31A      0.842239  
      32A      0.907736    33A      0.911223    34A      0.985666  
      35A      1.031688    36A      1.082143    37A      1.126297  
      38A      1.155495    39A      1.172178    40A      1.189624  
      41A      1.222165    42A      1.259689    43A      1.286070  
      44A      1.349580    45A      1.424780    46A      1.448122  
      47A      1.619633    48A      1.669674    49A      1.758173  
      50A      1.849538    51A      1.945332    52A      1.958394  
      53A      2.026701    54A      2.159493    55A      2.254162  
      56A      2.285340    57A      2.372146    58A      2.453019  
      59A      2.526729    60A      2.576128    61A      2.612422  
      62A      2.752074    63A      2.783748    64A      2.879441  
      65A      2.937962    66A      3.138860    67A      3.206128  
      68A      3.260989    69A      4.161472    70A      4.550798  
      71A      4.659381    72A      4.862686  

    Final Occupation by Irrep:
              A 
    DOCC [    16 ]

  Energy converged.

  @DF-RHF Final Energy:  -191.91204957702968

   => Energetics <=

    Nuclear Repulsion Energy =            117.9643562322857520
    One-Electron Energy =                -494.2182784138657325
    Two-Electron Energy =                 184.3418726045503035
    DFT Exchange-Correlation Energy =       0.0000000000000000
    Empirical Dispersion Energy =           0.0000000000000000
    PCM Polarization Energy =               0.0000000000000000
    EFP Energy =                            0.0000000000000000
    Total Energy =                       -191.9120495770296770

    Alert: EFP and PCM quantities not currently incorporated into SCF psivars.

Properties will be evaluated at   0.000000,   0.000000,   0.000000 Bohr
  ==> Properties <==


Properties computed using the SCF density matrix

  Nuclear Dipole Moment: (a.u.)
     X:    -1.6964      Y:     0.5039      Z:    -1.1432

  Electronic Dipole Moment: (a.u.)
     X:     1.2400      Y:     0.0261      Z:     1.0871

  Dipole Moment: (a.u.)
     X:    -0.4564      Y:     0.5300      Z:    -0.0561     Total:     0.7017

  Dipole Moment: (Debye)
     X:    -1.1600      Y:     1.3472      Z:    -0.1425     Total:     1.7835


  Saving occupied orbitals to File 180.

*** tstop() called on cx1-5-7-1.cx1.hpc.ic.ac.uk at Fri Sep  2 11:52:52 2016
Module time:
	user time   =       4.19 seconds =       0.07 minutes
	system time =       0.09 seconds =       0.00 minutes
	total time  =          2 seconds =       0.03 minutes
Total time:
	user time   =       4.19 seconds =       0.07 minutes
	system time =       0.09 seconds =       0.00 minutes
	total time  =          2 seconds =       0.03 minutes

*** tstart() called on cx1-5-7-1.cx1.hpc.ic.ac.uk
*** at Fri Sep  2 11:52:52 2016


         ------------------------------------------------------------
                                   SCF GRAD                          
                          Rob Parrish, Justin Turney,                
                       Andy Simmonett, and Alex Sokolov              
         ------------------------------------------------------------

  ==> Geometry <==

    Molecular point group: c1
    Full point group: C1

    Geometry (in Angstrom), charge = 0, multiplicity = 1:

       Center              X                  Y                   Z               Mass       
    ------------   -----------------  -----------------  -----------------  -----------------
           H          1.143649962280     0.622545910355     1.497789939253     1.007825032070
           O          1.354052962280     0.001150910355     0.814085939253    15.994914619560
           C          0.696719962280     0.376504910355    -0.361068060747    12.000000000000
           C         -0.805986037720     0.333034910355    -0.268522060747    12.000000000000
           H          1.034269962280    -0.310261089645    -1.128932060747     1.007825032070
           H          1.006423962280     1.372278910355    -0.676571060747     1.007825032070
           C         -1.543007037720    -0.756217089645    -0.352750060747    12.000000000000
           H         -1.281016037720     1.291278910355    -0.125003060747     1.007825032070
           H         -1.105131037720    -1.724610089645    -0.513713060747     1.007825032070
           H         -2.614667037720    -0.713720089645    -0.277149060747     1.007825032070

  Nuclear repulsion =  117.964356232285752

  ==> Basis Set <==

  Basis Set: 6-31G*
    Number of shells: 36
    Number of basis function: 72
    Number of Cartesian functions: 72
    Spherical Harmonics?: false
    Max angular momentum: 2

  ==> DFJKGrad: Density-Fitted SCF Gradients <==

    Gradient:                    1
    J tasked:                  Yes
    K tasked:                  Yes
    wK tasked:                  No
    OpenMP threads:              4
    Integrals threads:           4
    Memory (MB):              1430
    Schwarz Cutoff:          0E+00
    Fitting Condition:       1E-12

   => Auxiliary Basis Set <=

  Basis Set: 
    Number of shells: 150
    Number of basis function: 474
    Number of Cartesian functions: 474
    Spherical Harmonics?: false
    Max angular momentum: 3


  -Total Gradient:
     Atom            X                  Y                   Z
    ------   -----------------  -----------------  -----------------
       1        0.000001436227     0.001277868124    -0.000836055973
       2       -0.001868568634    -0.000961221438    -0.004218286757
       3       -0.002363129989     0.002141808241     0.010637418190
       4        0.002786521082    -0.005173649727    -0.000966309125
       5       -0.000741756720     0.000484932052    -0.002471153649
       6       -0.000322372502     0.000926262006    -0.001097613220
       7       -0.000602645446    -0.002251960621     0.001512850146
       8        0.003373705984     0.001362131788    -0.001580220027
       9       -0.000501817740     0.001379561820    -0.000325713580
      10        0.000238627738     0.000814267755    -0.000654916004


*** tstop() called on cx1-5-7-1.cx1.hpc.ic.ac.uk at Fri Sep  2 11:52:54 2016
Module time:
	user time   =       6.75 seconds =       0.11 minutes
	system time =       0.15 seconds =       0.00 minutes
	total time  =          2 seconds =       0.03 minutes
Total time:
	user time   =      10.95 seconds =       0.18 minutes
	system time =       0.24 seconds =       0.00 minutes
	total time  =          4 seconds =       0.07 minutes
CURRENT ENERGY: -191.9120495770

			-----------------------------------------
			 OPTKING 2.0: for geometry optimizations 
			  - R.A. King,  Bethel University        
			-----------------------------------------

	Internal coordinates to be generated automatically.
	Detected frag with atoms:  1 2 3 4 5 6 7 8 9 10
	---Fragment 1 Bond Connectivity---
	 1 : 2
	 2 : 1 3
	 3 : 2 4 5 6
	 4 : 3 7 8
	 5 : 3
	 6 : 3
	 7 : 4 9 10
	 8 : 4
	 9 : 7
	 10 : 7

	Assuming in current code that numbering for constraints corresponds to unified fragment.
	Frozen dihedral atom list: 
	     5     3     4     7
	---Fragment 1 Geometry and Gradient---
	 H           2.1611852206        1.1764412757        2.8304127898
	 O           2.5587892681        0.0021749054        1.5383994738
	 C           1.3166099200        0.7114911683       -0.6823197501
	 C          -1.5230928782        0.6293447733       -0.5074331555
	 H           1.9544869762       -0.5863084891       -2.1333724174
	 H           1.9018656623        2.5932313185       -1.2785340142
	 C          -2.9158607224       -1.4290431964       -0.6666010082
	 H          -2.4207694831        2.4401635017       -0.2362215506
	 H          -2.0883950022       -3.2590407554       -0.9707769957
	 H          -4.9410046300       -1.3487355050       -0.5237358228
	             0.0000014362        0.0012778681       -0.0008360560
	            -0.0018685686       -0.0009612214       -0.0042182868
	            -0.0023631300        0.0021418082        0.0106374182
	             0.0027865211       -0.0051736497       -0.0009663091
	            -0.0007417567        0.0004849321       -0.0024711536
	            -0.0003223725        0.0009262620       -0.0010976132
	            -0.0006026454       -0.0022519606        0.0015128501
	             0.0033737060        0.0013621318       -0.0015802200
	            -0.0005018177        0.0013795618       -0.0003257136
	             0.0002386277        0.0008142678       -0.0006549160

	Previous optimization step data not found.  Starting new optimization.

	---Fragment 1 Intrafragment Coordinates---
	 - Coordinate -           - BOHR/RAD -       - ANG/DEG -
	 R(1,2)           =         1.790611	       0.947551
	 R(2,3)           =         2.641540	       1.397843
	 R(3,4)           =         2.846269	       1.506181
	 R(3,5)           =         2.048591	       1.084068
	 R(3,6)           =         2.058869	       1.089507
	 R(4,7)           =         2.490401	       1.317864
	 R(4,8)           =         2.039226	       1.079112
	 R(7,9)           =         2.031284	       1.074909
	 R(7,10)          =         2.031765	       1.075164
	 B(1,2,3)         =         1.902957	     109.031378
	 B(2,3,4)         =         1.992985	     114.189631
	 B(2,3,5)         =         1.853488	     106.197026
	 B(2,3,6)         =         1.933923	     110.805652
	 B(3,4,7)         =         2.186939	     125.302398
	 B(3,4,8)         =         2.006152	     114.944017
	 B(4,3,5)         =         1.913350	     109.626880
	 B(4,3,6)         =         1.904745	     109.133865
	 B(4,7,9)         =         2.125131	     121.761030
	 B(4,7,10)        =         2.117962	     121.350265
	 B(5,3,6)         =         1.860197	     106.581451
	 B(7,4,8)         =         2.090088	     119.753241
	 B(9,7,10)        =         2.039996	     116.883145
	 D(1,2,3,4)       =        -1.113732	     -63.812138
	 D(1,2,3,5)       =         3.058903	     175.262237
	 D(1,2,3,6)       =         1.045523	      59.904038
	 D(2,3,4,7)       =        -1.378850	     -79.002293
	 D(2,3,4,8)       =         1.766498	     101.212888
	 D(3,4,7,9)       =        -0.016174	      -0.926729
	 D(3,4,7,10)      =         3.140858	     179.957913
	*D(5,3,4,7)       =         0.698131	      39.999988
	 D(5,3,4,8)       =        -2.439706	    -139.784831
	 D(6,3,4,7)       =         2.729457	     156.386386
	 D(6,3,4,8)       =        -0.408380	     -23.398433
	 D(8,4,7,9)       =         3.121496	     178.848535
	 D(8,4,7,10)      =        -0.004657	      -0.266823

	Current energy   :      -191.9120495770

	Generating empirical Hessian (Schlegel '84) for each fragment.
	Taking RFO optimization step.
	Going to follow RFO solution 1.
	Using RFO vector 1.
	Norm of target step-size    0.20238
	Projected energy change by RFO approximation:         0.0017551815

	Back-transformation to cartesian coordinates...
	Successfully converged to displaced geometry.

	Back-transformation to cartesian coordinates to adjust frozen coordinates...
	Successfully converged to displaced geometry.

	--- Internal Coordinate Step in ANG or DEG, aJ/ANG or AJ/DEG ---
	 ---------------------------------------------------------------------------
	   Coordinate                Previous        Force       Change         New 
	   ----------                --------       ------       ------       ------
	    1 R(1,2)          =      0.947551    -0.001932    -0.000213     0.947338
	    2 R(2,3)          =      1.397843     0.042942     0.005986     1.403829
	    3 R(3,4)          =      1.506181     0.043618     0.008801     1.514981
	    4 R(3,5)          =      1.084068    -0.009987    -0.001802     1.082266
	    5 R(3,6)          =      1.089507    -0.008838    -0.001624     1.087883
	    6 R(4,7)          =      1.317864    -0.004105    -0.000421     1.317442
	    7 R(4,8)          =      1.079112     0.004002     0.000710     1.079822
	    8 R(7,9)          =      1.074909     0.011522     0.002016     1.076925
	    9 R(7,10)         =      1.075164     0.002074     0.000363     1.075527
	   10 B(1,2,3)        =    109.031378     0.000162     0.756324   109.787703
	   11 B(2,3,4)        =    114.189631    -0.000133    -0.574602   113.615029
	   12 B(2,3,5)        =    106.197026    -0.000026    -0.242954   105.954072
	   13 B(2,3,6)        =    110.805652    -0.000024    -0.551236   110.254415
	   14 B(3,4,7)        =    125.302398    -0.000347    -1.213412   124.088986
	   15 B(3,4,8)        =    114.944017     0.000456     1.879233   116.823250
	   16 B(4,3,5)        =    109.626880     0.000146     0.946976   110.573857
	   17 B(4,3,6)        =    109.133865     0.000051     0.133735   109.267600
	   18 B(4,7,9)        =    121.761030    -0.000025    -0.122380   121.638650
	   19 B(4,7,10)       =    121.350265     0.000071     0.326936   121.677201
	   20 B(5,3,6)        =    106.581451    -0.000005     0.354460   106.935911
	   21 B(7,4,8)        =    119.753241    -0.000108    -0.754071   118.999170
	   22 B(9,7,10)       =    116.883145    -0.000044    -0.209692   116.673454
	   23 D(1,2,3,4)      =    -63.812138     0.000020     5.311172   -58.500966
	   24 D(1,2,3,5)      =    175.262237     0.000000     4.643696   179.905933
	   25 D(1,2,3,6)      =     59.904038     0.000008     4.633818    64.537857
	   26 D(2,3,4,7)      =    -79.002293     0.000004     0.020542   -78.981751
	   27 D(2,3,4,8)      =    101.212888    -0.000016    -3.660598    97.552290
	   28 D(3,4,7,9)      =     -0.926729    -0.000002    -0.984884    -1.911613
	   29 D(3,4,7,10)     =    179.957913    -0.000021    -3.098983   176.858929
	   30 *D(5,3,4,7)     =     39.999988     0.000000     0.000000    39.999988
	   31 D(5,3,4,8)      =   -139.784831    -0.000019    -3.681140  -143.465971
	   32 D(6,3,4,7)      =    156.386386     0.000024     1.053507   157.439893
	   33 D(6,3,4,8)      =    -23.398433     0.000005    -2.627633   -26.026066
	   34 D(8,4,7,9)      =    178.848535     0.000018     2.776342   181.624877
	   35 D(8,4,7,10)     =     -0.266823    -0.000001     0.662243     0.395420
	 ---------------------------------------------------------------------------

  ==> Convergence Check <==

  Measures of convergence in internal coordinates in au.
  Criteria marked as inactive (o), active & met (*), and active & unmet ( ).
  --------------------------------------------------------------------------------------------- ~
   Step     Total Energy     Delta E     MAX Force     RMS Force      MAX Disp      RMS Disp    ~
  --------------------------------------------------------------------------------------------- ~
    Convergence Criteria    1.00e-06 *    3.00e-04 *             o    1.20e-03 *             o  ~
  --------------------------------------------------------------------------------------------- ~
      1    -191.91204958   -1.92e+02      5.99e-03      2.00e-03 o    9.27e-02      3.42e-02 o  ~
  ---------------------------------------------------------------------------------------------

	Writing optimization data to binary file.
	Structure for next step:
	Cartesian Geometry (in Angstrom)
	    H     1.0828166416   0.5932589925   1.5090248456
	    O     1.3474982650   0.0103405585   0.8107417908
	    C     0.7046407906   0.3755992620  -0.3825963200
	    C    -0.8072780473   0.3523574710  -0.2891644629
	    H     1.0501300893  -0.3238357873  -1.1327480361
	    H     1.0296537920   1.3647383981  -0.6979690807
	    C    -1.5344633280  -0.7441616906  -0.3562552736
	    H    -1.2984566635   1.2956092733  -0.1019866349
	    H    -1.0862627919  -1.7104007627  -0.5152069108
	    H    -2.6029692863  -0.7215195738  -0.2356726311
			--------------------------
			 OPTKING Finished Execution 
			--------------------------

    Structure for next step:
    Molecular point group: c1
    Full point group: C1

    Geometry (in Angstrom), charge = 0, multiplicity = 1:

    H            1.081635633975     0.585115117578     1.518538489455
    O            1.346317237198     0.002196728045     0.820255487989
    C            0.703459811873     0.367455403653    -0.373082531710
    C           -0.808458910569     0.344213614461    -0.279650681722
    H            1.048949084198    -0.331979592251    -1.123234190453
    H            1.028472788435     1.356594464240    -0.688455268255
    C           -1.535644135765    -0.752305463408    -0.346741487318
    H           -1.299637489219     1.287465344747    -0.092472868011
    H           -1.087443633847    -1.718544461785    -0.505693112376
    H           -2.604150012437    -0.729663348310    -0.226158853967

gradient() will perform analytic gradient computation.

*** tstart() called on cx1-5-7-1.cx1.hpc.ic.ac.uk
*** at Fri Sep  2 11:52:55 2016


         ---------------------------------------------------------
                                   SCF
            by Justin Turney, Rob Parrish, and Andy Simmonett
                              RHF Reference
                        4 Threads,   2000 MiB Core
         ---------------------------------------------------------

  ==> Geometry <==

    Molecular point group: c1
    Full point group: C1

    Geometry (in Angstrom), charge = 0, multiplicity = 1:

       Center              X                  Y                   Z               Mass       
    ------------   -----------------  -----------------  -----------------  -----------------
           H          1.081635633975     0.585115117578     1.518538489455     1.007825032070
           O          1.346317237198     0.002196728045     0.820255487989    15.994914619560
           C          0.703459811873     0.367455403653    -0.373082531710    12.000000000000
           C         -0.808458910569     0.344213614461    -0.279650681722    12.000000000000
           H          1.048949084198    -0.331979592251    -1.123234190453     1.007825032070
           H          1.028472788435     1.356594464240    -0.688455268255     1.007825032070
           C         -1.535644135765    -0.752305463408    -0.346741487318    12.000000000000
           H         -1.299637489219     1.287465344747    -0.092472868011     1.007825032070
           H         -1.087443633847    -1.718544461785    -0.505693112376     1.007825032070
           H         -2.604150012437    -0.729663348310    -0.226158853967     1.007825032070

  Running in c1 symmetry.

  Rotational constants: A =      0.68714  B =      0.16172  C =      0.14971 [cm^-1]
  Rotational constants: A =  20599.90912  B =   4848.28184  C =   4488.17400 [MHz]
  Nuclear repulsion =  117.857316618514773

  Charge       = 0
  Multiplicity = 1
  Electrons    = 32
  Nalpha       = 16
  Nbeta        = 16

  ==> Algorithm <==

  SCF Algorithm Type is DF.
  DIIS enabled.
  MOM disabled.
  Fractional occupation disabled.
  Guess Type is READ.
  Energy threshold   = 1.00e-08
  Density threshold  = 1.00e-08
  Integral threshold = 0.00e+00

  ==> Primary Basis <==

  Basis Set: 6-31G*
    Number of shells: 36
    Number of basis function: 72
    Number of Cartesian functions: 72
    Spherical Harmonics?: false
    Max angular momentum: 2

  ==> Pre-Iterations <==

   -------------------------------------------------------
    Irrep   Nso     Nmo     Nalpha   Nbeta   Ndocc  Nsocc
   -------------------------------------------------------
     A         72      72       0       0       0       0
   -------------------------------------------------------
    Total      72      72      16      16      16       0
   -------------------------------------------------------

 OEINTS: Overlap, kinetic, potential, dipole, and quadrupole integrals
         stored in file 35.

  ==> Integral Setup <==

  ==> DFJK: Density-Fitted J/K Matrices <==

    J tasked:                  Yes
    K tasked:                  Yes
    wK tasked:                  No
    OpenMP threads:              4
    Integrals threads:           4
    Memory (MB):              1430
    Algorithm:                Core
    Integral Cache:           NONE
    Schwarz Cutoff:          1E-12
    Fitting Condition:       1E-12

   => Auxiliary Basis Set <=

  Basis Set: 
    Number of shells: 150
    Number of basis function: 474
    Number of Cartesian functions: 474
    Spherical Harmonics?: false
    Max angular momentum: 3

  Minimum eigenvalue in the overlap matrix is 4.8366908155E-03.
  Using Symmetric Orthogonalization.
  SCF Guess: Reading in previously saved MOs, projecting if necessary.

  Using orbitals from previous SCF, no projection.
  Recomputing DOCC and SOCC from number of alpha and beta electrons from previous calculation.
              A 
    DOCC [    16 ]

  ==> Iterations <==

                           Total Energy        Delta E     RMS |[F,P]|

   @DF-RHF iter   0:  -191.90667908363187   -1.91907e+02   7.76829e-04 
   @DF-RHF iter   1:  -191.91229276284045   -5.61368e-03   1.70314e-04 
   @DF-RHF iter   2:  -191.91245047252451   -1.57710e-04   7.32547e-05 DIIS
   @DF-RHF iter   3:  -191.91248449369371   -3.40212e-05   3.62209e-05 DIIS
   @DF-RHF iter   4:  -191.91249140453559   -6.91084e-06   8.65035e-06 DIIS
   @DF-RHF iter   5:  -191.91249204562527   -6.41090e-07   2.62305e-06 DIIS
   @DF-RHF iter   6:  -191.91249210198694   -5.63617e-08   6.11852e-07 DIIS
   @DF-RHF iter   7:  -191.91249210437601   -2.38907e-09   1.82129e-07 DIIS
   @DF-RHF iter   8:  -191.91249210461402   -2.38003e-10   7.03318e-08 DIIS
   @DF-RHF iter   9:  -191.91249210464477   -3.07523e-11   2.51914e-08 DIIS
   @DF-RHF iter  10:  -191.91249210464971   -4.94538e-12   5.61314e-09 DIIS

  ==> Post-Iterations <==

    Orbital Energies (a.u.)
    -----------------------

    Doubly Occupied:                                                      

       1A    -20.554727     2A    -11.274929     3A    -11.229491  
       4A    -11.226378     5A     -1.361370     6A     -1.059766  
       7A     -0.920696     8A     -0.777445     9A     -0.680564  
      10A     -0.656623    11A     -0.608372    12A     -0.573507  
      13A     -0.547910    14A     -0.477142    15A     -0.439856  
      16A     -0.372619  

    Virtual:                                                              

      17A      0.163150    18A      0.243405    19A      0.269161  
      20A      0.287136    21A      0.304866    22A      0.342308  
      23A      0.348380    24A      0.427239    25A      0.468647  
      26A      0.529547    27A      0.682255    28A      0.746382  
      29A      0.777198    30A      0.815382    31A      0.836485  
      32A      0.906617    33A      0.910898    34A      0.984420  
      35A      1.033858    36A      1.084425    37A      1.125356  
      38A      1.154642    39A      1.172931    40A      1.189434  
      41A      1.222236    42A      1.259709    43A      1.288829  
      44A      1.349349    45A      1.426841    46A      1.453367  
      47A      1.608137    48A      1.666150    49A      1.761224  
      50A      1.846661    51A      1.946320    52A      1.951497  
      53A      2.026251    54A      2.171423    55A      2.241120  
      56A      2.285035    57A      2.373327    58A      2.451777  
      59A      2.530277    60A      2.573606    61A      2.599321  
      62A      2.741022    63A      2.791833    64A      2.880668  
      65A      2.931890    66A      3.138783    67A      3.200662  
      68A      3.245402    69A      4.161250    70A      4.550677  
      71A      4.657826    72A      4.858733  

    Final Occupation by Irrep:
              A 
    DOCC [    16 ]

  Energy converged.

  @DF-RHF Final Energy:  -191.91249210464971

   => Energetics <=

    Nuclear Repulsion Energy =            117.8573166185147727
    One-Electron Energy =                -494.0168274064675416
    Two-Electron Energy =                 184.2470186833029402
    DFT Exchange-Correlation Energy =       0.0000000000000000
    Empirical Dispersion Energy =           0.0000000000000000
    PCM Polarization Energy =               0.0000000000000000
    EFP Energy =                            0.0000000000000000
    Total Energy =                       -191.9124921046498002

    Alert: EFP and PCM quantities not currently incorporated into SCF psivars.

Properties will be evaluated at   0.000000,   0.000000,   0.000000 Bohr
  ==> Properties <==


Properties computed using the SCF density matrix

  Nuclear Dipole Moment: (a.u.)
     X:    -1.7111      Y:     0.4209      Z:    -1.0437

  Electronic Dipole Moment: (a.u.)
     X:     1.2162      Y:     0.0742      Z:     1.0069

  Dipole Moment: (a.u.)
     X:    -0.4949      Y:     0.4951      Z:    -0.0368     Total:     0.7010

  Dipole Moment: (Debye)
     X:    -1.2579      Y:     1.2585      Z:    -0.0935     Total:     1.7818


  Saving occupied orbitals to File 180.

*** tstop() called on cx1-5-7-1.cx1.hpc.ic.ac.uk at Fri Sep  2 11:52:57 2016
Module time:
	user time   =       5.54 seconds =       0.09 minutes
	system time =       0.10 seconds =       0.00 minutes
	total time  =          2 seconds =       0.03 minutes
Total time:
	user time   =      17.44 seconds =       0.29 minutes
	system time =       0.38 seconds =       0.01 minutes
	total time  =          7 seconds =       0.12 minutes

*** tstart() called on cx1-5-7-1.cx1.hpc.ic.ac.uk
*** at Fri Sep  2 11:52:57 2016


         ------------------------------------------------------------
                                   SCF GRAD                          
                          Rob Parrish, Justin Turney,                
                       Andy Simmonett, and Alex Sokolov              
         ------------------------------------------------------------

  ==> Geometry <==

    Molecular point group: c1
    Full point group: C1

    Geometry (in Angstrom), charge = 0, multiplicity = 1:

       Center              X                  Y                   Z               Mass       
    ------------   -----------------  -----------------  -----------------  -----------------
           H          1.081635633975     0.585115117578     1.518538489455     1.007825032070
           O          1.346317237198     0.002196728045     0.820255487989    15.994914619560
           C          0.703459811873     0.367455403653    -0.373082531710    12.000000000000
           C         -0.808458910569     0.344213614461    -0.279650681722    12.000000000000
           H          1.048949084198    -0.331979592251    -1.123234190453     1.007825032070
           H          1.028472788435     1.356594464240    -0.688455268255     1.007825032070
           C         -1.535644135765    -0.752305463408    -0.346741487318    12.000000000000
           H         -1.299637489219     1.287465344747    -0.092472868011     1.007825032070
           H         -1.087443633847    -1.718544461785    -0.505693112376     1.007825032070
           H         -2.604150012437    -0.729663348310    -0.226158853967     1.007825032070

  Nuclear repulsion =  117.857316618514773

  ==> Basis Set <==

  Basis Set: 6-31G*
    Number of shells: 36
    Number of basis function: 72
    Number of Cartesian functions: 72
    Spherical Harmonics?: false
    Max angular momentum: 2

  ==> DFJKGrad: Density-Fitted SCF Gradients <==

    Gradient:                    1
    J tasked:                  Yes
    K tasked:                  Yes
    wK tasked:                  No
    OpenMP threads:              4
    Integrals threads:           4
    Memory (MB):              1430
    Schwarz Cutoff:          0E+00
    Fitting Condition:       1E-12

   => Auxiliary Basis Set <=

  Basis Set: 
    Number of shells: 150
    Number of basis function: 474
    Number of Cartesian functions: 474
    Spherical Harmonics?: false
    Max angular momentum: 3


  -Total Gradient:
     Atom            X                  Y                   Z
    ------   -----------------  -----------------  -----------------
       1        0.000627407654     0.000088381654     0.000432602456
       2       -0.000742216566     0.000706989134    -0.000908637340
       3        0.001418281998    -0.002687693173     0.003323496252
       4       -0.001476457952    -0.000548048222    -0.003538888344
       5        0.000773364451     0.001039782888    -0.001555692276
       6       -0.000372077293     0.000156052553     0.000137304324
       7       -0.000221726549     0.000938260538    -0.000075845145
       8       -0.000416490041     0.000140889322     0.000782977394
       9        0.000264277878    -0.000072061684     0.000768040998
      10        0.000145636421     0.000237446989     0.000634641680


*** tstop() called on cx1-5-7-1.cx1.hpc.ic.ac.uk at Fri Sep  2 11:52:59 2016
Module time:
	user time   =       7.14 seconds =       0.12 minutes
	system time =       0.12 seconds =       0.00 minutes
	total time  =          2 seconds =       0.03 minutes
Total time:
	user time   =      24.60 seconds =       0.41 minutes
	system time =       0.50 seconds =       0.01 minutes
	total time  =          9 seconds =       0.15 minutes
CURRENT ENERGY: -191.9124921046

			-----------------------------------------
			 OPTKING 2.0: for geometry optimizations 
			  - R.A. King,  Bethel University        
			-----------------------------------------

	Previous internal coordinate definitions found.
	---Fragment 1 Geometry and Gradient---
	 H           2.0439951238        1.1057073284        2.8696218673
	 O           2.5441708663        0.0041512144        1.5500582313
	 C           1.3293463899        0.6943900790       -0.7050238099
	 C          -1.5277659307        0.6504694625       -0.5284632013
	 H           1.9822264965       -0.6273505111       -2.1226050030
	 H           1.9435319053        2.5635920108       -1.3009919117
	 C          -2.9019468542       -1.4216512941       -0.6552464499
	 H          -2.4559589267        2.4329569072       -0.1747483953
	 H          -2.0549706529       -3.2475783800       -0.9556214897
	 H          -4.9211303325       -1.3788638975       -0.4273782965
	             0.0006274077        0.0000883817        0.0004326025
	            -0.0007422166        0.0007069891       -0.0009086373
	             0.0014182820       -0.0026876932        0.0033234963
	            -0.0014764580       -0.0005480482       -0.0035388883
	             0.0007733645        0.0010397829       -0.0015556923
	            -0.0003720773        0.0001560526        0.0001373043
	            -0.0002217265        0.0009382605       -0.0000758451
	            -0.0004164900        0.0001408893        0.0007829774
	             0.0002642779       -0.0000720617        0.0007680410
	             0.0001456364        0.0002374470        0.0006346417

	---Fragment 1 Intrafragment Coordinates---
	 - Coordinate -           - BOHR/RAD -       - ANG/DEG -
	 R(1,2)           =         1.790209	       0.947338
	 R(2,3)           =         2.652852	       1.403829
	 R(3,4)           =         2.862899	       1.514981
	 R(3,5)           =         2.045186	       1.082266
	 R(3,6)           =         2.055801	       1.087883
	 R(4,7)           =         2.489605	       1.317442
	 R(4,8)           =         2.040568	       1.079822
	 R(7,9)           =         2.035093	       1.076925
	 R(7,10)          =         2.032451	       1.075527
	 B(1,2,3)         =         1.916157	     109.787703
	 B(2,3,4)         =         1.982956	     113.615029
	 B(2,3,5)         =         1.849247	     105.954072
	 B(2,3,6)         =         1.924303	     110.254415
	 B(3,4,7)         =         2.165761	     124.088986
	 B(3,4,8)         =         2.038950	     116.823250
	 B(4,3,5)         =         1.929878	     110.573857
	 B(4,3,6)         =         1.907079	     109.267600
	 B(4,7,9)         =         2.122995	     121.638650
	 B(4,7,10)        =         2.123668	     121.677201
	 B(5,3,6)         =         1.866384	     106.935911
	 B(7,4,8)         =         2.076927	     118.999170
	 B(9,7,10)        =         2.036336	     116.673454
	 D(1,2,3,4)       =        -1.021034	     -58.500966
	 D(1,2,3,5)       =         3.139951	     179.905933
	 D(1,2,3,6)       =         1.126398	      64.537857
	 D(2,3,4,7)       =        -1.378492	     -78.981751
	 D(2,3,4,8)       =         1.702609	      97.552290
	 D(3,4,7,9)       =        -0.033364	      -1.911613
	 D(3,4,7,10)      =         3.086771	     176.858929
	*D(5,3,4,7)       =         0.698131	      39.999988
	 D(5,3,4,8)       =        -2.503954	    -143.465971
	 D(6,3,4,7)       =         2.747845	     157.439893
	 D(6,3,4,8)       =        -0.454241	     -26.026066
	 D(8,4,7,9)       =        -3.113233	    -178.375123
	 D(8,4,7,10)      =         0.006901	       0.395420

	Current energy   :      -191.9124921046

	Energy change for the previous step:
		Projected    :         0.0017551815
		Actual       :        -0.0004425276

	Performing BFGS update.
	Previous computed or guess Hessian on step 1.
	Steps to be used in Hessian update: 1
	Taking RFO optimization step.
	Going to follow RFO solution 1.
	Using RFO vector 1.
	Norm of target step-size    0.10750
	Projected energy change by RFO approximation:        -0.0007109478

	Back-transformation to cartesian coordinates...
	Successfully converged to displaced geometry.

	Back-transformation to cartesian coordinates to adjust frozen coordinates...
	Successfully converged to displaced geometry.

	--- Internal Coordinate Step in ANG or DEG, aJ/ANG or AJ/DEG ---
	 ---------------------------------------------------------------------------
	   Coordinate                Previous        Force       Change         New 
	   ----------                --------       ------       ------       ------
	    1 R(1,2)          =      0.947338    -0.001631    -0.000195     0.947143
	    2 R(2,3)          =      1.403829     0.005472     0.001524     1.405353
	    3 R(3,4)          =      1.514981    -0.013202    -0.001269     1.513712
	    4 R(3,5)          =      1.082266    -0.005381    -0.001146     1.081120
	    5 R(3,6)          =      1.087883     0.000075    -0.000209     1.087674
	    6 R(4,7)          =      1.317442     0.008980     0.000797     1.318239
	    7 R(4,8)          =      1.079822    -0.003693    -0.000511     1.079311
	    8 R(7,9)          =      1.076925    -0.000505     0.000193     1.077118
	    9 R(7,10)         =      1.075527     0.000565     0.000141     1.075668
	   10 B(1,2,3)        =    109.787703    -0.000082    -0.252466   109.535236
	   11 B(2,3,4)        =    113.615029    -0.000063    -0.305762   113.309267
	   12 B(2,3,5)        =    105.954072     0.000042    -0.083840   105.870232
	   13 B(2,3,6)        =    110.254415     0.000022     0.140724   110.395139
	   14 B(3,4,7)        =    124.088986    -0.000070    -0.372528   123.716458
	   15 B(3,4,8)        =    116.823250     0.000012     0.281415   117.104665
	   16 B(4,3,5)        =    110.573857    -0.000045    -0.258284   110.315573
	   17 B(4,3,6)        =    109.267600     0.000052     0.380693   109.648293
	   18 B(4,7,9)        =    121.638650     0.000003    -0.003450   121.635200
	   19 B(4,7,10)       =    121.677201     0.000024     0.150526   121.827727
	   20 B(5,3,6)        =    106.935911    -0.000006     0.130988   107.066899
	   21 B(7,4,8)        =    118.999170     0.000059     0.125589   119.124759
	   22 B(9,7,10)       =    116.673454    -0.000026    -0.139770   116.533683
	   23 D(1,2,3,4)      =    -58.500966    -0.000004     2.802600   -55.698366
	   24 D(1,2,3,5)      =    179.905933     0.000011     3.363603   183.269536
	   25 D(1,2,3,6)      =     64.537857     0.000005     3.186290    67.724147
	   26 D(2,3,4,7)      =    -78.981751     0.000005     0.490381   -78.491370
	   27 D(2,3,4,8)      =     97.552290     0.000009     1.251559    98.803849
	   28 D(3,4,7,9)      =     -1.911613    -0.000010    -0.737681    -2.649295
	   29 D(3,4,7,10)     =    176.858929     0.000011     1.184956   178.043885
	   30 *D(5,3,4,7)     =     39.999988    -0.000000     0.000000    39.999988
	   31 D(5,3,4,8)      =   -143.465971     0.000004     0.761178  -142.704793
	   32 D(6,3,4,7)      =    157.439893    -0.000001     0.237022   157.676915
	   33 D(6,3,4,8)      =    -26.026066     0.000003     0.998200   -25.027866
	   34 D(8,4,7,9)      =   -178.375123    -0.000014    -1.517911  -179.893034
	   35 D(8,4,7,10)     =      0.395420     0.000007     0.404726     0.800146
	 ---------------------------------------------------------------------------

  ==> Convergence Check <==

  Measures of convergence in internal coordinates in au.
  Criteria marked as inactive (o), active & met (*), and active & unmet ( ).
  ---------------------------------------------------------------------------------------------
   Step     Total Energy     Delta E     MAX Force     RMS Force      MAX Disp      RMS Disp   
  ---------------------------------------------------------------------------------------------
    Convergence Criteria    1.00e-06 *    3.00e-04 *             o    1.20e-03 *             o
  ---------------------------------------------------------------------------------------------
      2    -191.91249210   -4.43e-04      1.60e-03      5.89e-04 o    5.87e-02      1.82e-02 o  ~
  ---------------------------------------------------------------------------------------------

	Writing optimization data to binary file.
	Structure for next step:
	Cartesian Geometry (in Angstrom)
	    H     1.0517568504   0.5591129530   1.5211878444
	    O     1.3487929784   0.0025336280   0.8147402028
	    C     0.7044342187   0.3728821041  -0.3780133866
	    C    -0.8055919097   0.3514134112  -0.2746493666
	    H     1.0395100733  -0.3319203380  -1.1262095200
	    H     1.0351868260   1.3586522654  -0.6972232991
	    C    -1.5273214685  -0.7502478551  -0.3312406702
	    H    -1.3001993651   1.2952038453  -0.1027881808
	    H    -1.0756220787  -1.7135741344  -0.4990317847
	    H    -2.5974459134  -0.7335080411  -0.2234669546
			--------------------------
			 OPTKING Finished Execution 
			--------------------------

    Structure for next step:
    Molecular point group: c1
    Full point group: C1

    Geometry (in Angstrom), charge = 0, multiplicity = 1:

    H            1.048813831931     0.556244990324     1.519662897411
    O            1.345849937246    -0.000334292216     0.813215309780
    C            0.701491226701     0.370014155617    -0.379538188608
    C           -0.808534786315     0.348545464367    -0.276174176462
    H            1.036567055790    -0.334788232613    -1.127734264785
    H            1.032243808743     1.355784241642    -0.698748076681
    C           -1.530264290006    -0.753115717830    -0.332765475762
    H           -1.303142203976     1.292335826353    -0.104313003785
    H           -1.078564934680    -1.716441923554    -0.500556577426
    H           -2.600388653248    -0.736375905059    -0.224991768334

gradient() will perform analytic gradient computation.

*** tstart() called on cx1-5-7-1.cx1.hpc.ic.ac.uk
*** at Fri Sep  2 11:52:59 2016


         ---------------------------------------------------------
                                   SCF
            by Justin Turney, Rob Parrish, and Andy Simmonett
                              RHF Reference
                        4 Threads,   2000 MiB Core
         ---------------------------------------------------------

  ==> Geometry <==

    Molecular point group: c1
    Full point group: C1

    Geometry (in Angstrom), charge = 0, multiplicity = 1:

       Center              X                  Y                   Z               Mass       
    ------------   -----------------  -----------------  -----------------  -----------------
           H          1.048813831931     0.556244990324     1.519662897411     1.007825032070
           O          1.345849937246    -0.000334292216     0.813215309780    15.994914619560
           C          0.701491226701     0.370014155617    -0.379538188608    12.000000000000
           C         -0.808534786315     0.348545464367    -0.276174176462    12.000000000000
           H          1.036567055790    -0.334788232613    -1.127734264785     1.007825032070
           H          1.032243808743     1.355784241642    -0.698748076681     1.007825032070
           C         -1.530264290006    -0.753115717830    -0.332765475762    12.000000000000
           H         -1.303142203976     1.292335826353    -0.104313003785     1.007825032070
           H         -1.078564934680    -1.716441923554    -0.500556577426     1.007825032070
           H         -2.600388653248    -0.736375905059    -0.224991768334     1.007825032070

  Running in c1 symmetry.

  Rotational constants: A =      0.68141  B =      0.16292  C =      0.15043 [cm^-1]
  Rotational constants: A =  20428.25944  B =   4884.28700  C =   4509.83117 [MHz]
  Nuclear repulsion =  117.945694651318647

  Charge       = 0
  Multiplicity = 1
  Electrons    = 32
  Nalpha       = 16
  Nbeta        = 16

  ==> Algorithm <==

  SCF Algorithm Type is DF.
  DIIS enabled.
  MOM disabled.
  Fractional occupation disabled.
  Guess Type is READ.
  Energy threshold   = 1.00e-08
  Density threshold  = 1.00e-08
  Integral threshold = 0.00e+00

  ==> Primary Basis <==

  Basis Set: 6-31G*
    Number of shells: 36
    Number of basis function: 72
    Number of Cartesian functions: 72
    Spherical Harmonics?: false
    Max angular momentum: 2

  ==> Pre-Iterations <==

   -------------------------------------------------------
    Irrep   Nso     Nmo     Nalpha   Nbeta   Ndocc  Nsocc
   -------------------------------------------------------
     A         72      72       0       0       0       0
   -------------------------------------------------------
    Total      72      72      16      16      16       0
   -------------------------------------------------------

 OEINTS: Overlap, kinetic, potential, dipole, and quadrupole integrals
         stored in file 35.

  ==> Integral Setup <==

  ==> DFJK: Density-Fitted J/K Matrices <==

    J tasked:                  Yes
    K tasked:                  Yes
    wK tasked:                  No
    OpenMP threads:              4
    Integrals threads:           4
    Memory (MB):              1430
    Algorithm:                Core
    Integral Cache:           NONE
    Schwarz Cutoff:          1E-12
    Fitting Condition:       1E-12

   => Auxiliary Basis Set <=

  Basis Set: 
    Number of shells: 150
    Number of basis function: 474
    Number of Cartesian functions: 474
    Spherical Harmonics?: false
    Max angular momentum: 3

  Minimum eigenvalue in the overlap matrix is 4.8266545043E-03.
  Using Symmetric Orthogonalization.
  SCF Guess: Reading in previously saved MOs, projecting if necessary.

  Using orbitals from previous SCF, no projection.
  Recomputing DOCC and SOCC from number of alpha and beta electrons from previous calculation.
              A 
    DOCC [    16 ]

  ==> Iterations <==

                           Total Energy        Delta E     RMS |[F,P]|

   @DF-RHF iter   0:  -191.91229819717688   -1.91912e+02   3.80183e-04 
   @DF-RHF iter   1:  -191.91251353538331   -2.15338e-04   8.56034e-05 
   @DF-RHF iter   2:  -191.91255226956514   -3.87342e-05   3.56273e-05 DIIS
   @DF-RHF iter   3:  -191.91256123730767   -8.96774e-06   1.54394e-05 DIIS
   @DF-RHF iter   4:  -191.91256227114417   -1.03384e-06   4.19746e-06 DIIS
   @DF-RHF iter   5:  -191.91256242562741   -1.54483e-07   9.04602e-07 DIIS
   @DF-RHF iter   6:  -191.91256243142021   -5.79280e-09   2.28568e-07 DIIS
   @DF-RHF iter   7:  -191.91256243170761   -2.87400e-10   5.96530e-08 DIIS
   @DF-RHF iter   8:  -191.91256243173285   -2.52385e-11   2.13657e-08 DIIS
   @DF-RHF iter   9:  -191.91256243173581   -2.95586e-12   9.27098e-09 DIIS

  ==> Post-Iterations <==

    Orbital Energies (a.u.)
    -----------------------

    Doubly Occupied:                                                      

       1A    -20.554329     2A    -11.274623     3A    -11.229946  
       4A    -11.226980     5A     -1.360766     6A     -1.060204  
       7A     -0.920605     8A     -0.778063     9A     -0.679129  
      10A     -0.657866    11A     -0.607338    12A     -0.573389  
      13A     -0.549341    14A     -0.477006    15A     -0.440449  
      16A     -0.372632  

    Virtual:                                                              

      17A      0.162389    18A      0.245138    19A      0.268693  
      20A      0.286825    21A      0.304849    22A      0.342889  
      23A      0.347833    24A      0.425328    25A      0.468274  
      26A      0.528886    27A      0.681522    28A      0.747076  
      29A      0.777155    30A      0.814500    31A      0.836212  
      32A      0.906786    33A      0.911200    34A      0.984492  
      35A      1.034688    36A      1.086226    37A      1.125549  
      38A      1.154724    39A      1.172312    40A      1.189363  
      41A      1.222132    42A      1.258928    43A      1.290529  
      44A      1.349094    45A      1.428750    46A      1.451249  
      47A      1.601467    48A      1.664408    49A      1.758158  
      50A      1.852365    51A      1.944155    52A      1.952069  
      53A      2.026974    54A      2.177574    55A      2.241391  
      56A      2.286924    57A      2.371573    58A      2.447869  
      59A      2.534447    60A      2.574661    61A      2.596194  
      62A      2.741722    63A      2.791860    64A      2.879653  
      65A      2.931326    66A      3.138120    67A      3.200642  
      68A      3.244335    69A      4.162126    70A      4.550862  
      71A      4.657836    72A      4.858261  

    Final Occupation by Irrep:
              A 
    DOCC [    16 ]

  Energy converged.

  @DF-RHF Final Energy:  -191.91256243173581

   => Energetics <=

    Nuclear Repulsion Energy =            117.9456946513186466
    One-Electron Energy =                -494.1911797725657607
    Two-Electron Energy =                 184.3329226895113493
    DFT Exchange-Correlation Energy =       0.0000000000000000
    Empirical Dispersion Energy =           0.0000000000000000
    PCM Polarization Energy =               0.0000000000000000
    EFP Energy =                            0.0000000000000000
    Total Energy =                       -191.9125624317357506

    Alert: EFP and PCM quantities not currently incorporated into SCF psivars.

Properties will be evaluated at   0.000000,   0.000000,   0.000000 Bohr
  ==> Properties <==


Properties computed using the SCF density matrix

  Nuclear Dipole Moment: (a.u.)
     X:    -1.7414      Y:     0.3907      Z:    -1.0617

  Electronic Dipole Moment: (a.u.)
     X:     1.2183      Y:     0.0878      Z:     1.0159

  Dipole Moment: (a.u.)
     X:    -0.5231      Y:     0.4785      Z:    -0.0458     Total:     0.7104

  Dipole Moment: (Debye)
     X:    -1.3297      Y:     1.2162      Z:    -0.1165     Total:     1.8058


  Saving occupied orbitals to File 180.

*** tstop() called on cx1-5-7-1.cx1.hpc.ic.ac.uk at Fri Sep  2 11:53:01 2016
Module time:
	user time   =       5.37 seconds =       0.09 minutes
	system time =       0.09 seconds =       0.00 minutes
	total time  =          2 seconds =       0.03 minutes
Total time:
	user time   =      30.47 seconds =       0.51 minutes
	system time =       0.61 seconds =       0.01 minutes
	total time  =         11 seconds =       0.18 minutes

*** tstart() called on cx1-5-7-1.cx1.hpc.ic.ac.uk
*** at Fri Sep  2 11:53:01 2016


         ------------------------------------------------------------
                                   SCF GRAD                          
                          Rob Parrish, Justin Turney,                
                       Andy Simmonett, and Alex Sokolov              
         ------------------------------------------------------------

  ==> Geometry <==

    Molecular point group: c1
    Full point group: C1

    Geometry (in Angstrom), charge = 0, multiplicity = 1:

       Center              X                  Y                   Z               Mass       
    ------------   -----------------  -----------------  -----------------  -----------------
           H          1.048813831931     0.556244990324     1.519662897411     1.007825032070
           O          1.345849937246    -0.000334292216     0.813215309780    15.994914619560
           C          0.701491226701     0.370014155617    -0.379538188608    12.000000000000
           C         -0.808534786315     0.348545464367    -0.276174176462    12.000000000000
           H          1.036567055790    -0.334788232613    -1.127734264785     1.007825032070
           H          1.032243808743     1.355784241642    -0.698748076681     1.007825032070
           C         -1.530264290006    -0.753115717830    -0.332765475762    12.000000000000
           H         -1.303142203976     1.292335826353    -0.104313003785     1.007825032070
           H         -1.078564934680    -1.716441923554    -0.500556577426     1.007825032070
           H         -2.600388653248    -0.736375905059    -0.224991768334     1.007825032070

  Nuclear repulsion =  117.945694651318647

  ==> Basis Set <==

  Basis Set: 6-31G*
    Number of shells: 36
    Number of basis function: 72
    Number of Cartesian functions: 72
    Spherical Harmonics?: false
    Max angular momentum: 2

  ==> DFJKGrad: Density-Fitted SCF Gradients <==

    Gradient:                    1
    J tasked:                  Yes
    K tasked:                  Yes
    wK tasked:                  No
    OpenMP threads:              4
    Integrals threads:           4
    Memory (MB):              1430
    Schwarz Cutoff:          0E+00
    Fitting Condition:       1E-12

   => Auxiliary Basis Set <=

  Basis Set: 
    Number of shells: 150
    Number of basis function: 474
    Number of Cartesian functions: 474
    Spherical Harmonics?: false
    Max angular momentum: 3


  -Total Gradient:
     Atom            X                  Y                   Z
    ------   -----------------  -----------------  -----------------
       1        0.000263956060    -0.000019959725    -0.000003700143
       2       -0.000604183215    -0.000046968394     0.000067866622
       3        0.001047347394    -0.001530956354     0.001440644084
       4       -0.000349453684     0.000491646283    -0.002142817465
       5        0.000070221572     0.001151887124    -0.000769819361
       6       -0.000124283535     0.000006973661    -0.000182758866
       7        0.000084948688     0.000064138422     0.002247974463
       8       -0.000390957769    -0.000018109175     0.000073376627
       9        0.000054194563    -0.000151747336    -0.000391127903
      10       -0.000051790069     0.000053095496    -0.000339638059


*** tstop() called on cx1-5-7-1.cx1.hpc.ic.ac.uk at Fri Sep  2 11:53:03 2016
Module time:
	user time   =       7.46 seconds =       0.12 minutes
	system time =       0.13 seconds =       0.00 minutes
	total time  =          2 seconds =       0.03 minutes
Total time:
	user time   =      37.94 seconds =       0.63 minutes
	system time =       0.74 seconds =       0.01 minutes
	total time  =         13 seconds =       0.22 minutes
CURRENT ENERGY: -191.9125624317

			-----------------------------------------
			 OPTKING 2.0: for geometry optimizations 
			  - R.A. King,  Bethel University        
			-----------------------------------------

	Previous internal coordinate definitions found.
	---Fragment 1 Geometry and Gradient---
	 H           1.9819709067        1.0511506945        2.8717466904
	 O           2.5432877974       -0.0006317207        1.5367542226
	 C           1.3256263031        0.6992254194       -0.7172232334
	 C          -1.5279093150        0.6586554725       -0.5218935585
	 H           1.9588278538       -0.6326580722       -2.1311089111
	 H           1.9506581009        2.5620609120       -1.3204425008
	 C          -2.8917804190       -1.4231824531       -0.6288356157
	 H          -2.4625818777        2.4421607835       -0.1971230093
	 H          -2.0381923431       -3.2436051585       -0.9459148453
	 H          -4.9140223937       -1.3915487914       -0.4251728243
	             0.0002639561       -0.0000199597       -0.0000037001
	            -0.0006041832       -0.0000469684        0.0000678666
	             0.0010473474       -0.0015309564        0.0014406441
	            -0.0003494537        0.0004916463       -0.0021428175
	             0.0000702216        0.0011518871       -0.0007698194
	            -0.0001242835        0.0000069737       -0.0001827589
	             0.0000849487        0.0000641384        0.0022479745
	            -0.0003909578       -0.0000181092        0.0000733766
	             0.0000541946       -0.0001517473       -0.0003911279
	            -0.0000517901        0.0000530955       -0.0003396381

	---Fragment 1 Intrafragment Coordinates---
	 - Coordinate -           - BOHR/RAD -       - ANG/DEG -
	 R(1,2)           =         1.789840	       0.947143
	 R(2,3)           =         2.655732	       1.405353
	 R(3,4)           =         2.860501	       1.513712
	 R(3,5)           =         2.043020	       1.081120
	 R(3,6)           =         2.055406	       1.087674
	 R(4,7)           =         2.491110	       1.318239
	 R(4,8)           =         2.039603	       1.079311
	 R(7,9)           =         2.035458	       1.077118
	 R(7,10)          =         2.032718	       1.075668
	 B(1,2,3)         =         1.911751	     109.535236
	 B(2,3,4)         =         1.977620	     113.309267
	 B(2,3,5)         =         1.847784	     105.870232
	 B(2,3,6)         =         1.926759	     110.395139
	 B(3,4,7)         =         2.159260	     123.716458
	 B(3,4,8)         =         2.043862	     117.104665
	 B(4,3,5)         =         1.925370	     110.315573
	 B(4,3,6)         =         1.913724	     109.648293
	 B(4,7,9)         =         2.122935	     121.635200
	 B(4,7,10)        =         2.126295	     121.827727
	 B(5,3,6)         =         1.868670	     107.066899
	 B(7,4,8)         =         2.079119	     119.124759
	 B(9,7,10)        =         2.033896	     116.533683
	 D(1,2,3,4)       =        -0.972120	     -55.698366
	 D(1,2,3,5)       =        -3.084528	    -176.730464
	 D(1,2,3,6)       =         1.182009	      67.724147
	 D(2,3,4,7)       =        -1.369933	     -78.491370
	 D(2,3,4,8)       =         1.724452	      98.803849
	 D(3,4,7,9)       =        -0.046239	      -2.649295
	 D(3,4,7,10)      =         3.107452	     178.043885
	*D(5,3,4,7)       =         0.698131	      39.999988
	 D(5,3,4,8)       =        -2.490668	    -142.704793
	 D(6,3,4,7)       =         2.751981	     157.676915
	 D(6,3,4,8)       =        -0.436819	     -25.027866
	 D(8,4,7,9)       =        -3.139726	    -179.893034
	 D(8,4,7,10)      =         0.013965	       0.800146

	Current energy   :      -191.9125624317

	Energy change for the previous step:
		Projected    :        -0.0007109478
		Actual       :        -0.0000703271
	Energy ratio indicates iffy step: Trust radius decreased to 1.250e-01.


	Performing BFGS update.
	Previous computed or guess Hessian on step 1.
	Steps to be used in Hessian update: 2 1
	Taking RFO optimization step.
	Going to follow RFO solution 1.
	Using RFO vector 1.
	Norm of target step-size    0.05416
	Projected energy change by RFO approximation:        -0.0000655999

	Back-transformation to cartesian coordinates...
	Successfully converged to displaced geometry.

	Back-transformation to cartesian coordinates to adjust frozen coordinates...
	Successfully converged to displaced geometry.

	--- Internal Coordinate Step in ANG or DEG, aJ/ANG or AJ/DEG ---
	 ---------------------------------------------------------------------------
	   Coordinate                Previous        Force       Change         New 
	   ----------                --------       ------       ------       ------
	    1 R(1,2)          =      0.947143     0.000801     0.000050     0.947193
	    2 R(2,3)          =      1.405353     0.000691     0.000399     1.405752
	    3 R(3,4)          =      1.513712    -0.005005    -0.001181     1.512531
	    4 R(3,5)          =      1.081120     0.001618     0.000070     1.081190
	    5 R(3,6)          =      1.087674    -0.000183    -0.000079     1.087596
	    6 R(4,7)          =      1.318239     0.000693     0.000212     1.318451
	    7 R(4,8)          =      1.079311    -0.001442    -0.000341     1.078971
	    8 R(7,9)          =      1.077118    -0.001807    -0.000266     1.076852
	    9 R(7,10)         =      1.075668    -0.000151     0.000001     1.075669
	   10 B(1,2,3)        =    109.535236    -0.000022    -0.145948   109.389288
	   11 B(2,3,4)        =    113.309267     0.000034     0.048281   113.357548
	   12 B(2,3,5)        =    105.870232    -0.000002    -0.004192   105.866040
	   13 B(2,3,6)        =    110.395139    -0.000024    -0.092566   110.302573
	   14 B(3,4,7)        =    123.716458     0.000006    -0.052453   123.664005
	   15 B(3,4,8)        =    117.104665    -0.000030    -0.076138   117.028527
	   16 B(4,3,5)        =    110.315573    -0.000021    -0.132234   110.183339
	   17 B(4,3,6)        =    109.648293     0.000002     0.091846   109.740139
	   18 B(4,7,9)        =    121.635200    -0.000000    -0.003034   121.632165
	   19 B(4,7,10)       =    121.827727     0.000001     0.035378   121.863105
	   20 B(5,3,6)        =    107.066899     0.000011     0.085922   107.152820
	   21 B(7,4,8)        =    119.124759     0.000025     0.137529   119.262288
	   22 B(9,7,10)       =    116.533683    -0.000001    -0.029117   116.504566
	   23 D(1,2,3,4)      =    -55.698366     0.000001     1.606026   -54.092340
	   24 D(1,2,3,5)      =   -176.730464     0.000002     1.744156  -174.986308
	   25 D(1,2,3,6)      =     67.724147     0.000002     1.691105    69.415251
	   26 D(2,3,4,7)      =    -78.491370    -0.000001     0.065098   -78.426272
	   27 D(2,3,4,8)      =     98.803849    -0.000000     0.301782    99.105631
	   28 D(3,4,7,9)      =     -2.649295     0.000006     0.523227    -2.126067
	   29 D(3,4,7,10)     =    178.043885    -0.000005    -0.322267   177.721618
	   30 *D(5,3,4,7)     =     39.999988     0.000000     0.000000    39.999988
	   31 D(5,3,4,8)      =   -142.704793     0.000001     0.236684  -142.468109
	   32 D(6,3,4,7)      =    157.676915     0.000000     0.081468   157.758383
	   33 D(6,3,4,8)      =    -25.027866     0.000001     0.318152   -24.709714
	   34 D(8,4,7,9)      =   -179.893034     0.000005     0.287122  -179.605912
	   35 D(8,4,7,10)     =      0.800146    -0.000005    -0.558372     0.241774
	 ---------------------------------------------------------------------------

  ==> Convergence Check <==

  Measures of convergence in internal coordinates in au.
  Criteria marked as inactive (o), active & met (*), and active & unmet ( ).
  ---------------------------------------------------------------------------------------------
   Step     Total Energy     Delta E     MAX Force     RMS Force      MAX Disp      RMS Disp   
  ---------------------------------------------------------------------------------------------
    Convergence Criteria    1.00e-06 *    3.00e-04 *             o    1.20e-03 *             o
  ---------------------------------------------------------------------------------------------
      3    -191.91256243   -7.03e-05      6.08e-04      2.20e-04 o    3.04e-02      9.15e-03 o  ~
  ---------------------------------------------------------------------------------------------

	Writing optimization data to binary file.
	Structure for next step:
	Cartesian Geometry (in Angstrom)
	    H     1.0326291438   0.5420222469   1.5207522809
	    O     1.3484214540   0.0012823396   0.8100837064
	    C     0.7017877793   0.3724233542  -0.3816625830
	    C    -0.8069703341   0.3507836713  -0.2771141867
	    H     1.0339996517  -0.3333039733  -1.1303655068
	    H     1.0338488174   1.3579291277  -0.7000618561
	    C    -1.5276893799  -0.7518379979  -0.3328191042
	    H    -1.3004301579   1.2954914619  -0.1091777554
	    H    -1.0742761164  -1.7154687135  -0.4923276903
	    H    -2.5972500303  -0.7374528807  -0.2192507296
			--------------------------
			 OPTKING Finished Execution 
			--------------------------

    Structure for next step:
    Molecular point group: c1
    Full point group: C1

    Geometry (in Angstrom), charge = 0, multiplicity = 1:

    H            1.031124982836     0.540482650466     1.522151287311
    O            1.346917268867    -0.000257215500     0.811482767071
    C            0.700283643553     0.370883770725    -0.380263431378
    C           -0.808474354575     0.349244089515    -0.275715042972
    H            1.032495490590    -0.334843502823    -1.128966297975
    H            1.032344656290     1.356389468985    -0.698662680134
    C           -1.529193345382    -0.753377495513    -0.331419956284
    H           -1.301934140735     1.293951807994    -0.107778624517
    H           -1.075780116528    -1.717008137559    -0.490928530176
    H           -2.598753914140    -0.738992379420    -0.217851590345

gradient() will perform analytic gradient computation.

*** tstart() called on cx1-5-7-1.cx1.hpc.ic.ac.uk
*** at Fri Sep  2 11:53:04 2016


         ---------------------------------------------------------
                                   SCF
            by Justin Turney, Rob Parrish, and Andy Simmonett
                              RHF Reference
                        4 Threads,   2000 MiB Core
         ---------------------------------------------------------

  ==> Geometry <==

    Molecular point group: c1
    Full point group: C1

    Geometry (in Angstrom), charge = 0, multiplicity = 1:

       Center              X                  Y                   Z               Mass       
    ------------   -----------------  -----------------  -----------------  -----------------
           H          1.031124982836     0.540482650466     1.522151287311     1.007825032070
           O          1.346917268867    -0.000257215500     0.811482767071    15.994914619560
           C          0.700283643553     0.370883770725    -0.380263431378    12.000000000000
           C         -0.808474354575     0.349244089515    -0.275715042972    12.000000000000
           H          1.032495490590    -0.334843502823    -1.128966297975     1.007825032070
           H          1.032344656290     1.356389468985    -0.698662680134     1.007825032070
           C         -1.529193345382    -0.753377495513    -0.331419956284    12.000000000000
           H         -1.301934140735     1.293951807994    -0.107778624517     1.007825032070
           H         -1.075780116528    -1.717008137559    -0.490928530176     1.007825032070
           H         -2.598753914140    -0.738992379420    -0.217851590345     1.007825032070

  Running in c1 symmetry.

  Rotational constants: A =      0.68055  B =      0.16319  C =      0.15056 [cm^-1]
  Rotational constants: A =  20402.48999  B =   4892.42579  C =   4513.76441 [MHz]
  Nuclear repulsion =  117.978178958510341

  Charge       = 0
  Multiplicity = 1
  Electrons    = 32
  Nalpha       = 16
  Nbeta        = 16

  ==> Algorithm <==

  SCF Algorithm Type is DF.
  DIIS enabled.
  MOM disabled.
  Fractional occupation disabled.
  Guess Type is READ.
  Energy threshold   = 1.00e-08
  Density threshold  = 1.00e-08
  Integral threshold = 0.00e+00

  ==> Primary Basis <==

  Basis Set: 6-31G*
    Number of shells: 36
    Number of basis function: 72
    Number of Cartesian functions: 72
    Spherical Harmonics?: false
    Max angular momentum: 2

  ==> Pre-Iterations <==

   -------------------------------------------------------
    Irrep   Nso     Nmo     Nalpha   Nbeta   Ndocc  Nsocc
   -------------------------------------------------------
     A         72      72       0       0       0       0
   -------------------------------------------------------
    Total      72      72      16      16      16       0
   -------------------------------------------------------

 OEINTS: Overlap, kinetic, potential, dipole, and quadrupole integrals
         stored in file 35.

  ==> Integral Setup <==

  ==> DFJK: Density-Fitted J/K Matrices <==

    J tasked:                  Yes
    K tasked:                  Yes
    wK tasked:                  No
    OpenMP threads:              4
    Integrals threads:           4
    Memory (MB):              1430
    Algorithm:                Core
    Integral Cache:           NONE
    Schwarz Cutoff:          1E-12
    Fitting Condition:       1E-12

   => Auxiliary Basis Set <=

  Basis Set: 
    Number of shells: 150
    Number of basis function: 474
    Number of Cartesian functions: 474
    Spherical Harmonics?: false
    Max angular momentum: 3

  Minimum eigenvalue in the overlap matrix is 4.8148653794E-03.
  Using Symmetric Orthogonalization.
  SCF Guess: Reading in previously saved MOs, projecting if necessary.

  Using orbitals from previous SCF, no projection.
  Recomputing DOCC and SOCC from number of alpha and beta electrons from previous calculation.
              A 
    DOCC [    16 ]

  ==> Iterations <==

                           Total Energy        Delta E     RMS |[F,P]|

   @DF-RHF iter   0:  -191.91269535054147   -1.91913e+02   1.72362e-04 
   @DF-RHF iter   1:  -191.91255954300783    1.35808e-04   4.58592e-05 
   @DF-RHF iter   2:  -191.91257068765555   -1.11446e-05   1.92368e-05 DIIS
   @DF-RHF iter   3:  -191.91257359853608   -2.91088e-06   6.61341e-06 DIIS
   @DF-RHF iter   4:  -191.91257382103100   -2.22495e-07   2.18639e-06 DIIS
   @DF-RHF iter   5:  -191.91257385927662   -3.82456e-08   4.27948e-07 DIIS
   @DF-RHF iter   6:  -191.91257386031123   -1.03461e-09   1.22616e-07 DIIS
   @DF-RHF iter   7:  -191.91257386038882   -7.75913e-11   3.37468e-08 DIIS
   @DF-RHF iter   8:  -191.91257386039706   -8.24230e-12   1.25340e-08 DIIS
   @DF-RHF iter   9:  -191.91257386039860   -1.53477e-12   5.53992e-09 DIIS

  ==> Post-Iterations <==

    Orbital Energies (a.u.)
    -----------------------

    Doubly Occupied:                                                      

       1A    -20.554237     2A    -11.274403     3A    -11.230202  
       4A    -11.227344     5A     -1.360626     6A     -1.060594  
       7A     -0.920650     8A     -0.778478     9A     -0.678320  
      10A     -0.658662    11A     -0.606883    12A     -0.573595  
      13A     -0.550285    14A     -0.476732    15A     -0.440634  
      16A     -0.372879  

    Virtual:                                                              

      17A      0.161895    18A      0.245724    19A      0.268624  
      20A      0.286769    21A      0.304710    22A      0.342795  
      23A      0.347928    24A      0.424922    25A      0.468329  
      26A      0.528793    27A      0.681379    28A      0.746940  
      29A      0.777190    30A      0.814521    31A      0.836186  
      32A      0.906812    33A      0.911233    34A      0.985029  
      35A      1.035046    36A      1.086667    37A      1.125432  
      38A      1.154857    39A      1.171719    40A      1.189178  
      41A      1.221975    42A      1.258343    43A      1.291409  
      44A      1.348842    45A      1.429281    46A      1.450315  
      47A      1.597853    48A      1.665016    49A      1.758009  
      50A      1.850459    51A      1.946009    52A      1.951923  
      53A      2.026259    54A      2.179892    55A      2.243889  
      56A      2.286722    57A      2.370918    58A      2.448034  
      59A      2.536838    60A      2.573595    61A      2.595160  
      62A      2.740896    63A      2.793205    64A      2.879119  
      65A      2.931172    66A      3.137831    67A      3.200834  
      68A      3.245058    69A      4.162983    70A      4.550709  
      71A      4.657896    72A      4.858501  

    Final Occupation by Irrep:
              A 
    DOCC [    16 ]

  Energy converged.

  @DF-RHF Final Energy:  -191.91257386039860

   => Energetics <=

    Nuclear Repulsion Energy =            117.9781789585103411
    One-Electron Energy =                -494.2524537846657040
    Two-Electron Energy =                 184.3617009657568246
    DFT Exchange-Correlation Energy =       0.0000000000000000
    Empirical Dispersion Energy =           0.0000000000000000
    PCM Polarization Energy =               0.0000000000000000
    EFP Energy =                            0.0000000000000000
    Total Energy =                       -191.9125738603985383

    Alert: EFP and PCM quantities not currently incorporated into SCF psivars.

Properties will be evaluated at   0.000000,   0.000000,   0.000000 Bohr
  ==> Properties <==


Properties computed using the SCF density matrix

  Nuclear Dipole Moment: (a.u.)
     X:    -1.7564      Y:     0.3750      Z:    -1.0480

  Electronic Dipole Moment: (a.u.)
     X:     1.2170      Y:     0.0912      Z:     1.0068

  Dipole Moment: (a.u.)
     X:    -0.5395      Y:     0.4662      Z:    -0.0411     Total:     0.7142

  Dipole Moment: (Debye)
     X:    -1.3712      Y:     1.1850      Z:    -0.1046     Total:     1.8153


  Saving occupied orbitals to File 180.

*** tstop() called on cx1-5-7-1.cx1.hpc.ic.ac.uk at Fri Sep  2 11:53:06 2016
Module time:
	user time   =       4.95 seconds =       0.08 minutes
	system time =       0.09 seconds =       0.00 minutes
	total time  =          2 seconds =       0.03 minutes
Total time:
	user time   =      43.32 seconds =       0.72 minutes
	system time =       0.85 seconds =       0.01 minutes
	total time  =         16 seconds =       0.27 minutes

*** tstart() called on cx1-5-7-1.cx1.hpc.ic.ac.uk
*** at Fri Sep  2 11:53:06 2016


         ------------------------------------------------------------
                                   SCF GRAD                          
                          Rob Parrish, Justin Turney,                
                       Andy Simmonett, and Alex Sokolov              
         ------------------------------------------------------------

  ==> Geometry <==

    Molecular point group: c1
    Full point group: C1

    Geometry (in Angstrom), charge = 0, multiplicity = 1:

       Center              X                  Y                   Z               Mass       
    ------------   -----------------  -----------------  -----------------  -----------------
           H          1.031124982836     0.540482650466     1.522151287311     1.007825032070
           O          1.346917268867    -0.000257215500     0.811482767071    15.994914619560
           C          0.700283643553     0.370883770725    -0.380263431378    12.000000000000
           C         -0.808474354575     0.349244089515    -0.275715042972    12.000000000000
           H          1.032495490590    -0.334843502823    -1.128966297975     1.007825032070
           H          1.032344656290     1.356389468985    -0.698662680134     1.007825032070
           C         -1.529193345382    -0.753377495513    -0.331419956284    12.000000000000
           H         -1.301934140735     1.293951807994    -0.107778624517     1.007825032070
           H         -1.075780116528    -1.717008137559    -0.490928530176     1.007825032070
           H         -2.598753914140    -0.738992379420    -0.217851590345     1.007825032070

  Nuclear repulsion =  117.978178958510341

  ==> Basis Set <==

  Basis Set: 6-31G*
    Number of shells: 36
    Number of basis function: 72
    Number of Cartesian functions: 72
    Spherical Harmonics?: false
    Max angular momentum: 2

  ==> DFJKGrad: Density-Fitted SCF Gradients <==

    Gradient:                    1
    J tasked:                  Yes
    K tasked:                  Yes
    wK tasked:                  No
    OpenMP threads:              4
    Integrals threads:           4
    Memory (MB):              1430
    Schwarz Cutoff:          0E+00
    Fitting Condition:       1E-12

   => Auxiliary Basis Set <=

  Basis Set: 
    Number of shells: 150
    Number of basis function: 474
    Number of Cartesian functions: 474
[...]
      10A     -0.658853    11A     -0.606750    12A     -0.573619  
      13A     -0.550571    14A     -0.476554    15A     -0.440595  
      16A     -0.373064  

    Virtual:                                                              

      17A      0.161825    18A      0.245870    19A      0.268463  
      20A      0.286798    21A      0.304581    22A      0.342663  
      23A      0.348022    24A      0.424867    25A      0.468314  
      26A      0.528772    27A      0.681296    28A      0.746715  
      29A      0.777049    30A      0.814676    31A      0.836222  
      32A      0.906847    33A      0.911214    34A      0.985207  
      35A      1.035132    36A      1.086715    37A      1.125292  
      38A      1.154737    39A      1.171592    40A      1.189170  
      41A      1.221782    42A      1.258194    43A      1.291756  
      44A      1.348744    45A      1.429257    46A      1.450758  
      47A      1.596754    48A      1.665125    49A      1.757909  
      50A      1.850548    51A      1.945742    52A      1.952500  
      53A      2.026108    54A      2.179969    55A      2.243454  
      56A      2.286618    57A      2.370581    58A      2.447825  
      59A      2.537429    60A      2.573666    61A      2.594493  
      62A      2.740439    63A      2.793685    64A      2.879053  
      65A      2.930834    66A      3.137722    67A      3.200573  
      68A      3.245378    69A      4.163322    70A      4.550489  
      71A      4.657836    72A      4.858656  

    Final Occupation by Irrep:
              A 
    DOCC [    16 ]

  Energy converged.

  @DF-RHF Final Energy:  -191.91257522909842

   => Energetics <=

    Nuclear Repulsion Energy =            117.9625271318032702
    One-Electron Energy =                -494.2204072693718331
    Two-Electron Energy =                 184.3453049084700979
    DFT Exchange-Correlation Energy =       0.0000000000000000
    Empirical Dispersion Energy =           0.0000000000000000
    PCM Polarization Energy =               0.0000000000000000
    EFP Energy =                            0.0000000000000000
    Total Energy =                       -191.9125752290984792

    Alert: EFP and PCM quantities not currently incorporated into SCF psivars.

Properties will be evaluated at   0.000000,   0.000000,   0.000000 Bohr
  ==> Properties <==


Properties computed using the SCF density matrix

  Nuclear Dipole Moment: (a.u.)
     X:    -1.7635      Y:     0.3699      Z:    -1.0470

  Electronic Dipole Moment: (a.u.)
     X:     1.2183      Y:     0.0912      Z:     1.0066

  Dipole Moment: (a.u.)
     X:    -0.5453      Y:     0.4610      Z:    -0.0404     Total:     0.7152

  Dipole Moment: (Debye)
     X:    -1.3859      Y:     1.1718      Z:    -0.1027     Total:     1.8178


  Saving occupied orbitals to File 180.

*** tstop() called on cx1-5-7-1.cx1.hpc.ic.ac.uk at Fri Sep  2 11:53:14 2016
Module time:
	user time   =       5.43 seconds =       0.09 minutes
	system time =       0.09 seconds =       0.00 minutes
	total time  =          2 seconds =       0.03 minutes
Total time:
	user time   =      68.94 seconds =       1.15 minutes
	system time =       1.35 seconds =       0.02 minutes
	total time  =         24 seconds =       0.40 minutes

*** tstart() called on cx1-5-7-1.cx1.hpc.ic.ac.uk
*** at Fri Sep  2 11:53:14 2016


         ------------------------------------------------------------
                                   SCF GRAD                          
                          Rob Parrish, Justin Turney,                
                       Andy Simmonett, and Alex Sokolov              
         ------------------------------------------------------------

  ==> Geometry <==

    Molecular point group: c1
    Full point group: C1

    Geometry (in Angstrom), charge = 0, multiplicity = 1:

       Center              X                  Y                   Z               Mass       
    ------------   -----------------  -----------------  -----------------  -----------------
           H          1.026588010432     0.536560525540     1.523442404476     1.007825032070
           O          1.348498462992     0.001872265210     0.810865758090    15.994914619560
           C          0.700132315730     0.370487011279    -0.380806389397    12.000000000000
           C         -0.808796621463     0.347954557875    -0.275629243633    12.000000000000
           H          1.033744470190    -0.335312216603    -1.129207671122     1.007825032070
           H          1.030314671176     1.356325151587    -0.700057282964     1.007825032070
           C         -1.530192368214    -0.754070984540    -0.330227133134    12.000000000000
           H         -1.301604310858     1.293063417091    -0.107442613535     1.007825032070
           H         -1.077308047322    -1.717838894523    -0.490145033839     1.007825032070
           H         -2.599798328708    -0.738278845551    -0.217593289398     1.007825032070

  Nuclear repulsion =  117.962527131803270

  ==> Basis Set <==

  Basis Set: 6-31G*
    Number of shells: 36
    Number of basis function: 72
    Number of Cartesian functions: 72
    Spherical Harmonics?: false
    Max angular momentum: 2

  ==> DFJKGrad: Density-Fitted SCF Gradients <==

    Gradient:                    1
    J tasked:                  Yes
    K tasked:                  Yes
    wK tasked:                  No
    OpenMP threads:              4
    Integrals threads:           4
    Memory (MB):              1430
    Schwarz Cutoff:          0E+00
    Fitting Condition:       1E-12

   => Auxiliary Basis Set <=

  Basis Set: 
    Number of shells: 150
    Number of basis function: 474
    Number of Cartesian functions: 474
    Spherical Harmonics?: false
    Max angular momentum: 3


  -Total Gradient:
     Atom            X                  Y                   Z
    ------   -----------------  -----------------  -----------------
       1       -0.000004193255     0.000004430713     0.000002473885
       2        0.000036073666    -0.000034679856     0.000003366232
       3        0.000095110821    -0.001066837919     0.001598884458
       4       -0.000168854498     0.000349768956    -0.001883474285
       5       -0.000055877070     0.000838004597    -0.000831891564
       6       -0.000000093370    -0.000000650921    -0.000013166434
       7        0.000087602479    -0.000092866619     0.001114868553
       8        0.000009367141    -0.000002160769     0.000010570482
       9        0.000002692236     0.000006687583     0.000003037909
      10       -0.000001828153    -0.000001695765    -0.000004669237


*** tstop() called on cx1-5-7-1.cx1.hpc.ic.ac.uk at Fri Sep  2 11:53:16 2016
Module time:
	user time   =       6.32 seconds =       0.11 minutes
	system time =       0.11 seconds =       0.00 minutes
	total time  =          2 seconds =       0.03 minutes
Total time:
	user time   =      75.27 seconds =       1.25 minutes
	system time =       1.46 seconds =       0.02 minutes
	total time  =         26 seconds =       0.43 minutes
CURRENT ENERGY: -191.9125752291

			-----------------------------------------
			 OPTKING 2.0: for geometry optimizations 
			  - R.A. King,  Bethel University        
			-----------------------------------------

	Previous internal coordinate definitions found.
	---Fragment 1 Geometry and Gradient---
	 H           1.9399701910        1.0139524470        2.8788889237
	 O           2.5482927857        0.0035380685        1.5323142133
	 C           1.3230583335        0.7001189871       -0.7196197856
	 C          -1.5284041118        0.6575388211       -0.5208637847
	 H           1.9534939400       -0.6336482584       -2.1338932456
	 H           1.9470125592        2.5630830836       -1.3229165421
	 C          -2.8916445066       -1.4249876455       -0.6240388433
	 H          -2.4596756809        2.4435357308       -0.2030371146
	 H          -2.0358171702       -3.2462450511       -0.9262398793
	 H          -4.9129068420       -1.3951448278       -0.4111917253
	            -0.0000041933        0.0000044307        0.0000024739
	             0.0000360737       -0.0000346799        0.0000033662
	             0.0000951108       -0.0010668379        0.0015988845
	            -0.0001688545        0.0003497690       -0.0018834743
	            -0.0000558771        0.0008380046       -0.0008318916
	            -0.0000000934       -0.0000006509       -0.0000131664
	             0.0000876025       -0.0000928666        0.0011148686
	             0.0000093671       -0.0000021608        0.0000105705
	             0.0000026922        0.0000066876        0.0000030379
	            -0.0000018282       -0.0000016958       -0.0000046692

	---Fragment 1 Intrafragment Coordinates---
	 - Coordinate -           - BOHR/RAD -       - ANG/DEG -
	 R(1,2)           =         1.790044	       0.947250
	 R(2,3)           =         2.656620	       1.405823
	 R(3,4)           =         2.858698	       1.512758
	 R(3,5)           =         2.043662	       1.081459
	 R(3,6)           =         2.055218	       1.087575
	 R(4,7)           =         2.491182	       1.318277
	 R(4,8)           =         2.039134	       1.079063
	 R(7,9)           =         2.034882	       1.076813
	 R(7,10)          =         2.032657	       1.075636
	 B(1,2,3)         =         1.910202	     109.446541
	 B(2,3,4)         =         1.979251	     113.402747
	 B(2,3,5)         =         1.847529	     105.855605
	 B(2,3,6)         =         1.924621	     110.272633
	 B(3,4,7)         =         2.159656	     123.739191
	 B(3,4,8)         =         2.041299	     116.957823
	 B(4,3,5)         =         1.924203	     110.248719
	 B(4,3,6)         =         1.914246	     109.678228
	 B(4,7,9)         =         2.122570	     121.614292
	 B(4,7,10)        =         2.126509	     121.839970
	 B(5,3,6)         =         1.870033	     107.144983
	 B(7,4,8)         =         2.081420	     119.256555
	 B(9,7,10)        =         2.034107	     116.545738
	 D(1,2,3,4)       =        -0.933236	     -53.470466
	 D(1,2,3,5)       =        -3.044990	    -174.465103
	 D(1,2,3,6)       =         1.221139	      69.966085
	 D(2,3,4,7)       =        -1.369869	     -78.487738
	 D(2,3,4,8)       =         1.728047	      99.009825
	 D(3,4,7,9)       =        -0.037984	      -2.176342
	 D(3,4,7,10)      =         3.103524	     177.818808
	*D(5,3,4,7)       =         0.698131	      39.999988
	 D(5,3,4,8)       =        -2.487137	    -142.502449
	 D(6,3,4,7)       =         2.753266	     157.750507
	 D(6,3,4,8)       =        -0.432003	     -24.751930
	 D(8,4,7,9)       =        -3.134954	    -179.619657
	 D(8,4,7,10)      =         0.006554	       0.375493

	Current energy   :      -191.9125752291

	Energy change for the previous step:
		Projected    :        -0.0000015868
		Actual       :        -0.0000001268
	Energy ratio indicates iffy step: Trust radius decreased to 7.812e-03.


	Performing BFGS update.
	Previous computed or guess Hessian on step 1.
	Steps to be used in Hessian update: 5 4
	Taking RFO optimization step.
	Going to follow RFO solution 1.
	Using RFO vector 1.
	Norm of target step-size    0.00062
	Projected energy change by RFO approximation:        -0.0000000085

	Back-transformation to cartesian coordinates...
	Successfully converged to displaced geometry.

	Back-transformation to cartesian coordinates to adjust frozen coordinates...
	Successfully converged to displaced geometry.

	--- Internal Coordinate Step in ANG or DEG, aJ/ANG or AJ/DEG ---
	 ---------------------------------------------------------------------------
	   Coordinate                Previous        Force       Change         New 
	   ----------                --------       ------       ------       ------
	    1 R(1,2)          =      0.947250    -0.000048    -0.000007     0.947243
	    2 R(2,3)          =      1.405823    -0.000227    -0.000031     1.405792
	    3 R(3,4)          =      1.512758    -0.000117    -0.000017     1.512741
	    4 R(3,5)          =      1.081459    -0.000095    -0.000021     1.081438
	    5 R(3,6)          =      1.087575    -0.000027    -0.000002     1.087572
	    6 R(4,7)          =      1.318277     0.000173     0.000018     1.318295
	    7 R(4,8)          =      1.079063     0.000037     0.000008     1.079071
	    8 R(7,9)          =      1.076813     0.000044     0.000010     1.076823
	    9 R(7,10)         =      1.075636    -0.000011    -0.000002     1.075634
	   10 B(1,2,3)        =    109.446541     0.000000     0.000945   109.447486
	   11 B(2,3,4)        =    113.402747    -0.000003    -0.009047   113.393701
	   12 B(2,3,5)        =    105.855605     0.000003     0.013973   105.869578
	   13 B(2,3,6)        =    110.272633    -0.000000    -0.003724   110.268909
	   14 B(3,4,7)        =    123.739191     0.000000     0.001222   123.740413
	   15 B(3,4,8)        =    116.957823     0.000001     0.002031   116.959854
	   16 B(4,3,5)        =    110.248719    -0.000000     0.001809   110.250529
	   17 B(4,3,6)        =    109.678228     0.000001    -0.003139   109.675090
	   18 B(4,7,9)        =    121.614292     0.000001     0.002787   121.617079
	   19 B(4,7,10)       =    121.839970    -0.000001    -0.002410   121.837560
	   20 B(5,3,6)        =    107.144983    -0.000000     0.001208   107.146192
	   21 B(7,4,8)        =    119.256555    -0.000001    -0.002798   119.253756
	   22 B(9,7,10)       =    116.545738    -0.000000    -0.000377   116.545361
	   23 D(1,2,3,4)      =    -53.470466     0.000000     0.005045   -53.465421
	   24 D(1,2,3,5)      =   -174.465103     0.000000    -0.001286  -174.466389
	   25 D(1,2,3,6)      =     69.966085    -0.000000    -0.008494    69.957590
	   26 D(2,3,4,7)      =    -78.487738    -0.000000    -0.013092   -78.500831
	   27 D(2,3,4,8)      =     99.009825    -0.000000    -0.000895    99.008930
	   28 D(3,4,7,9)      =     -2.176342     0.000000     0.003207    -2.173135
	   29 D(3,4,7,10)     =    177.818808    -0.000000    -0.002086   177.816722
	   30 *D(5,3,4,7)     =     39.999988     0.000000    -0.000000    39.999988
	   31 D(5,3,4,8)      =   -142.502449     0.000000     0.012198  -142.490251
	   32 D(6,3,4,7)      =    157.750507     0.000000     0.000660   157.751167
	   33 D(6,3,4,8)      =    -24.751930     0.000000     0.012858   -24.739072
	   34 D(8,4,7,9)      =   -179.619657    -0.000000    -0.009371  -179.629028
	   35 D(8,4,7,10)     =      0.375493    -0.000000    -0.014664     0.360829
	 ---------------------------------------------------------------------------

  ==> Convergence Check <==

  Measures of convergence in internal coordinates in au.
  Criteria marked as inactive (o), active & met (*), and active & unmet ( ).
  ---------------------------------------------------------------------------------------------
   Step     Total Energy     Delta E     MAX Force     RMS Force      MAX Disp      RMS Disp   
  ---------------------------------------------------------------------------------------------
    Convergence Criteria    1.00e-06 *    3.00e-04 *             o    1.20e-03 *             o
  ---------------------------------------------------------------------------------------------
      6    -191.91257523   -1.27e-07 *    3.46e-05 *    1.22e-05 o    2.56e-04 *    1.05e-04 o  ~
  ---------------------------------------------------------------------------------------------


  **** Optimization is complete! (in 6 steps) ****

  ==> Optimization Summary <==

  Measures of convergence in internal coordinates in au.
  --------------------------------------------------------------------------------------------------------------- ~
   Step         Total Energy             Delta E       MAX Force       RMS Force        MAX Disp        RMS Disp  ~
  --------------------------------------------------------------------------------------------------------------- ~
      1    -191.912049577030   -191.912049577030      0.00598812      0.00200320      0.09269744      0.03420502  ~
      2    -191.912492104650     -0.000442527620      0.00160249      0.00058929      0.05870594      0.01817115  ~
      3    -191.912562431736     -0.000070327086      0.00060753      0.00021990      0.03044126      0.00915423  ~
      4    -191.912573860399     -0.000011428663      0.00023049      0.00009959      0.00812837      0.00218452  ~
      5    -191.912575102298     -0.000001241900      0.00008111      0.00002958      0.00296098      0.00092688  ~
      6    -191.912575229098     -0.000000126800      0.00003456      0.00001218      0.00025593      0.00010485  ~
  --------------------------------------------------------------------------------------------------------------- ~

	Writing optimization data to binary file.
	Final energy is   -191.9125752290984
	Final (previous) structure:
	Cartesian Geometry (in Angstrom)
	    H     1.0265880888   0.5365605665   1.5234425208
	    O     1.3484985660   0.0018722654   0.8108658200
	    C     0.7001323692   0.3704870396  -0.3808064185
	    C    -0.8087966832   0.3479545844  -0.2756292647
	    H     1.0337445491  -0.3353122422  -1.1292077574
	    H     1.0303147499   1.3563252552  -0.7000573364
	    C    -1.5301924851  -0.7540710421  -0.3302271584
	    H    -1.3016044103   1.2930635158  -0.1074426217
	    H    -1.0773081296  -1.7178390257  -0.4901450713
	    H    -2.5997985272  -0.7382789019  -0.2175933060
	Saving final (previous) structure.
			--------------------------
			 OPTKING Finished Execution 
			--------------------------

    Final optimized geometry and variables:
    Molecular point group: c1
    Full point group: C1

    Geometry (in Angstrom), charge = 0, multiplicity = 1:

    H            1.026588010432     0.536560525540     1.523442404476
    O            1.348498462992     0.001872265210     0.810865758090
    C            0.700132315730     0.370487011279    -0.380806389397
    C           -0.808796621463     0.347954557875    -0.275629243633
    H            1.033744470190    -0.335312216603    -1.129207671122
    H            1.030314671176     1.356325151587    -0.700057282964
    C           -1.530192368214    -0.754070984540    -0.330227133134
    H           -1.301604310858     1.293063417091    -0.107442613535
    H           -1.077308047322    -1.717838894523    -0.490145033839
    H           -2.599798328708    -0.738278845551    -0.217593289398

	Cleaning optimization helper files.


Properties will be evaluated at   0.000000,   0.000000,   0.000000 Bohr

Properties computed using the  density matrix

  Nuclear Dipole Moment: (a.u.)
     X:    -1.7635      Y:     0.3699      Z:    -1.0470

  Electronic Dipole Moment: (a.u.)
     X:     1.2183      Y:     0.0912      Z:     1.0066

  Dipole Moment: (a.u.)
     X:    -0.5453      Y:     0.4610      Z:    -0.0404     Total:     0.7152

  Dipole Moment: (Debye)
     X:    -1.3859      Y:     1.1718      Z:    -0.1027     Total:     1.8178

  Quadrupole Moment: (Debye Ang)
    XX:   -27.2637     YY:   -23.0224     ZZ:   -24.2165
    XY:     1.5167     XZ:    -1.3921     YZ:     2.2251

  Traceless Quadrupole Moment: (Debye Ang)
    XX:    -2.4295     YY:     1.8118     ZZ:     0.6177
    XY:     1.5167     XZ:    -1.3921     YZ:     2.2251

  Mulliken Charges: (a.u.)
   Center  Symbol    Alpha    Beta     Spin     Total
       1     H     0.28329  0.28329  0.00000  0.43342
       2     O     4.36546  4.36546  0.00000 -0.73092
       3     C     3.00329  3.00329  0.00000 -0.00658
       4     C     3.10215  3.10215  0.00000 -0.20431
       5     H     0.41087  0.41087  0.00000  0.17825
       6     H     0.42744  0.42744  0.00000  0.14512
       7     C     3.18118  3.18118  0.00000 -0.36236
       8     H     0.40957  0.40957  0.00000  0.18085
       9     H     0.40726  0.40726  0.00000  0.18548
      10     H     0.40948  0.40948  0.00000  0.18105

   Total alpha = 16.00000, Total beta = 16.00000, Total charge =  0.00000


*** PSI4 exiting successfully. Buy a developer a beer!
