    -----------------------------------------------------------------------
          Psi4: An Open-Source Ab Initio Electronic Structure Package
                              Psi4 (no tag) Driver

                          Git: Rev {detached?}  

    J. M. Turney, A. C. Simmonett, R. M. Parrish, E. G. Hohenstein,
    F. A. Evangelista, J. T. Fermann, B. J. Mintz, L. A. Burns, J. J. Wilke,
    M. L. Abrams, N. J. Russ, M. L. Leininger, C. L. Janssen, E. T. Seidl,
    W. D. Allen, H. F. Schaefer, R. A. King, E. F. Valeev, C. D. Sherrill,
    and T. D. Crawford, WIREs Comput. Mol. Sci. 2, 556-565 (2012)
    (doi: 10.1002/wcms.93)

                         Additional Contributions by
    A. E. DePrince, M. Saitow, U. Bozkaya, A. Yu. Sokolov
    -----------------------------------------------------------------------


    Psi4 started on: Thu Sep  1 22:06:58 2016

    Process ID:   9689
    PSI4DATADIR: /export131/home/mjharvey/miniconda3/share
    Memory level set to 256.000 MB

  ==> Input File <==

--------------------------------------------------------------------------
set {
	reference rhf
	basis 6-31G*
}


set_num_threads( 1 )
memory 2 gb

molecule MOL {
0 1

H	 -2.798360	 -0.862255	 -0.071053
N	 -1.863561	 -0.715187	 0.256814
C	 -1.344686	 0.554728	 -0.219830
H	 -1.300452	 -1.461917	 -0.101532
C	 -1.334835	 0.573636	 -1.733990
H	 -1.909754	 1.419320	 0.131141
H	 -0.324305	 0.667248	 0.133642
O	 -2.658447	 0.507360	 -2.182038
H	 -0.862290	 1.486419	 -2.096158
H	 -0.767362	 -0.276267	 -2.106648
C	 -2.793304	 0.430723	 -3.565335
H	 -3.850309	 0.386021	 -3.789923
H	 -2.366596	 1.303848	 -4.055800
H	 -2.310021	 -0.459189	 -3.963207

	symmetry c1
}
set optking {
	frozen_dihedral = ("
		8 5 3 6,
		5 8 11 13,
		11 8 5 3
	")
}

ee = energy('scf')
oeprop('DIPOLE', 'QUADRUPOLE', 'MULLIKEN_CHARGES')
f=open( 'psi4out.xyz', 'w' )
f.write( "14  " )
f.write( str(ee) + "\n" )
f.write( MOL.save_string_xyz() )
f.close()
--------------------------------------------------------------------------

  Memory set to   2.000 GiB by Python script.

*** tstart() called on cx1-3-14-1.cx1.hpc.ic.ac.uk
*** at Thu Sep  1 22:06:58 2016


         ---------------------------------------------------------
                                   SCF
            by Justin Turney, Rob Parrish, and Andy Simmonett
                              RHF Reference
                        1 Threads,   2000 MiB Core
         ---------------------------------------------------------

  ==> Geometry <==

    Molecular point group: c1
    Full point group: C1

    Geometry (in Angstrom), charge = 0, multiplicity = 1:

       Center              X                  Y                   Z               Mass       
    ------------   -----------------  -----------------  -----------------  -----------------
           H         -0.788065829895    -1.115755436881     1.441957453188     1.007825032070
           N          0.146733170105    -0.968687436881     1.769824453188    14.003074004780
           C          0.665608170105     0.301227563119     1.293180453188    12.000000000000
           H          0.709842170105    -1.715417436881     1.411478453188     1.007825032070
           C          0.675459170105     0.320135563119    -0.220979546812    12.000000000000
           H          0.100540170105     1.165819563119     1.644151453188     1.007825032070
           H          1.685989170105     0.413747563119     1.646652453188     1.007825032070
           O         -0.648152829895     0.253859563119    -0.669027546812    15.994914619560
           H          1.148004170105     1.232918563119    -0.583147546812     1.007825032070
           H          1.242932170105    -0.529767436881    -0.593637546812     1.007825032070
           C         -0.783009829895     0.177222563119    -2.052324546812    12.000000000000
           H         -1.840014829895     0.132520563119    -2.276912546812     1.007825032070
           H         -0.356301829895     1.050347563119    -2.542789546812     1.007825032070
           H         -0.299726829895    -0.712689436881    -2.450196546812     1.007825032070

  Running in c1 symmetry.

  Rotational constants: A =      0.42051  B =      0.09233  C =      0.08369 [cm^-1]
  Rotational constants: A =  12606.60395  B =   2767.94573  C =   2509.01081 [MHz]
  Nuclear repulsion =  195.345100009459145

  Charge       = 0
  Multiplicity = 1
  Electrons    = 42
  Nalpha       = 21
  Nbeta        = 21

  ==> Algorithm <==

  SCF Algorithm Type is DF.
  DIIS enabled.
  MOM disabled.
  Fractional occupation disabled.
  Guess Type is CORE.
  Energy threshold   = 1.00e-06
  Density threshold  = 1.00e-06
  Integral threshold = 0.00e+00

  ==> Primary Basis <==

  Basis Set: 6-31G*
    Number of shells: 48
    Number of basis function: 93
    Number of Cartesian functions: 93
    Spherical Harmonics?: false
    Max angular momentum: 2

  ==> Pre-Iterations <==

   -------------------------------------------------------
    Irrep   Nso     Nmo     Nalpha   Nbeta   Ndocc  Nsocc
   -------------------------------------------------------
     A         93      93       0       0       0       0
   -------------------------------------------------------
    Total      93      93      21      21      21       0
   -------------------------------------------------------

 OEINTS: Overlap, kinetic, potential, dipole, and quadrupole integrals
         stored in file 35.

  ==> Integral Setup <==

  ==> DFJK: Density-Fitted J/K Matrices <==

    J tasked:                  Yes
    K tasked:                  Yes
    wK tasked:                  No
    OpenMP threads:              1
    Integrals threads:           1
    Memory (MB):              1430
    Algorithm:                Core
    Integral Cache:           NONE
    Schwarz Cutoff:          1E-12
    Fitting Condition:       1E-12

   => Auxiliary Basis Set <=

  Basis Set: 
    Number of shells: 201
    Number of basis function: 630
    Number of Cartesian functions: 630
    Spherical Harmonics?: false
    Max angular momentum: 3

  Minimum eigenvalue in the overlap matrix is 4.6460954916E-03.
  Using Symmetric Orthogonalization.
  SCF Guess: Core (One-Electron) Hamiltonian.

  ==> Iterations <==

                           Total Energy        Delta E     RMS |[F,P]|

   @DF-RHF iter   1:  -201.74380838309702   -2.01744e+02   7.99252e-02 
   @DF-RHF iter   2:  -155.23606644350093    4.65077e+01   6.74441e-02 DIIS
   @DF-RHF iter   3:  -211.90766467013049   -5.66716e+01   6.19188e-02 DIIS
   @DF-RHF iter   4:  -239.26623619566942   -2.73586e+01   4.07921e-02 DIIS
   @DF-RHF iter   5:  -247.86318110293649   -8.59694e+00   7.47097e-03 DIIS
   @DF-RHF iter   6:  -248.07954082364756   -2.16360e-01   3.14107e-03 DIIS
   @DF-RHF iter   7:  -248.11949345012971   -3.99526e-02   7.13221e-04 DIIS
   @DF-RHF iter   8:  -248.12193025183785   -2.43680e-03   2.14501e-04 DIIS
   @DF-RHF iter   9:  -248.12220524746340   -2.74996e-04   6.07933e-05 DIIS
   @DF-RHF iter  10:  -248.12223297543466   -2.77280e-05   2.29418e-05 DIIS
   @DF-RHF iter  11:  -248.12223707385425   -4.09842e-06   7.01898e-06 DIIS
   @DF-RHF iter  12:  -248.12223740287669   -3.29022e-07   2.31786e-06 DIIS
   @DF-RHF iter  13:  -248.12223744034986   -3.74732e-08   3.91211e-07 DIIS

  ==> Post-Iterations <==

    Orbital Energies (a.u.)
    -----------------------

    Doubly Occupied:                                                      

       1A    -20.561533     2A    -15.527589     3A    -11.270101  
       4A    -11.267480     5A    -11.242606     6A     -1.385562  
       7A     -1.175892     8A     -0.999446     9A     -0.910303  
      10A     -0.823403    11A     -0.687306    12A     -0.672663  
      13A     -0.643767    14A     -0.634167    15A     -0.587259  
      16A     -0.548451    17A     -0.523348    18A     -0.512150  
      19A     -0.478886    20A     -0.422640    21A     -0.376007  

    Virtual:                                                              

      22A      0.228063    23A      0.255727    24A      0.280844  
      25A      0.293207    26A      0.313791    27A      0.315084  
      28A      0.323488    29A      0.334518    30A      0.349279  
      31A      0.376356    32A      0.433944    33A      0.440305  
      34A      0.456012    35A      0.727478    36A      0.755483  
      37A      0.767221    38A      0.801068    39A      0.816958  
      40A      0.834337    41A      0.863504    42A      0.917861  
      43A      0.976107    44A      1.011856    45A      1.074236  
      46A      1.086517    47A      1.110786    48A      1.134953  
      49A      1.154392    50A      1.162449    51A      1.171997  
      52A      1.212408    53A      1.216968    54A      1.233165  
      55A      1.250918    56A      1.267787    57A      1.332385  
      58A      1.403398    59A      1.465380    60A      1.586022  
      61A      1.658600    62A      1.686805    63A      1.711908  
      64A      1.769635    65A      1.830721    66A      1.936736  
      67A      2.009793    68A      2.053085    69A      2.216078  
      70A      2.242844    71A      2.345150    72A      2.353370  
      73A      2.408208    74A      2.425278    75A      2.438282  
      76A      2.472145    77A      2.511531    78A      2.581966  
      79A      2.625193    80A      2.702279    81A      2.771515  
      82A      2.801456    83A      2.868753    84A      2.896845  
      85A      3.012134    86A      3.083193    87A      3.188426  
      88A      3.332795    89A      4.226486    90A      4.369244  
      91A      4.658083    92A      4.703675    93A      4.883065  

    Final Occupation by Irrep:
              A 
    DOCC [    21 ]

  Energy converged.

  @DF-RHF Final Energy:  -248.12223744034986

   => Energetics <=

    Nuclear Repulsion Energy =            195.3451000094591450
    One-Electron Energy =                -724.4335064597988776
    Two-Electron Energy =                 280.9661690099904376
    DFT Exchange-Correlation Energy =       0.0000000000000000
    Empirical Dispersion Energy =           0.0000000000000000
    PCM Polarization Energy =               0.0000000000000000
    EFP Energy =                            0.0000000000000000
    Total Energy =                       -248.1222374403493518

    Alert: EFP and PCM quantities not currently incorporated into SCF psivars.

Properties will be evaluated at   0.000000,   0.000000,   0.000000 Bohr
  ==> Properties <==


Properties computed using the SCF density matrix

  Nuclear Dipole Moment: (a.u.)
     X:     1.4994      Y:    -0.0693      Z:    -2.1668

  Electronic Dipole Moment: (a.u.)
     X:    -1.1256      Y:     0.0645      Z:     1.2071

  Dipole Moment: (a.u.)
     X:     0.3738      Y:    -0.0049      Z:    -0.9597     Total:     1.0300

  Dipole Moment: (Debye)
     X:     0.9501      Y:    -0.0124      Z:    -2.4394     Total:     2.6179


  Saving occupied orbitals to File 180.

*** tstop() called on cx1-3-14-1.cx1.hpc.ic.ac.uk at Thu Sep  1 22:07:03 2016
Module time:
	user time   =       4.35 seconds =       0.07 minutes
	system time =       0.03 seconds =       0.00 minutes
	total time  =          5 seconds =       0.08 minutes
Total time:
	user time   =       4.35 seconds =       0.07 minutes
	system time =       0.03 seconds =       0.00 minutes
	total time  =          5 seconds =       0.08 minutes


Properties will be evaluated at   0.000000,   0.000000,   0.000000 Bohr

Properties computed using the  density matrix

  Nuclear Dipole Moment: (a.u.)
     X:     1.4994      Y:    -0.0693      Z:    -2.1668

  Electronic Dipole Moment: (a.u.)
     X:    -1.1256      Y:     0.0645      Z:     1.2071

  Dipole Moment: (a.u.)
     X:     0.3738      Y:    -0.0049      Z:    -0.9597     Total:     1.0300

  Dipole Moment: (Debye)
     X:     0.9501      Y:    -0.0124      Z:    -2.4394     Total:     2.6179

  Quadrupole Moment: (Debye Ang)
    XX:   -30.8170     YY:   -30.9463     ZZ:   -36.0188
    XY:     0.3423     XZ:     0.7921     YZ:     1.8916

  Traceless Quadrupole Moment: (Debye Ang)
    XX:     1.7771     YY:     1.6477     ZZ:    -3.4248
    XY:     0.3423     XZ:     0.7921     YZ:     1.8916

  Mulliken Charges: (a.u.)
   Center  Symbol    Alpha    Beta     Spin     Total
       1     H     0.32388  0.32388  0.00000  0.35223
       2     N     3.91853  3.91853  0.00000 -0.83706
       3     C     3.07250  3.07250  0.00000 -0.14501
       4     H     0.33666  0.33666  0.00000  0.32669
       5     C     2.99475  2.99475  0.00000  0.01049
       6     H     0.41030  0.41030  0.00000  0.17939
       7     H     0.41861  0.41861  0.00000  0.16277
       8     O     4.30748  4.30748  0.00000 -0.61496
       9     H     0.43210  0.43210  0.00000  0.13580
      10     H     0.43620  0.43620  0.00000  0.12760
      11     C     3.07913  3.07913  0.00000 -0.15826
      12     H     0.41149  0.41149  0.00000  0.17703
      13     H     0.42865  0.42865  0.00000  0.14271
      14     H     0.42971  0.42971  0.00000  0.14059

   Total alpha = 21.00000, Total beta = 21.00000, Total charge = -0.00000


*** PSI4 exiting successfully. Buy a developer a beer!
