    -----------------------------------------------------------------------
          Psi4: An Open-Source Ab Initio Electronic Structure Package
                              Psi4 (no tag) Driver

                          Git: Rev {detached?}  

    J. M. Turney, A. C. Simmonett, R. M. Parrish, E. G. Hohenstein,
    F. A. Evangelista, J. T. Fermann, B. J. Mintz, L. A. Burns, J. J. Wilke,
    M. L. Abrams, N. J. Russ, M. L. Leininger, C. L. Janssen, E. T. Seidl,
    W. D. Allen, H. F. Schaefer, R. A. King, E. F. Valeev, C. D. Sherrill,
    and T. D. Crawford, WIREs Comput. Mol. Sci. 2, 556-565 (2012)
    (doi: 10.1002/wcms.93)

                         Additional Contributions by
    A. E. DePrince, M. Saitow, U. Bozkaya, A. Yu. Sokolov
    -----------------------------------------------------------------------


    Psi4 started on: Fri Sep  9 21:55:19 2016

    Process ID:  43429
    PSI4DATADIR: /export131/home/mjharvey/miniconda3/share
    Memory level set to 256.000 MB

  ==> Input File <==

--------------------------------------------------------------------------
set {
	reference rhf
	basis cc-pvtz
}


set_num_threads( 4 )
memory 2 gb

molecule MOL {
0 1

H	 -2.556344	 0.770586	 0.918069
C	 -2.545802	 0.089603	 0.077609
C	 -1.285283	 -0.761220	 0.080362
H	 -2.611086	 0.683838	 -0.823966
H	 -3.424899	 -0.540958	 0.136638
C	 0.000000	 0.039916	 0.000014
H	 -1.289667	 -1.460885	 -0.751112
H	 -1.235392	 -1.374936	 0.975769
C	 1.286532	 -0.763243	 0.000268
O	 -0.000926	 1.226011	 -0.059621
C	 2.547023	 0.087626	 -0.000114
H	 1.264245	 -1.421103	 -0.864380
H	 1.264290	 -1.420353	 0.865489
H	 2.584452	 0.725630	 -0.872909
H	 3.427035	 -0.544422	 0.000125
H	 2.584484	 0.726356	 0.872143

	symmetry c1
}
set optking {
	frozen_dihedral = ("
		3 6 9 12
	")
}

ee = optimize('scf')
oeprop('DIPOLE', 'QUADRUPOLE', 'MULLIKEN_CHARGES')
f=open( 'psi4out.xyz', 'w' )
f.write( "16  " )
f.write( str(ee) + "\n" )
f.write( MOL.save_string_xyz() )
f.close()
--------------------------------------------------------------------------

  Memory set to   2.000 GiB by Python script.
gradient() will perform analytic gradient computation.

*** tstart() called on cx1-27-3-3
*** at Fri Sep  9 21:55:19 2016


         ---------------------------------------------------------
                                   SCF
            by Justin Turney, Rob Parrish, and Andy Simmonett
                              RHF Reference
                        4 Threads,   2000 MiB Core
         ---------------------------------------------------------

  ==> Geometry <==

    Molecular point group: c1
    Full point group: C1

    Geometry (in Angstrom), charge = 0, multiplicity = 1:

       Center              X                  Y                   Z               Mass       
    ------------   -----------------  -----------------  -----------------  -----------------
           H         -2.556599624475     0.770171201599     0.901763472458     1.007825032070
           C         -2.546057624475     0.089188201599     0.061303472458    12.000000000000
           C         -1.285538624475    -0.761634798401     0.064056472458    12.000000000000
           H         -2.611341624475     0.683423201599    -0.840271527542     1.007825032070
           H         -3.425154624475    -0.541372798401     0.120332472458     1.007825032070
           C         -0.000255624475     0.039501201599    -0.016291527542    12.000000000000
           H         -1.289922624475    -1.461299798401    -0.767417527542     1.007825032070
           H         -1.235647624475    -1.375350798401     0.959463472458     1.007825032070
           C          1.286276375525    -0.763657798401    -0.016037527542    12.000000000000
           O         -0.001181624475     1.225596201599    -0.075926527542    15.994914619560
           C          2.546767375525     0.087211201599    -0.016419527542    12.000000000000
           H          1.263989375525    -1.421517798401    -0.880685527542     1.007825032070
           H          1.264034375525    -1.420767798401     0.849183472458     1.007825032070
           H          2.584196375525     0.725215201599    -0.889214527542     1.007825032070
           H          3.426779375525    -0.544836798401    -0.016180527542     1.007825032070
           H          2.584228375525     0.725941201599     0.855837472458     1.007825032070

  Running in c1 symmetry.

  Rotational constants: A =      0.30502  B =      0.06520  C =      0.05590 [cm^-1]
  Rotational constants: A =   9144.17521  B =   1954.77890  C =   1675.98311 [MHz]
  Nuclear repulsion =  240.361492314706027

  Charge       = 0
  Multiplicity = 1
  Electrons    = 48
  Nalpha       = 24
  Nbeta        = 24

  ==> Algorithm <==

  SCF Algorithm Type is DF.
  DIIS enabled.
  MOM disabled.
  Fractional occupation disabled.
  Guess Type is CORE.
  Energy threshold   = 1.00e-08
  Density threshold  = 1.00e-08
  Integral threshold = 0.00e+00

  ==> Primary Basis <==

  Basis Set: CC-PVTZ
    Number of shells: 120
    Number of basis function: 320
    Number of Cartesian functions: 360
    Spherical Harmonics?: true
    Max angular momentum: 3

  ==> Pre-Iterations <==

   -------------------------------------------------------
    Irrep   Nso     Nmo     Nalpha   Nbeta   Ndocc  Nsocc
   -------------------------------------------------------
     A        320     320       0       0       0       0
   -------------------------------------------------------
    Total     320     320      24      24      24       0
   -------------------------------------------------------

 OEINTS: Overlap, kinetic, potential, dipole, and quadrupole integrals
         stored in file 35.

  ==> Integral Setup <==

  ==> DFJK: Density-Fitted J/K Matrices <==

    J tasked:                  Yes
    K tasked:                  Yes
    wK tasked:                  No
    OpenMP threads:              4
    Integrals threads:           4
    Memory (MB):              1430
    Algorithm:                Core
    Integral Cache:           NONE
    Schwarz Cutoff:          1E-12
    Fitting Condition:       1E-12

   => Auxiliary Basis Set <=

  Basis Set: 
    Number of shells: 250
    Number of basis function: 774
    Number of Cartesian functions: 926
    Spherical Harmonics?: true
    Max angular momentum: 4

  Minimum eigenvalue in the overlap matrix is 3.6662545120E-04.
  Using Symmetric Orthogonalization.
  SCF Guess: Core (One-Electron) Hamiltonian.

  ==> Iterations <==

                           Total Energy        Delta E     RMS |[F,P]|

   @DF-RHF iter   1:  -160.50020476911419   -1.60500e+02   4.58912e-02 
   @DF-RHF iter   2:  -181.63455575240033   -2.11344e+01   2.69723e-02 DIIS
   @DF-RHF iter   3:  -226.63160030520885   -4.49970e+01   2.06596e-02 DIIS
   @DF-RHF iter   4:  -268.22192516694520   -4.15903e+01   6.02444e-03 DIIS
   @DF-RHF iter   5:  -269.72587799611955   -1.50395e+00   3.23251e-03 DIIS
   @DF-RHF iter   6:  -270.09245902824085   -3.66581e-01   9.43758e-04 DIIS
   @DF-RHF iter   7:  -270.12952183248393   -3.70628e-02   1.78859e-04 DIIS
   @DF-RHF iter   8:  -270.13167741669503   -2.15558e-03   4.56772e-05 DIIS
   @DF-RHF iter   9:  -270.13183411646304   -1.56700e-04   1.15454e-05 DIIS
   @DF-RHF iter  10:  -270.13184754986929   -1.34334e-05   2.84110e-06 DIIS
   @DF-RHF iter  11:  -270.13184827458321   -7.24714e-07   1.00593e-06 DIIS
   @DF-RHF iter  12:  -270.13184835209142   -7.75082e-08   2.76200e-07 DIIS
   @DF-RHF iter  13:  -270.13184835844589   -6.35447e-09   5.99040e-08 DIIS
   @DF-RHF iter  14:  -270.13184835877945   -3.33557e-10   1.91464e-08 DIIS
   @DF-RHF iter  15:  -270.13184835882743   -4.79758e-11   6.27920e-09 DIIS

  ==> Post-Iterations <==

    Orbital Energies (a.u.)
    -----------------------

    Doubly Occupied:                                                      

       1A    -20.539267     2A    -11.317908     3A    -11.232201  
       4A    -11.232175     5A    -11.211790     6A    -11.211750  
       7A     -1.399478     8A     -1.069369     9A     -1.037216  
      10A     -0.917052    11A     -0.845963    12A     -0.725985  
      13A     -0.669714    14A     -0.649348    15A     -0.619770  
      16A     -0.608098    17A     -0.561234    18A     -0.527497  
      19A     -0.525629    20A     -0.510878    21A     -0.505349  
      22A     -0.492127    23A     -0.488307    24A     -0.401333  

    Virtual:                                                              

      25A      0.127540    26A      0.151594    27A      0.157443  
      28A      0.173772    29A      0.197013    30A      0.211417  
      31A      0.213014    32A      0.225707    33A      0.234543  
      34A      0.249354    35A      0.251027    36A      0.306165  
      37A      0.329671    38A      0.349365    39A      0.355581  
      40A      0.372298    41A      0.376080    42A      0.389612  
      43A      0.417059    44A      0.455825    45A      0.469446  
      46A      0.479123    47A      0.483868    48A      0.518838  
      49A      0.549074    50A      0.577287    51A      0.579393  
      52A      0.607667    53A      0.616639    54A      0.627486  
      55A      0.638369    56A      0.641235    57A      0.648198  
      58A      0.649776    59A      0.667540    60A      0.673443  
      61A      0.682789    62A      0.686174    63A      0.704097  
      64A      0.725783    65A      0.730044    66A      0.739351  
      67A      0.751380    68A      0.813885    69A      0.835103  
      70A      0.841944    71A      0.853435    72A      0.877582  
      73A      0.928616    74A      0.958077    75A      0.961395  
      76A      0.982038    77A      0.990599    78A      0.991714  
      79A      1.050122    80A      1.061194    81A      1.083011  
      82A      1.107013    83A      1.140831    84A      1.150705  
      85A      1.150952    86A      1.198273    87A      1.202925  
      88A      1.219721    89A      1.226625    90A      1.252037  
      91A      1.268012    92A      1.271574    93A      1.283447  
      94A      1.296143    95A      1.318852    96A      1.327857  
      97A      1.336619    98A      1.349266    99A      1.369004  
     100A      1.393052   101A      1.401645   102A      1.431653  
     103A      1.437073   104A      1.439652   105A      1.481464  
     106A      1.497415   107A      1.512206   108A      1.523325  
     109A      1.527458   110A      1.551227   111A      1.578411  
     112A      1.586620   113A      1.607479   114A      1.614267  
     115A      1.616384   116A      1.621080   117A      1.654233  
     118A      1.673063   119A      1.708778   120A      1.725636  
     121A      1.742448   122A      1.760822   123A      1.801264  
     124A      1.815551   125A      1.825916   126A      1.868785  
     127A      1.888225   128A      1.956968   129A      2.052194  
     130A      2.130315   131A      2.230846   132A      2.261256  
     133A      2.424718   134A      2.462413   135A      2.464853  
     136A      2.479744   137A      2.597965   138A      2.613634  
     139A      2.623590   140A      2.654434   141A      2.662465  
     142A      2.686848   143A      2.726859   144A      2.775067  
     145A      2.795076   146A      2.805778   147A      2.821193  
     148A      2.827391   149A      2.842958   150A      2.880736  
     151A      2.920333   152A      2.929714   153A      2.956951  
     154A      2.960511   155A      2.975097   156A      2.980496  
     157A      3.034236   158A      3.077665   159A      3.092192  
     160A      3.096659   161A      3.126451   162A      3.129666  
     163A      3.138786   164A      3.143604   165A      3.150364  
     166A      3.171501   167A      3.180078   168A      3.235299  
     169A      3.261829   170A      3.262371   171A      3.310187  
     172A      3.317105   173A      3.327811   174A      3.341506  
     175A      3.359060   176A      3.361570   177A      3.378517  
     178A      3.394949   179A      3.402090   180A      3.410337  
     181A      3.418864   182A      3.425373   183A      3.450691  
     184A      3.453174   185A      3.483086   186A      3.488534  
     187A      3.489691   188A      3.539152   189A      3.548662  
     190A      3.552703   191A      3.584985   192A      3.618318  
     193A      3.636126   194A      3.650943   195A      3.693576  
     196A      3.713775   197A      3.750871   198A      3.752162  
     199A      3.761845   200A      3.789989   201A      3.797747  
     202A      3.803510   203A      3.810855   204A      3.837333  
     205A      3.864078   206A      3.882437   207A      3.890553  
     208A      3.893258   209A      3.923232   210A      3.925048  
     211A      3.962047   212A      3.994532   213A      3.996652  
     214A      4.032467   215A      4.047914   216A      4.105183  
     217A      4.113613   218A      4.117488   219A      4.136616  
     220A      4.142448   221A      4.164564   222A      4.200126  
     223A      4.204718   224A      4.219027   225A      4.223075  
     226A      4.255633   227A      4.260602   228A      4.291830  
     229A      4.301682   230A      4.322169   231A      4.332143  
     232A      4.335032   233A      4.387677   234A      4.394452  
     235A      4.400823   236A      4.425346   237A      4.428688  
     238A      4.432169   239A      4.446600   240A      4.455198  
     241A      4.458532   242A      4.530368   243A      4.562955  
     244A      4.587656   245A      4.597815   246A      4.599935  
     247A      4.600446   248A      4.636650   249A      4.647882  
     250A      4.676115   251A      4.698732   252A      4.706143  
     253A      4.712343   254A      4.776206   255A      4.794349  
     256A      4.825838   257A      4.829802   258A      4.929655  
     259A      4.969130   260A      5.016390   261A      5.080413  
     262A      5.100428   263A      5.138640   264A      5.147930  
     265A      5.200771   266A      5.207281   267A      5.232776  
     268A      5.242980   269A      5.281377   270A      5.291312  
     271A      5.301569   272A      5.314629   273A      5.320996  
     274A      5.359586   275A      5.373913   276A      5.438954  
     277A      5.461344   278A      5.472977   279A      5.589484  
     280A      5.593452   281A      5.602979   282A      5.639455  
     283A      5.657854   284A      5.700670   285A      5.733043  
     286A      5.736117   287A      5.737512   288A      5.745927  
     289A      5.757636   290A      5.760439   291A      5.768633  
     292A      5.799386   293A      5.818619   294A      5.825768  
     295A      5.903742   296A      5.913949   297A      5.970832  
     298A      6.103692   299A      6.127920   300A      6.246682  
     301A      6.299496   302A      6.315187   303A      6.316194  
     304A      6.316745   305A      6.334219   306A      6.408634  
     307A      6.841425   308A      6.851294   309A      6.956599  
     310A      7.063786   311A      7.243007   312A      7.406105  
     313A      7.610531   314A      7.621944   315A      9.624998  
     316A     13.335860   317A     13.499201   318A     14.294317  
     319A     14.470003   320A     14.739513  

    Final Occupation by Irrep:
              A 
    DOCC [    24 ]

  Energy converged.

  @DF-RHF Final Energy:  -270.13184835882743

   => Energetics <=

    Nuclear Repulsion Energy =            240.3614923147060267
    One-Electron Energy =                -842.3878019967708042
    Two-Electron Energy =                 331.8944613232372944
    DFT Exchange-Correlation Energy =       0.0000000000000000
    Empirical Dispersion Energy =           0.0000000000000000
    PCM Polarization Energy =               0.0000000000000000
    EFP Energy =                            0.0000000000000000
    Total Energy =                       -270.1318483588274262

    Alert: EFP and PCM quantities not currently incorporated into SCF psivars.

Properties will be evaluated at   0.000000,   0.000000,   0.000000 Bohr
  ==> Properties <==


Properties computed using the SCF density matrix

  Nuclear Dipole Moment: (a.u.)
     X:     0.0043      Y:    -3.6131      Z:     0.2741

  Electronic Dipole Moment: (a.u.)
     X:    -0.0032      Y:     2.4723      Z:    -0.2190

  Dipole Moment: (a.u.)
     X:     0.0010      Y:    -1.1408      Z:     0.0551     Total:     1.1421

  Dipole Moment: (Debye)
     X:     0.0027      Y:    -2.8996      Z:     0.1400     Total:     2.9030


  Saving occupied orbitals to File 180.

*** tstop() called on cx1-27-3-3 at Fri Sep  9 21:55:32 2016
Module time:
	user time   =      39.40 seconds =       0.66 minutes
	system time =       0.72 seconds =       0.01 minutes
	total time  =         13 seconds =       0.22 minutes
Total time:
	user time   =      39.40 seconds =       0.66 minutes
	system time =       0.72 seconds =       0.01 minutes
	total time  =         13 seconds =       0.22 minutes

*** tstart() called on cx1-27-3-3
*** at Fri Sep  9 21:55:32 2016


         ------------------------------------------------------------
                                   SCF GRAD                          
                          Rob Parrish, Justin Turney,                
                       Andy Simmonett, and Alex Sokolov              
         ------------------------------------------------------------

  ==> Geometry <==

    Molecular point group: c1
    Full point group: C1

    Geometry (in Angstrom), charge = 0, multiplicity = 1:

       Center              X                  Y                   Z               Mass       
    ------------   -----------------  -----------------  -----------------  -----------------
           H         -2.556599624475     0.770171201599     0.901763472458     1.007825032070
           C         -2.546057624475     0.089188201599     0.061303472458    12.000000000000
           C         -1.285538624475    -0.761634798401     0.064056472458    12.000000000000
           H         -2.611341624475     0.683423201599    -0.840271527542     1.007825032070
           H         -3.425154624475    -0.541372798401     0.120332472458     1.007825032070
           C         -0.000255624475     0.039501201599    -0.016291527542    12.000000000000
           H         -1.289922624475    -1.461299798401    -0.767417527542     1.007825032070
           H         -1.235647624475    -1.375350798401     0.959463472458     1.007825032070
           C          1.286276375525    -0.763657798401    -0.016037527542    12.000000000000
           O         -0.001181624475     1.225596201599    -0.075926527542    15.994914619560
           C          2.546767375525     0.087211201599    -0.016419527542    12.000000000000
           H          1.263989375525    -1.421517798401    -0.880685527542     1.007825032070
           H          1.264034375525    -1.420767798401     0.849183472458     1.007825032070
           H          2.584196375525     0.725215201599    -0.889214527542     1.007825032070
           H          3.426779375525    -0.544836798401    -0.016180527542     1.007825032070
           H          2.584228375525     0.725941201599     0.855837472458     1.007825032070

  Nuclear repulsion =  240.361492314706027

  ==> Basis Set <==

  Basis Set: CC-PVTZ
    Number of shells: 120
    Number of basis function: 320
    Number of Cartesian functions: 360
    Spherical Harmonics?: true
    Max angular momentum: 3

  ==> DFJKGrad: Density-Fitted SCF Gradients <==

    Gradient:                    1
    J tasked:                  Yes
    K tasked:                  Yes
    wK tasked:                  No
    OpenMP threads:              4
    Integrals threads:           4
    Memory (MB):              1430
    Schwarz Cutoff:          0E+00
    Fitting Condition:       1E-12

   => Auxiliary Basis Set <=

  Basis Set: 
    Number of shells: 250
    Number of basis function: 774
    Number of Cartesian functions: 926
    Spherical Harmonics?: true
    Max angular momentum: 4


  -Total Gradient:
     Atom            X                  Y                   Z
    ------   -----------------  -----------------  -----------------
       1       -0.000015708084     0.000006043222    -0.000002884054
       2       -0.000009367460     0.000013586112     0.000083132467
       3        0.000032884391    -0.000003320546     0.000093137183
       4        0.000011777588    -0.000005464087    -0.000000126584
       5        0.000006249801    -0.000001104935     0.000000067929
       6        0.000013727464    -0.000047625340     0.000029853571
       7       -0.000032143542     0.000091831667     0.000030766734
       8        0.000021724742    -0.000098048341     0.000036172251
       9        0.000000782876     0.000065433531    -0.000860876146
      10       -0.000009998504     0.000013999245    -0.000059510177
      11        0.000000702012    -0.000001935121     0.000565882683
      12        0.000199321849    -0.000064297033     0.000173235788
      13       -0.000219452473     0.000031957196     0.000174536749
      14        0.000014494977     0.000044258758    -0.000098558397
      15       -0.000004707363    -0.000005985783    -0.000052332712
      16       -0.000010288275    -0.000039328544    -0.000112497285


*** tstop() called on cx1-27-3-3 at Fri Sep  9 21:55:52 2016
Module time:
	user time   =      76.02 seconds =       1.27 minutes
	system time =       0.53 seconds =       0.01 minutes
	total time  =         20 seconds =       0.33 minutes
Total time:
	user time   =     115.43 seconds =       1.92 minutes
	system time =       1.25 seconds =       0.02 minutes
	total time  =         33 seconds =       0.55 minutes
CURRENT ENERGY: -270.1318483588

			-----------------------------------------
			 OPTKING 2.0: for geometry optimizations 
			  - R.A. King,  Bethel University        
			-----------------------------------------

	Internal coordinates to be generated automatically.
	Detected frag with atoms:  1 2 3 4 5 6 7 8 9 10 11 12 13 14 15 16
	---Fragment 1 Bond Connectivity---
	 1 : 2
	 2 : 1 3 4 5
	 3 : 2 6 7 8
	 4 : 2
	 5 : 2
	 6 : 3 9 10
	 7 : 3
	 8 : 3
	 9 : 6 11 12 13
	 10 : 6
	 11 : 9 14 15 16
	 12 : 9
	 13 : 9
	 14 : 11
	 15 : 11
	 16 : 11

	Assuming in current code that numbering for constraints corresponds to unified fragment.
	Frozen dihedral atom list: 
	     3     6     9    12
	---Fragment 1 Geometry and Gradient---
	 H          -4.8312731217        1.4554126465        1.7040859996
	 C          -4.8113516288        0.1685412753        0.1158467739
	 C          -2.4293159335       -1.4392811823        0.1210491900
	 H          -4.9347205097        1.2914826839       -1.5878830643
	 H          -6.4726042030       -1.0230463248        0.2273954178
	 C          -0.0004830603        0.0746464529       -0.0307865253
	 H          -2.4376004929       -2.7614564170       -1.4502089566
	 H          -2.3350356070       -2.5990363456        1.8131231975
	 C           2.4307100809       -1.4431040982       -0.0303065349
	 O          -0.0022329467        2.3160411705       -0.1434803433
	 C           4.8126928639        0.1648052867       -0.0310284103
	 H           2.3885937546       -2.6862793320       -1.6642544562
	 H           2.3886787923       -2.6848620374        1.6047241995
	 H           4.8834234233        1.3704581184       -1.6803719304
	 H           6.4756745376       -1.0295923361       -0.0305767657
	 H           4.8834838946        1.3718300596        1.6172984372
	            -0.0000157081        0.0000060432       -0.0000028841
	            -0.0000093675        0.0000135861        0.0000831325
	             0.0000328844       -0.0000033205        0.0000931372
	             0.0000117776       -0.0000054641       -0.0000001266
	             0.0000062498       -0.0000011049        0.0000000679
	             0.0000137275       -0.0000476253        0.0000298536
	            -0.0000321435        0.0000918317        0.0000307667
	             0.0000217247       -0.0000980483        0.0000361723
	             0.0000007829        0.0000654335       -0.0008608761
	            -0.0000099985        0.0000139992       -0.0000595102
	             0.0000007020       -0.0000019351        0.0005658827
	             0.0001993218       -0.0000642970        0.0001732358
	            -0.0002194525        0.0000319572        0.0001745367
	             0.0000144950        0.0000442588       -0.0000985584
	            -0.0000047074       -0.0000059858       -0.0000523327
	            -0.0000102883       -0.0000393285       -0.0001124973

	Previous optimization step data not found.  Starting new optimization.

	---Fragment 1 Intrafragment Coordinates---
	 - Coordinate -           - BOHR/RAD -       - ANG/DEG -
	 R(1,2)           =         2.044245	       1.081768
	 R(2,3)           =         2.873885	       1.520794
	 R(2,4)           =         2.044239	       1.081765
	 R(2,5)           =         2.047458	       1.083468
	 R(3,6)           =         2.866053	       1.516650
	 R(3,7)           =         2.053550	       1.086692
	 R(3,8)           =         2.053542	       1.086688
	 R(6,9)           =         2.866054	       1.516651
	 R(6,10)          =         2.244227	       1.187594
	 R(9,11)          =         2.873885	       1.520795
	 R(9,12)          =         2.053544	       1.086689
	 R(9,13)          =         2.053547	       1.086690
	 R(11,14)         =         2.044245	       1.081768
	 R(11,15)         =         2.047460	       1.083469
	 R(11,16)         =         2.044236	       1.081763
	 B(1,2,3)         =         1.937838	     111.029950
	 B(1,2,4)         =         1.876672	     107.525369
	 B(1,2,5)         =         1.892443	     108.428977
	 B(2,3,6)         =         1.989739	     114.003651
	 B(2,3,7)         =         1.934222	     110.822763
	 B(2,3,8)         =         1.934250	     110.824383
	 B(3,2,4)         =         1.937834	     111.029719
	 B(3,2,5)         =         1.924971	     110.292701
	 B(3,6,9)         =         2.025426	     116.048345
	 B(3,6,10)        =         2.128878	     121.975749
	 B(4,2,5)         =         1.892450	     108.429404
	 B(6,3,7)         =         1.878617	     107.636802
	 B(6,3,8)         =         1.878704	     107.641829
	 B(6,9,11)        =         1.989739	     114.003674
	 B(6,9,12)        =         1.878693	     107.641201
	 B(6,9,13)        =         1.878626	     107.637344
	 B(7,3,8)         =         1.841103	     105.487431
	 B(9,6,10)        =         2.128881	     121.975905
	 B(9,11,14)       =         1.937838	     111.029940
	 B(9,11,15)       =         1.924968	     110.292560
	 B(9,11,16)       =         1.937834	     111.029711
	 B(11,9,12)       =         1.934248	     110.824271
	 B(11,9,13)       =         1.934226	     110.822980
	 B(12,9,13)       =         1.841102	     105.487377
	 B(14,11,15)      =         1.892440	     108.428828
	 B(14,11,16)      =         1.876674	     107.525479
	 B(15,11,16)      =         1.892454	     108.429609
	 D(1,2,3,6)       =        -1.043469	     -59.786384
	 D(1,2,3,7)       =         3.117145	     178.599267
	 D(1,2,3,8)       =         1.079238	      61.835781
	 D(2,3,6,9)       =         3.141084	     179.970851
	 D(2,3,6,10)      =        -0.000552	      -0.031648
	 D(3,6,9,11)      =        -3.082859	    -176.634812
	*D(3,6,9,12)      =         1.047198	      60.000007
	 D(3,6,9,13)      =        -0.929809	     -53.274154
	 D(4,2,3,6)       =         1.043377	      59.781125
	 D(4,2,3,7)       =        -1.079193	     -61.833224
	 D(4,2,3,8)       =        -3.117101	    -178.596711
	 D(5,2,3,6)       =         3.141550	     179.997563
	 D(5,2,3,7)       =         1.018979	      58.383214
	 D(5,2,3,8)       =        -1.018928	     -58.380272
	 D(6,9,11,14)     =        -1.043465	     -59.786117
	 D(6,9,11,15)     =         3.141560	     179.998116
	 D(6,9,11,16)     =         1.043384	      59.781519
	 D(7,3,6,9)       =        -0.989064	     -56.669189
	 D(7,3,6,10)      =         2.152485	     123.328312
	 D(8,3,6,9)       =         0.987945	      56.605076
	 D(8,3,6,10)      =        -2.153691	    -123.397424
	 D(10,6,9,11)     =         0.058777	       3.367687
	 D(10,6,9,12)     =        -2.094351	    -119.997494
	 D(10,6,9,13)     =         2.211827	     126.728345
	 D(12,9,11,14)    =         1.079227	      61.835157
	 D(12,9,11,15)    =        -1.018934	     -58.380610
	 D(12,9,11,16)    =        -3.117109	    -178.597207
	 D(13,9,11,14)    =         3.117134	     178.598642
	 D(13,9,11,15)    =         1.018973	      58.382874
	 D(13,9,11,16)    =        -1.079202	     -61.833722

	Current energy   :      -270.1318483588

	Generating empirical Hessian (Schlegel '84) for each fragment.
	Taking RFO optimization step.
	Going to follow RFO solution 1.
	Using RFO vector 1.
	Norm of target step-size    0.06452
	Projected energy change by RFO approximation:         0.0000252514

	Back-transformation to cartesian coordinates...
	Successfully converged to displaced geometry.

	Back-transformation to cartesian coordinates to adjust frozen coordinates...
	Successfully converged to displaced geometry.

	--- Internal Coordinate Step in ANG or DEG, aJ/ANG or AJ/DEG ---
	 ---------------------------------------------------------------------------
	   Coordinate                Previous        Force       Change         New 
	   ----------                --------       ------       ------       ------
	    1 R(1,2)          =      1.081768    -0.000014    -0.000003     1.081766
	    2 R(2,3)          =      1.520794    -0.000107    -0.000023     1.520772
	    3 R(2,4)          =      1.081765     0.000030     0.000005     1.081770
	    4 R(2,5)          =      1.083468     0.000036     0.000007     1.083475
	    5 R(3,6)          =      1.516650     0.000018     0.000004     1.516654
	    6 R(3,7)          =      1.086692     0.000680     0.000124     1.086816
	    7 R(3,8)          =      1.086688    -0.000710    -0.000130     1.086558
	    8 R(6,9)          =      1.516651     0.000265     0.000056     1.516706
	    9 R(6,10)         =      1.187594    -0.000140    -0.000008     1.187586
	   10 R(9,11)         =      1.520795     0.000013     0.000003     1.520797
	   11 R(9,12)         =      1.086689     0.000849     0.000155     1.086844
	   12 R(9,13)         =      1.086690    -0.001023    -0.000187     1.086504
	   13 R(11,14)        =      1.081768    -0.000874    -0.000157     1.081611
	   14 R(11,15)        =      1.083469     0.000003     0.000001     1.083470
	   15 R(11,16)        =      1.081763     0.000942     0.000169     1.081932
	   16 B(1,2,3)        =    111.029950    -0.000002    -0.012034   111.017916
	   17 B(1,2,4)        =    107.525369     0.000000     0.000092   107.525461
	   18 B(1,2,5)        =    108.428977     0.000001     0.000587   108.429564
	   19 B(2,3,6)        =    114.003651     0.000000    -0.000363   114.003288
	   20 B(2,3,7)        =    110.822763    -0.000000    -0.004631   110.818132
	   21 B(2,3,8)        =    110.824383     0.000001     0.008653   110.833036
	   22 B(3,2,4)        =    111.029719     0.000002     0.008735   111.038453
	   23 B(3,2,5)        =    110.292701     0.000001     0.003282   110.295983
	   24 B(3,6,9)        =    116.048345     0.000002     0.004359   116.052704
	   25 B(3,6,10)       =    121.975749    -0.000000    -0.001275   121.974474
	   26 B(4,2,5)        =    108.429404    -0.000001    -0.000685   108.428720
	   27 B(6,3,7)        =    107.636802    -0.000000    -0.004856   107.631946
	   28 B(6,3,8)        =    107.641829    -0.000001    -0.001545   107.640283
	   29 B(6,9,11)       =    114.003674    -0.000003    -0.034911   113.968764
	   30 B(6,9,12)       =    107.641201    -0.000016    -0.251124   107.390077
	   31 B(6,9,13)       =    107.637344     0.000021     0.287629   107.924973
	   32 B(7,3,8)        =    105.487431     0.000000     0.002737   105.490168
	   33 B(9,6,10)       =    121.975905    -0.000002    -0.005472   121.970434
	   34 B(9,11,14)      =    111.029940     0.000001     0.013727   111.043667
	   35 B(9,11,15)      =    110.292560     0.000001     0.004547   110.297108
	   36 B(9,11,16)      =    111.029711    -0.000002    -0.019098   111.010613
	   37 B(11,9,12)      =    110.824271    -0.000002    -0.199489   110.624782
	   38 B(11,9,13)      =    110.822980    -0.000002     0.114171   110.937151
	   39 B(12,9,13)      =    105.487377     0.000003     0.094688   105.582065
	   40 B(14,11,15)     =    108.428828     0.000001     0.021723   108.450551
	   41 B(14,11,16)     =    107.525479     0.000001     0.002734   107.528214
	   42 B(15,11,16)     =    108.429609    -0.000002    -0.023652   108.405956
	   43 D(1,2,3,6)      =    -59.786384    -0.000000     0.011389   -59.774995
	   44 D(1,2,3,7)      =    178.599267     0.000000     0.021519   178.620786
	   45 D(1,2,3,8)      =     61.835781    -0.000000     0.015653    61.851434
	   46 D(2,3,6,9)      =    179.970851     0.000002     1.684544   181.655396
	   47 D(2,3,6,10)     =     -0.031648     0.000001     1.135172     1.103524
	   48 D(3,6,9,11)     =   -176.634812    -0.000004    -0.464184  -177.098996
	   49 *D(3,6,9,12)    =     60.000007     0.000000    -0.000000    60.000007
	   50 D(3,6,9,13)     =    -53.274154    -0.000001    -0.126171   -53.400325
	   51 D(4,2,3,6)      =     59.781125    -0.000000     0.009326    59.790451
	   52 D(4,2,3,7)      =    -61.833224     0.000000     0.019456   -61.813768
	   53 D(4,2,3,8)      =   -178.596711    -0.000000     0.013590  -178.583121
	   54 D(5,2,3,6)      =    179.997563     0.000000     0.016329   180.013892
	   55 D(5,2,3,7)      =     58.383214     0.000000     0.026459    58.409674
	   56 D(5,2,3,8)      =    -58.380272     0.000000     0.020594   -58.359679
	   57 D(6,9,11,14)    =    -59.786117     0.000004     0.358306   -59.427811
	   58 D(6,9,11,15)    =    179.998116     0.000003     0.319101   180.317217
	   59 D(6,9,11,16)    =     59.781519     0.000004     0.358199    60.139718
	   60 D(7,3,6,9)      =    -56.669189     0.000002     1.674743   -54.994446
	   61 D(7,3,6,10)     =    123.328312     0.000000     1.125370   124.453682
	   62 D(8,3,6,9)      =     56.605076     0.000002     1.674813    58.279889
	   63 D(8,3,6,10)     =   -123.397424     0.000000     1.125441  -122.271983
	   64 D(10,6,9,11)    =      3.367687    -0.000002     0.085164     3.452851
	   65 D(10,6,9,12)    =   -119.997494     0.000001     0.549348  -119.448146
	   66 D(10,6,9,13)    =    126.728345     0.000000     0.423177   127.151522
	   67 D(12,9,11,14)   =     61.835157    -0.000002    -0.144839    61.690318
	   68 D(12,9,11,15)   =    -58.380610    -0.000002    -0.184043   -58.564654
	   69 D(12,9,11,16)   =   -178.597207    -0.000002    -0.144946  -178.742153
	   70 D(13,9,11,14)   =    178.598642    -0.000001    -0.080866   178.517776
	   71 D(13,9,11,15)   =     58.382874    -0.000002    -0.120071    58.262803
	   72 D(13,9,11,16)   =    -61.833722    -0.000001    -0.080973   -61.914696
	 ---------------------------------------------------------------------------

  ==> Convergence Check <==

  Measures of convergence in internal coordinates in au.
  Criteria marked as inactive (o), active & met (*), and active & unmet ( ).
  --------------------------------------------------------------------------------------------- ~
   Step     Total Energy     Delta E     MAX Force     RMS Force      MAX Disp      RMS Disp    ~
  --------------------------------------------------------------------------------------------- ~
    Convergence Criteria    1.00e-06 *    3.00e-04 *             o    1.20e-03 *             o  ~
  --------------------------------------------------------------------------------------------- ~
      1    -270.13184836   -2.70e+02      2.71e-04 *    8.43e-05 o    2.94e-02      7.60e-03 o  ~
  ---------------------------------------------------------------------------------------------

	Writing optimization data to binary file.
	Structure for next step:
	Cartesian Geometry (in Angstrom)
	    H    -2.5661404285   0.7787332583   0.8840507424
	    C    -2.5463298855   0.0887782508   0.0511123685
	    C    -1.2854431797  -0.7610789728   0.0766894362
	    H    -2.6023404351   0.6732644296  -0.8574387499
	    H    -3.4256897602  -0.5416636512   0.1075640200
	    C     0.0001750048   0.0400570378   0.0018168736
	    H    -1.2803435702  -1.4695033816  -0.7474938320
	    H    -1.2448690476  -1.3652236232   0.9788932711
	    C     1.2860834351  -0.7640220933  -0.0153336372
	    O    -0.0003120781   1.2264873347  -0.0505519965
	    C     2.5466633128   0.0867037125  -0.0206711031
	    H     1.2549845775  -1.4078083290  -0.8904345226
	    H     1.2732011402  -1.4336290359   0.8402076197
	    H     2.5736202992   0.7356268877  -0.8855721741
	    H     3.4265296892  -0.5452936431  -0.0386054351
	    H     2.5947829351   0.7143807432   0.8592627008
			--------------------------
			 OPTKING Finished Execution 
			--------------------------

    Structure for next step:
    Molecular point group: c1
    Full point group: C1

    Geometry (in Angstrom), charge = 0, multiplicity = 1:

    H           -2.566286122563     0.778599757511     0.877461099157
    C           -2.546475581047     0.088644802747     0.044522788907
    C           -1.285588971569    -0.761212356005     0.070099854619
    H           -2.602486126411     0.673130936850    -0.864028260158
    H           -3.425835388597    -0.541797051152     0.100974436058
    C            0.000029114758     0.039923593438    -0.004772702217
    H           -1.280489362401    -1.469636710667    -0.754083350662
    H           -1.245014842504    -1.365356960238     0.972303620667
    C            1.285937446859    -0.764155476223    -0.021923211693
    O           -0.000457968103     1.226353799704    -0.057141568394
    C            2.546517228302     0.086570264587    -0.027260677195
    H            1.254838591682    -1.407941662817    -0.897024030336
    H            1.273055153032    -1.433762367673     0.833617979859
    H            2.573474212677     0.735493390179    -0.892161682226
    H            3.426383537568    -0.545427042722    -0.045195007900
    H            2.594636846915     0.714247247328     0.852673059492

gradient() will perform analytic gradient computation.

*** tstart() called on cx1-27-3-3
*** at Fri Sep  9 21:55:53 2016


         ---------------------------------------------------------
                                   SCF
            by Justin Turney, Rob Parrish, and Andy Simmonett
                              RHF Reference
                        4 Threads,   2000 MiB Core
         ---------------------------------------------------------

  ==> Geometry <==

    Molecular point group: c1
    Full point group: C1

    Geometry (in Angstrom), charge = 0, multiplicity = 1:

       Center              X                  Y                   Z               Mass       
    ------------   -----------------  -----------------  -----------------  -----------------
           H         -2.566286122563     0.778599757511     0.877461099157     1.007825032070
           C         -2.546475581047     0.088644802747     0.044522788907    12.000000000000
           C         -1.285588971569    -0.761212356005     0.070099854619    12.000000000000
           H         -2.602486126411     0.673130936850    -0.864028260158     1.007825032070
           H         -3.425835388597    -0.541797051152     0.100974436058     1.007825032070
           C          0.000029114758     0.039923593438    -0.004772702217    12.000000000000
           H         -1.280489362401    -1.469636710667    -0.754083350662     1.007825032070
           H         -1.245014842504    -1.365356960238     0.972303620667     1.007825032070
           C          1.285937446859    -0.764155476223    -0.021923211693    12.000000000000
           O         -0.000457968103     1.226353799704    -0.057141568394    15.994914619560
           C          2.546517228302     0.086570264587    -0.027260677195    12.000000000000
           H          1.254838591682    -1.407941662817    -0.897024030336     1.007825032070
           H          1.273055153032    -1.433762367673     0.833617979859     1.007825032070
           H          2.573474212677     0.735493390179    -0.892161682226     1.007825032070
           H          3.426383537568    -0.545427042722    -0.045195007900     1.007825032070
           H          2.594636846915     0.714247247328     0.852673059492     1.007825032070

  Running in c1 symmetry.

  Rotational constants: A =      0.30513  B =      0.06521  C =      0.05590 [cm^-1]
  Rotational constants: A =   9147.66284  B =   1954.86821  C =   1675.98810 [MHz]
  Nuclear repulsion =  240.366729739081620

  Charge       = 0
  Multiplicity = 1
  Electrons    = 48
  Nalpha       = 24
  Nbeta        = 24

  ==> Algorithm <==

  SCF Algorithm Type is DF.
  DIIS enabled.
  MOM disabled.
  Fractional occupation disabled.
  Guess Type is READ.
  Energy threshold   = 1.00e-08
  Density threshold  = 1.00e-08
  Integral threshold = 0.00e+00

  ==> Primary Basis <==

  Basis Set: CC-PVTZ
    Number of shells: 120
    Number of basis function: 320
    Number of Cartesian functions: 360
    Spherical Harmonics?: true
    Max angular momentum: 3

  ==> Pre-Iterations <==

   -------------------------------------------------------
    Irrep   Nso     Nmo     Nalpha   Nbeta   Ndocc  Nsocc
   -------------------------------------------------------
     A        320     320       0       0       0       0
   -------------------------------------------------------
    Total     320     320      24      24      24       0
   -------------------------------------------------------

 OEINTS: Overlap, kinetic, potential, dipole, and quadrupole integrals
         stored in file 35.

  ==> Integral Setup <==

  ==> DFJK: Density-Fitted J/K Matrices <==

    J tasked:                  Yes
    K tasked:                  Yes
    wK tasked:                  No
    OpenMP threads:              4
    Integrals threads:           4
    Memory (MB):              1430
    Algorithm:                Core
    Integral Cache:           NONE
    Schwarz Cutoff:          1E-12
    Fitting Condition:       1E-12

   => Auxiliary Basis Set <=

  Basis Set: 
    Number of shells: 250
    Number of basis function: 774
    Number of Cartesian functions: 926
    Spherical Harmonics?: true
    Max angular momentum: 4

  Minimum eigenvalue in the overlap matrix is 3.6638268679E-04.
  Using Symmetric Orthogonalization.
  SCF Guess: Reading in previously saved MOs, projecting if necessary.

  Using orbitals from previous SCF, no projection.
  Recomputing DOCC and SOCC from number of alpha and beta electrons from previous calculation.
              A 
    DOCC [    24 ]

  ==> Iterations <==

                           Total Energy        Delta E     RMS |[F,P]|

   @DF-RHF iter   0:  -270.13092712953210   -2.70131e+02   8.56779e-05 
   @DF-RHF iter   1:  -270.13182635228691   -8.99223e-04   1.64476e-05 
   @DF-RHF iter   2:  -270.13185232415236   -2.59719e-05   5.52893e-06 DIIS
   @DF-RHF iter   3:  -270.13185627681156   -3.95266e-06   1.12831e-06 DIIS
   @DF-RHF iter   4:  -270.13185640264982   -1.25838e-07   5.45557e-07 DIIS
   @DF-RHF iter   5:  -270.13185643369445   -3.10446e-08   2.34575e-07 DIIS
   @DF-RHF iter   6:  -270.13185644035258   -6.65813e-09   9.16287e-08 DIIS
   @DF-RHF iter   7:  -270.13185644217072   -1.81814e-09   3.00279e-08 DIIS
   @DF-RHF iter   8:  -270.13185644239599   -2.25270e-10   1.26232e-08 DIIS
   @DF-RHF iter   9:  -270.13185644244368   -4.76916e-11   5.45080e-09 DIIS

  ==> Post-Iterations <==

    Orbital Energies (a.u.)
    -----------------------

    Doubly Occupied:                                                      

       1A    -20.539272     2A    -11.317917     3A    -11.232201  
       4A    -11.232178     5A    -11.211754     6A    -11.211741  
       7A     -1.399495     8A     -1.069355     9A     -1.037233  
      10A     -0.917011    11A     -0.845939    12A     -0.725973  
      13A     -0.669724    14A     -0.649355    15A     -0.619827  
      16A     -0.608163    17A     -0.561174    18A     -0.527523  
      19A     -0.525584    20A     -0.510833    21A     -0.505260  
      22A     -0.492215    23A     -0.488316    24A     -0.401331  

    Virtual:                                                              

      25A      0.127541    26A      0.151590    27A      0.157481  
      28A      0.173822    29A      0.196858    30A      0.211531  
      31A      0.212980    32A      0.225652    33A      0.234478  
      34A      0.249218    35A      0.251081    36A      0.306225  
      37A      0.329680    38A      0.349257    39A      0.355659  
      40A      0.372329    41A      0.375899    42A      0.389715  
      43A      0.417086    44A      0.455804    45A      0.469315  
      46A      0.479298    47A      0.483883    48A      0.519178  
      49A      0.548631    50A      0.577406    51A      0.579258  
      52A      0.607634    53A      0.616499    54A      0.627495  
      55A      0.638439    56A      0.641311    57A      0.648187  
      58A      0.649829    59A      0.667440    60A      0.673571  
      61A      0.682704    62A      0.686208    63A      0.703995  
      64A      0.725691    65A      0.730058    66A      0.739415  
      67A      0.751720    68A      0.813326    69A      0.836902  
      70A      0.840918    71A      0.853336    72A      0.877878  
      73A      0.928571    74A      0.957682    75A      0.960903  
      76A      0.980744    77A      0.990312    78A      0.993062  
      79A      1.050567    80A      1.061583    81A      1.082830  
      82A      1.106411    83A      1.142342    84A      1.149906  
      85A      1.150833    86A      1.197696    87A      1.203414  
      88A      1.219391    89A      1.227056    90A      1.251969  
      91A      1.267703    92A      1.272298    93A      1.283228  
      94A      1.296296    95A      1.319320    96A      1.327674  
      97A      1.336924    98A      1.349223    99A      1.369199  
     100A      1.393157   101A      1.401860   102A      1.430684  
     103A      1.436580   104A      1.440734   105A      1.481371  
     106A      1.497181   107A      1.512072   108A      1.522888  
     109A      1.527600   110A      1.551491   111A      1.579313  
     112A      1.586230   113A      1.606926   114A      1.613948  
     115A      1.616099   116A      1.621587   117A      1.653965  
     118A      1.673302   119A      1.709045   120A      1.725438  
     121A      1.743434   122A      1.760530   123A      1.800859  
     124A      1.816180   125A      1.825680   126A      1.867662  
     127A      1.888204   128A      1.956695   129A      2.052074  
     130A      2.129875   131A      2.231004   132A      2.261684  
     133A      2.424695   134A      2.462246   135A      2.465405  
     136A      2.479479   137A      2.597903   138A      2.613770  
     139A      2.623735   140A      2.654425   141A      2.662662  
     142A      2.686291   143A      2.727283   144A      2.775685  
     145A      2.794593   146A      2.804620   147A      2.822561  
     148A      2.826684   149A      2.843227   150A      2.880795  
     151A      2.920719   152A      2.929799   153A      2.955310  
     154A      2.960894   155A      2.974334   156A      2.981950  
     157A      3.034226   158A      3.078304   159A      3.091926  
     160A      3.096618   161A      3.126439   162A      3.129994  
     163A      3.138715   164A      3.142559   165A      3.151313  
     166A      3.171338   167A      3.180228   168A      3.235152  
     169A      3.261932   170A      3.262729   171A      3.309939  
     172A      3.317295   173A      3.327758   174A      3.341321  
     175A      3.358976   176A      3.362268   177A      3.378214  
     178A      3.394344   179A      3.401779   180A      3.410443  
     181A      3.418864   182A      3.426136   183A      3.450865  
     184A      3.453635   185A      3.483226   186A      3.488886  
     187A      3.489648   188A      3.539093   189A      3.548955  
     190A      3.552133   191A      3.584822   192A      3.618540  
     193A      3.635387   194A      3.651323   195A      3.693191  
     196A      3.713477   197A      3.750577   198A      3.751875  
     199A      3.762670   200A      3.789464   201A      3.797739  
     202A      3.803265   203A      3.811473   204A      3.836966  
     205A      3.863944   206A      3.880199   207A      3.891772  
     208A      3.894277   209A      3.923486   210A      3.925321  
     211A      3.961897   212A      3.994788   213A      3.996431  
     214A      4.032440   215A      4.048592   216A      4.105061  
     217A      4.113575   218A      4.117529   219A      4.137287  
     220A      4.142554   221A      4.164770   222A      4.198751  
     223A      4.204617   224A      4.220803   225A      4.222687  
     226A      4.255522   227A      4.260763   228A      4.291358  
     229A      4.301554   230A      4.322760   231A      4.332045  
     232A      4.335223   233A      4.387085   234A      4.393858  
     235A      4.400925   236A      4.425412   237A      4.429316  
     238A      4.431863   239A      4.446323   240A      4.455226  
     241A      4.457887   242A      4.531195   243A      4.562624  
     244A      4.585568   245A      4.597820   246A      4.600156  
     247A      4.602808   248A      4.636341   249A      4.647363  
     250A      4.676348   251A      4.699904   252A      4.705003  
     253A      4.712836   254A      4.776248   255A      4.794328  
     256A      4.826351   257A      4.829772   258A      4.930306  
     259A      4.968447   260A      5.015011   261A      5.080203  
     262A      5.100380   263A      5.137482   264A      5.149683  
     265A      5.200727   266A      5.207639   267A      5.232838  
     268A      5.243013   269A      5.281079   270A      5.290907  
     271A      5.301816   272A      5.314435   273A      5.320785  
     274A      5.359334   275A      5.373580   276A      5.438993  
     277A      5.461011   278A      5.473095   279A      5.589660  
     280A      5.593403   281A      5.602688   282A      5.640267  
     283A      5.657469   284A      5.700673   285A      5.733203  
     286A      5.736119   287A      5.737572   288A      5.745324  
     289A      5.757657   290A      5.760394   291A      5.768832  
     292A      5.800151   293A      5.818585   294A      5.825802  
     295A      5.903759   296A      5.913169   297A      5.970860  
     298A      6.103234   299A      6.127491   300A      6.246888  
     301A      6.299484   302A      6.314978   303A      6.316476  
     304A      6.316518   305A      6.334576   306A      6.408092  
     307A      6.843351   308A      6.849204   309A      6.956622  
     310A      7.063832   311A      7.242832   312A      7.406076  
     313A      7.610604   314A      7.621958   315A      9.625324  
     316A     13.336311   317A     13.500699   318A     14.295145  
     319A     14.468213   320A     14.738217  

    Final Occupation by Irrep:
              A 
    DOCC [    24 ]

  Energy converged.

  @DF-RHF Final Energy:  -270.13185644244368

   => Energetics <=

    Nuclear Repulsion Energy =            240.3667297390816202
    One-Electron Energy =                -842.3984259049958609
    Two-Electron Energy =                 331.8998397234704498
    DFT Exchange-Correlation Energy =       0.0000000000000000
    Empirical Dispersion Energy =           0.0000000000000000
    PCM Polarization Energy =               0.0000000000000000
    EFP Energy =                            0.0000000000000000
    Total Energy =                       -270.1318564424437909

    Alert: EFP and PCM quantities not currently incorporated into SCF psivars.

Properties will be evaluated at   0.000000,   0.000000,   0.000000 Bohr
  ==> Properties <==


Properties computed using the SCF density matrix

  Nuclear Dipole Moment: (a.u.)
     X:     0.0021      Y:    -3.6150      Z:     0.1727

  Electronic Dipole Moment: (a.u.)
     X:    -0.0018      Y:     2.4742      Z:    -0.1272

  Dipole Moment: (a.u.)
     X:     0.0004      Y:    -1.1409      Z:     0.0455     Total:     1.1418

  Dipole Moment: (Debye)
     X:     0.0010      Y:    -2.8998      Z:     0.1158     Total:     2.9021


  Saving occupied orbitals to File 180.

*** tstop() called on cx1-27-3-3 at Fri Sep  9 21:56:03 2016
Module time:
	user time   =      31.43 seconds =       0.52 minutes
	system time =       0.52 seconds =       0.01 minutes
	total time  =         10 seconds =       0.17 minutes
Total time:
	user time   =     148.36 seconds =       2.47 minutes
	system time =       1.82 seconds =       0.03 minutes
	total time  =         44 seconds =       0.73 minutes

*** tstart() called on cx1-27-3-3
*** at Fri Sep  9 21:56:03 2016


         ------------------------------------------------------------
                                   SCF GRAD                          
                          Rob Parrish, Justin Turney,                
                       Andy Simmonett, and Alex Sokolov              
         ------------------------------------------------------------

  ==> Geometry <==

    Molecular point group: c1
    Full point group: C1

    Geometry (in Angstrom), charge = 0, multiplicity = 1:

       Center              X                  Y                   Z               Mass       
    ------------   -----------------  -----------------  -----------------  -----------------
           H         -2.566286122563     0.778599757511     0.877461099157     1.007825032070
           C         -2.546475581047     0.088644802747     0.044522788907    12.000000000000
           C         -1.285588971569    -0.761212356005     0.070099854619    12.000000000000
           H         -2.602486126411     0.673130936850    -0.864028260158     1.007825032070
           H         -3.425835388597    -0.541797051152     0.100974436058     1.007825032070
           C          0.000029114758     0.039923593438    -0.004772702217    12.000000000000
           H         -1.280489362401    -1.469636710667    -0.754083350662     1.007825032070
           H         -1.245014842504    -1.365356960238     0.972303620667     1.007825032070
           C          1.285937446859    -0.764155476223    -0.021923211693    12.000000000000
           O         -0.000457968103     1.226353799704    -0.057141568394    15.994914619560
           C          2.546517228302     0.086570264587    -0.027260677195    12.000000000000
           H          1.254838591682    -1.407941662817    -0.897024030336     1.007825032070
           H          1.273055153032    -1.433762367673     0.833617979859     1.007825032070
           H          2.573474212677     0.735493390179    -0.892161682226     1.007825032070
           H          3.426383537568    -0.545427042722    -0.045195007900     1.007825032070
           H          2.594636846915     0.714247247328     0.852673059492     1.007825032070

  Nuclear repulsion =  240.366729739081620

  ==> Basis Set <==

  Basis Set: CC-PVTZ
    Number of shells: 120
    Number of basis function: 320
    Number of Cartesian functions: 360
    Spherical Harmonics?: true
    Max angular momentum: 3

  ==> DFJKGrad: Density-Fitted SCF Gradients <==

    Gradient:                    1
    J tasked:                  Yes
    K tasked:                  Yes
    wK tasked:                  No
    OpenMP threads:              4
    Integrals threads:           4
    Memory (MB):              1430
    Schwarz Cutoff:          0E+00
    Fitting Condition:       1E-12

   => Auxiliary Basis Set <=

  Basis Set: 
    Number of shells: 250
    Number of basis function: 774
    Number of Cartesian functions: 926
    Spherical Harmonics?: true
    Max angular momentum: 4


  -Total Gradient:
     Atom            X                  Y                   Z
    ------   -----------------  -----------------  -----------------
       1        0.000004628056     0.000011708866     0.000035315299
       2       -0.000004290703    -0.000008467371    -0.000185481160
       3       -0.000000842399     0.000008438243     0.000203271242
       4       -0.000002146126    -0.000007818292     0.000038560772
       5        0.000000633308    -0.000000687799     0.000017545807
       6        0.000095910095     0.000067918799     0.000855654999
       7       -0.000006693783     0.000016376959    -0.000116617903
       8       -0.000015604610    -0.000020359764    -0.000119708710
       9       -0.000142667285    -0.000196859366    -0.000150607896
      10       -0.000024501718    -0.000005815716    -0.000439204063
      11       -0.000046990640    -0.000032880899    -0.000087525836
      12        0.000223415027     0.000182303573    -0.000071766463
      13       -0.000062839086    -0.000013913925     0.000107888900
      14        0.000056599096     0.000046967923    -0.000030150070
      15       -0.000004713908     0.000000832843    -0.000030418592
      16       -0.000069895321    -0.000047744075    -0.000026756328


*** tstop() called on cx1-27-3-3 at Fri Sep  9 21:56:22 2016
Module time:
	user time   =      74.24 seconds =       1.24 minutes
	system time =       0.50 seconds =       0.01 minutes
	total time  =         19 seconds =       0.32 minutes
Total time:
	user time   =     222.62 seconds =       3.71 minutes
	system time =       2.32 seconds =       0.04 minutes
	total time  =         63 seconds =       1.05 minutes
CURRENT ENERGY: -270.1318564424

			-----------------------------------------
			 OPTKING 2.0: for geometry optimizations 
			  - R.A. King,  Bethel University        
			-----------------------------------------

	Previous internal coordinate definitions found.
	---Fragment 1 Geometry and Gradient---
	 H          -4.8495779503        1.4713403088        1.6581611697
	 C          -4.8121414523        0.1675144003        0.0841358777
	 C          -2.4294110757       -1.4384828818        0.1324695272
	 H          -4.9179860436        1.2720331222       -1.6327767828
	 H          -6.4738906608       -1.0238480463        0.1908140306
	 C           0.0000550189        0.0754446578       -0.0090191001
	 H          -2.4197742110       -2.7772108980       -1.4250110141
	 H          -2.3527370837       -2.5801507285        1.8373875611
	 C           2.4300695986       -1.4440445730       -0.0414288661
	 O          -0.0008654343        2.3174728235       -0.1079819151
	 C           4.8122201542        0.1635940913       -0.0515152141
	 H           2.3713012793       -2.6606241538       -1.6951297520
	 H           2.4057255913       -2.7094182145        1.5753096814
	 H           4.8631614720        1.3898810800       -1.6859412457
	 H           6.4749265122       -1.0307077362       -0.0854061875
	 H           4.9031530550        1.3497316886        1.6113185633
	             0.0000046281        0.0000117089        0.0000353153
	            -0.0000042907       -0.0000084674       -0.0001854812
	            -0.0000008424        0.0000084382        0.0002032712
	            -0.0000021461       -0.0000078183        0.0000385608
	             0.0000006333       -0.0000006878        0.0000175458
	             0.0000959101        0.0000679188        0.0008556550
	            -0.0000066938        0.0000163770       -0.0001166179
	            -0.0000156046       -0.0000203598       -0.0001197087
	            -0.0001426673       -0.0001968594       -0.0001506079
	            -0.0000245017       -0.0000058157       -0.0004392041
	            -0.0000469906       -0.0000328809       -0.0000875258
	             0.0002234150        0.0001823036       -0.0000717665
	            -0.0000628391       -0.0000139139        0.0001078889
	             0.0000565991        0.0000469679       -0.0000301501
	            -0.0000047139        0.0000008328       -0.0000304186
	            -0.0000698953       -0.0000477441       -0.0000267563

	---Fragment 1 Intrafragment Coordinates---
	 - Coordinate -           - BOHR/RAD -       - ANG/DEG -
	 R(1,2)           =         2.044240	       1.081766
	 R(2,3)           =         2.873842	       1.520772
	 R(2,4)           =         2.044249	       1.081770
	 R(2,5)           =         2.047470	       1.083475
	 R(3,6)           =         2.866060	       1.516654
	 R(3,7)           =         2.053785	       1.086816
	 R(3,8)           =         2.053297	       1.086558
	 R(6,9)           =         2.866159	       1.516706
	 R(6,10)          =         2.244211	       1.187586
	 R(9,11)          =         2.873890	       1.520797
	 R(9,12)          =         2.053837	       1.086844
	 R(9,13)          =         2.053194	       1.086504
	 R(11,14)         =         2.043948	       1.081611
	 R(11,15)         =         2.047461	       1.083470
	 R(11,16)         =         2.044556	       1.081932
	 B(1,2,3)         =         1.937628	     111.017916
	 B(1,2,4)         =         1.876673	     107.525461
	 B(1,2,5)         =         1.892453	     108.429564
	 B(2,3,6)         =         1.989733	     114.003288
	 B(2,3,7)         =         1.934141	     110.818132
	 B(2,3,8)         =         1.934401	     110.833036
	 B(3,2,4)         =         1.937987	     111.038453
	 B(3,2,5)         =         1.925028	     110.295983
	 B(3,6,9)         =         2.025502	     116.052704
	 B(3,6,10)        =         2.128856	     121.974474
	 B(4,2,5)         =         1.892438	     108.428720
	 B(6,3,7)         =         1.878532	     107.631946
	 B(6,3,8)         =         1.878677	     107.640283
	 B(6,9,11)        =         1.989130	     113.968764
	 B(6,9,12)        =         1.874310	     107.390077
	 B(6,9,13)        =         1.883646	     107.924973
	 B(7,3,8)         =         1.841151	     105.490168
	 B(9,6,10)        =         2.128786	     121.970434
	 B(9,11,14)       =         1.938078	     111.043667
	 B(9,11,15)       =         1.925048	     110.297108
	 B(9,11,16)       =         1.937501	     111.010613
	 B(11,9,12)       =         1.930767	     110.624782
	 B(11,9,13)       =         1.936219	     110.937151
	 B(12,9,13)       =         1.842755	     105.582065
	 B(14,11,15)      =         1.892819	     108.450551
	 B(14,11,16)      =         1.876721	     107.528214
	 B(15,11,16)      =         1.892041	     108.405956
	 D(1,2,3,6)       =        -1.043270	     -59.774995
	 D(1,2,3,7)       =         3.117521	     178.620786
	 D(1,2,3,8)       =         1.079511	      61.851434
	 D(2,3,6,9)       =        -3.112701	    -178.344604
	 D(2,3,6,10)      =         0.019260	       1.103524
	 D(3,6,9,11)      =        -3.090961	    -177.098996
	*D(3,6,9,12)      =         1.047198	      60.000007
	 D(3,6,9,13)      =        -0.932011	     -53.400325
	 D(4,2,3,6)       =         1.043540	      59.790451
	 D(4,2,3,7)       =        -1.078854	     -61.813768
	 D(4,2,3,8)       =        -3.116863	    -178.583121
	 D(5,2,3,6)       =        -3.141350	    -179.986108
	 D(5,2,3,7)       =         1.019441	      58.409674
	 D(5,2,3,8)       =        -1.018569	     -58.359679
	 D(6,9,11,14)     =        -1.037211	     -59.427811
	 D(6,9,11,15)     =        -3.136056	    -179.682783
	 D(6,9,11,16)     =         1.049636	      60.139718
	 D(7,3,6,9)       =        -0.959834	     -54.994446
	 D(7,3,6,10)      =         2.172127	     124.453682
	 D(8,3,6,9)       =         1.017176	      58.279889
	 D(8,3,6,10)      =        -2.134049	    -122.271983
	 D(10,6,9,11)     =         0.060264	       3.452851
	 D(10,6,9,12)     =        -2.084763	    -119.448146
	 D(10,6,9,13)     =         2.219213	     127.151522
	 D(12,9,11,14)    =         1.076699	      61.690318
	 D(12,9,11,15)    =        -1.022146	     -58.564654
	 D(12,9,11,16)    =        -3.119639	    -178.742153
	 D(13,9,11,14)    =         3.115723	     178.517776
	 D(13,9,11,15)    =         1.016878	      58.262803
	 D(13,9,11,16)    =        -1.080615	     -61.914696

	Current energy   :      -270.1318564424

	Energy change for the previous step:
		Projected    :         0.0000252514
		Actual       :        -0.0000080836

	Performing BFGS update.
	Previous computed or guess Hessian on step 1.
	Steps to be used in Hessian update: 1
	Taking RFO optimization step.
	Going to follow RFO solution 1.
	Using RFO vector 1.
	Norm of target step-size    0.13246
	Projected energy change by RFO approximation:        -0.0000389159

	Back-transformation to cartesian coordinates...
	Successfully converged to displaced geometry.

	Back-transformation to cartesian coordinates to adjust frozen coordinates...
	Successfully converged to displaced geometry.

	--- Internal Coordinate Step in ANG or DEG, aJ/ANG or AJ/DEG ---
	 ---------------------------------------------------------------------------
	   Coordinate                Previous        Force       Change         New 
	   ----------                --------       ------       ------       ------
	    1 R(1,2)          =      1.081766    -0.000285    -0.000044     1.081721
	    2 R(2,3)          =      1.520772     0.000003    -0.000034     1.520738
	    3 R(2,4)          =      1.081770     0.000301     0.000051     1.081821
	    4 R(2,5)          =      1.083475    -0.000007     0.000009     1.083484
	    5 R(3,6)          =      1.516654    -0.000122    -0.000014     1.516639
	    6 R(3,7)          =      1.086816    -0.000640     0.000094     1.086910
	    7 R(3,8)          =      1.086558     0.000731    -0.000089     1.086469
	    8 R(6,9)          =      1.516706     0.000034     0.000089     1.516795
	    9 R(6,10)         =      1.187586    -0.000112    -0.000017     1.187568
	   10 R(9,11)         =      1.520797     0.000590     0.000103     1.520900
	   11 R(9,12)         =      1.086844     0.000466     0.000299     1.087143
	   12 R(9,13)         =      1.086504    -0.000777    -0.000392     1.086112
	   13 R(11,14)        =      1.081611    -0.000442    -0.000298     1.081313
	   14 R(11,15)        =      1.083470     0.000031     0.000005     1.083475
	   15 R(11,16)        =      1.081932     0.000433     0.000315     1.082247
	   16 B(1,2,3)        =    111.017916     0.000002    -0.008721   111.009196
	   17 B(1,2,4)        =    107.525461     0.000000     0.000169   107.525630
	   18 B(1,2,5)        =    108.429564     0.000000     0.006540   108.436104
	   19 B(2,3,6)        =    114.003288     0.000001     0.001192   114.004480
	   20 B(2,3,7)        =    110.818132     0.000003     0.035094   110.853226
	   21 B(2,3,8)        =    110.833036    -0.000002    -0.023960   110.809075
	   22 B(3,2,4)        =    111.038453    -0.000002     0.003745   111.042198
	   23 B(3,2,5)        =    110.295983     0.000000     0.005511   110.301493
	   24 B(3,6,9)        =    116.052704    -0.000002    -0.003077   116.049627
	   25 B(3,6,10)       =    121.974474     0.000002    -0.001618   121.972856
	   26 B(4,2,5)        =    108.428720    -0.000000    -0.007306   108.421414
	   27 B(6,3,7)        =    107.631946     0.000002     0.035354   107.667300
	   28 B(6,3,8)        =    107.640283    -0.000003    -0.050890   107.589394
	   29 B(6,9,11)       =    113.968764     0.000005    -0.018712   113.950051
	   30 B(6,9,12)       =    107.390077    -0.000012    -0.411858   106.978219
	   31 B(6,9,13)       =    107.924973     0.000003     0.417085   108.342058
	   32 B(7,3,8)        =    105.490168    -0.000000     0.002655   105.492823
	   33 B(9,6,10)       =    121.970434     0.000000    -0.011440   121.958994
	   34 B(9,11,14)      =    111.043667    -0.000008    -0.009176   111.034492
	   35 B(9,11,15)      =    110.297108    -0.000000     0.006188   110.303296
	   36 B(9,11,16)      =    111.010613     0.000009     0.005813   111.016427
	   37 B(11,9,12)      =    110.624782     0.000014    -0.175638   110.449143
	   38 B(11,9,13)      =    110.937151    -0.000007     0.137084   111.074235
	   39 B(12,9,13)      =    105.582065    -0.000005     0.049530   105.631595
	   40 B(14,11,15)     =    108.450551     0.000003     0.040330   108.490881
	   41 B(14,11,16)     =    107.528214    -0.000000     0.003438   107.531652
	   42 B(15,11,16)     =    108.405956    -0.000004    -0.046809   108.359147
	   43 D(1,2,3,6)      =    -59.774995     0.000001     0.090850   -59.684145
	   44 D(1,2,3,7)      =    178.620786    -0.000000     0.017055   178.637841
	   45 D(1,2,3,8)      =     61.851434    -0.000000     0.006898    61.858332
	   46 D(2,3,6,9)      =   -178.344604    -0.000003     1.275362  -177.069243
	   47 D(2,3,6,10)     =      1.103524     0.000002     3.364388     4.467912
	   48 D(3,6,9,11)     =   -177.098996     0.000003    -0.534800  -177.633796
	   49 *D(3,6,9,12)    =     60.000007    -0.000000    -0.000000    60.000007
	   50 D(3,6,9,13)     =    -53.400325     0.000002    -0.054833   -53.455158
	   51 D(4,2,3,6)      =     59.790451     0.000001     0.087777    59.878227
	   52 D(4,2,3,7)      =    -61.813768    -0.000000     0.013982   -61.799786
	   53 D(4,2,3,8)      =   -178.583121    -0.000000     0.003825  -178.579296
	   54 D(5,2,3,6)      =   -179.986108     0.000001     0.084696  -179.901411
	   55 D(5,2,3,7)      =     58.409674    -0.000001     0.010901    58.420575
	   56 D(5,2,3,8)      =    -58.359679    -0.000001     0.000744   -58.358934
	   57 D(6,9,11,14)    =    -59.427811     0.000000     0.464465   -58.963346
	   58 D(6,9,11,15)    =   -179.682783     0.000000     0.415761  -179.267022
	   59 D(6,9,11,16)    =     60.139718     0.000000     0.466574    60.606292
	   60 D(7,3,6,9)      =    -54.994446    -0.000001     1.347558   -53.646888
	   61 D(7,3,6,10)     =    124.453682     0.000003     3.436584   127.890266
	   62 D(8,3,6,9)      =     58.279889    -0.000001     1.343106    59.622995
	   63 D(8,3,6,10)     =   -122.271983     0.000003     3.432133  -118.839850
	   64 D(10,6,9,11)    =      3.452851    -0.000001    -2.623570     0.829281
	   65 D(10,6,9,12)    =   -119.448146    -0.000004    -2.088770  -121.536916
	   66 D(10,6,9,13)    =    127.151522    -0.000002    -2.143603   125.007919
	   67 D(12,9,11,14)   =     61.690318    -0.000000    -0.213864    61.476455
	   68 D(12,9,11,15)   =    -58.564654     0.000000    -0.262567   -58.827221
	   69 D(12,9,11,16)   =   -178.742153    -0.000000    -0.211754  -178.953907
	   70 D(13,9,11,14)   =    178.517776    -0.000000    -0.177395   178.340381
	   71 D(13,9,11,15)   =     58.262803    -0.000000    -0.226098    58.036705
	   72 D(13,9,11,16)   =    -61.914696    -0.000000    -0.175286   -62.089981
	 ---------------------------------------------------------------------------

  ==> Convergence Check <==

  Measures of convergence in internal coordinates in au.
  Criteria marked as inactive (o), active & met (*), and active & unmet ( ).
  ---------------------------------------------------------------------------------------------
   Step     Total Energy     Delta E     MAX Force     RMS Force      MAX Disp      RMS Disp   
  ---------------------------------------------------------------------------------------------
    Convergence Criteria    1.00e-06 *    3.00e-04 *             o    1.20e-03 *             o
  ---------------------------------------------------------------------------------------------
      2    -270.13185644   -8.08e-06      2.41e-04 *    7.27e-05 o    6.00e-02      1.56e-02 o  ~
  ---------------------------------------------------------------------------------------------

	Writing optimization data to binary file.
	Structure for next step:
	Cartesian Geometry (in Angstrom)
	    H    -2.5736220544   0.7880777070   0.8560726569
	    C    -2.5466503642   0.0880042175   0.0318816583
	    C    -1.2856450489  -0.7607229750   0.0784918484
	    H    -2.5953627049   0.6613079749  -0.8842437677
	    H    -3.4262211468  -0.5421324392   0.0886262792
	    C     0.0002033615   0.0402986046   0.0067040579
	    H    -1.2725717702  -1.4793418386  -0.7368542004
	    H    -1.2528029094  -1.3535406685   0.9883840581
	    C     1.2856623042  -0.7644073469  -0.0199689588
	    O     0.0017671232   1.2278489561   0.0003441011
	    C     2.5463575627   0.0862201113  -0.0347351653
	    H     1.2449771096  -1.3985327424  -0.9020744761
	    H     1.2820277278  -1.4425712926   0.8283938051
	    H     2.5629393503   0.7406452750  -0.8953685614
	    H     3.4259022102  -0.5456876478  -0.0665517308
	    H     2.6052770182   0.7082079682   0.8489607579
			--------------------------
			 OPTKING Finished Execution 
			--------------------------

    Structure for next step:
    Molecular point group: c1
    Full point group: C1

    Geometry (in Angstrom), charge = 0, multiplicity = 1:

    H           -2.573946533374     0.787865614340     0.845845121262
    C           -2.546974845225     0.087792178294     0.021654185630
    C           -1.285969626173    -0.760934949413     0.068264372181
    H           -2.595687182159     0.661095891859    -0.894471170409
    H           -3.426545560663    -0.542344430345     0.078398802183
    C           -0.000121313944     0.040086568982    -0.003523412824
    H           -1.272896348493    -1.479553758126    -0.747081614429
    H           -1.253127489215    -1.353752597688     0.978156512334
    C            1.285337530580    -0.764619321012    -0.030196427568
    O            0.001442447626     1.227636829792    -0.009883369214
    C            2.546032692769     0.086008072168    -0.044962632943
    H            1.244652339046    -1.398744668069    -0.912301877416
    H            1.281702954389    -1.442783214970     0.818166271606
    H            2.562614479076     0.740433185935    -0.905595963322
    H            3.425577273167    -0.545899638646    -0.076779195974
    H            2.604952143808     0.707995881621     0.838733222855

gradient() will perform analytic gradient computation.

*** tstart() called on cx1-27-3-3
*** at Fri Sep  9 21:56:23 2016


         ---------------------------------------------------------
                                   SCF
            by Justin Turney, Rob Parrish, and Andy Simmonett
                              RHF Reference
                        4 Threads,   2000 MiB Core
         ---------------------------------------------------------

  ==> Geometry <==

    Molecular point group: c1
    Full point group: C1

    Geometry (in Angstrom), charge = 0, multiplicity = 1:

       Center              X                  Y                   Z               Mass       
    ------------   -----------------  -----------------  -----------------  -----------------
           H         -2.573946533374     0.787865614340     0.845845121262     1.007825032070
           C         -2.546974845225     0.087792178294     0.021654185630    12.000000000000
           C         -1.285969626173    -0.760934949413     0.068264372181    12.000000000000
           H         -2.595687182159     0.661095891859    -0.894471170409     1.007825032070
           H         -3.426545560663    -0.542344430345     0.078398802183     1.007825032070
           C         -0.000121313944     0.040086568982    -0.003523412824    12.000000000000
           H         -1.272896348493    -1.479553758126    -0.747081614429     1.007825032070
           H         -1.253127489215    -1.353752597688     0.978156512334     1.007825032070
           C          1.285337530580    -0.764619321012    -0.030196427568    12.000000000000
           O          0.001442447626     1.227636829792    -0.009883369214    15.994914619560
           C          2.546032692769     0.086008072168    -0.044962632943    12.000000000000
           H          1.244652339046    -1.398744668069    -0.912301877416     1.007825032070
           H          1.281702954389    -1.442783214970     0.818166271606     1.007825032070
           H          2.562614479076     0.740433185935    -0.905595963322     1.007825032070
           H          3.425577273167    -0.545899638646    -0.076779195974     1.007825032070
           H          2.604952143808     0.707995881621     0.838733222855     1.007825032070

  Running in c1 symmetry.

  Rotational constants: A =      0.30513  B =      0.06521  C =      0.05591 [cm^-1]
  Rotational constants: A =   9147.60555  B =   1954.88396  C =   1676.08238 [MHz]
  Nuclear repulsion =  240.368127888052953

  Charge       = 0
  Multiplicity = 1
  Electrons    = 48
  Nalpha       = 24
  Nbeta        = 24

  ==> Algorithm <==

  SCF Algorithm Type is DF.
  DIIS enabled.
  MOM disabled.
  Fractional occupation disabled.
  Guess Type is READ.
  Energy threshold   = 1.00e-08
  Density threshold  = 1.00e-08
  Integral threshold = 0.00e+00

  ==> Primary Basis <==

  Basis Set: CC-PVTZ
    Number of shells: 120
    Number of basis function: 320
    Number of Cartesian functions: 360
    Spherical Harmonics?: true
    Max angular momentum: 3

  ==> Pre-Iterations <==

   -------------------------------------------------------
    Irrep   Nso     Nmo     Nalpha   Nbeta   Ndocc  Nsocc
   -------------------------------------------------------
     A        320     320       0       0       0       0
   -------------------------------------------------------
    Total     320     320      24      24      24       0
   -------------------------------------------------------

 OEINTS: Overlap, kinetic, potential, dipole, and quadrupole integrals
         stored in file 35.

  ==> Integral Setup <==

  ==> DFJK: Density-Fitted J/K Matrices <==

    J tasked:                  Yes
    K tasked:                  Yes
    wK tasked:                  No
    OpenMP threads:              4
    Integrals threads:           4
    Memory (MB):              1430
    Algorithm:                Core
    Integral Cache:           NONE
    Schwarz Cutoff:          1E-12
    Fitting Condition:       1E-12

   => Auxiliary Basis Set <=

  Basis Set: 
    Number of shells: 250
    Number of basis function: 774
    Number of Cartesian functions: 926
    Spherical Harmonics?: true
    Max angular momentum: 4

  Minimum eigenvalue in the overlap matrix is 3.6641853489E-04.
  Using Symmetric Orthogonalization.
  SCF Guess: Reading in previously saved MOs, projecting if necessary.

  Using orbitals from previous SCF, no projection.
  Recomputing DOCC and SOCC from number of alpha and beta electrons from previous calculation.
              A 
    DOCC [    24 ]

  ==> Iterations <==

                           Total Energy        Delta E     RMS |[F,P]|

   @DF-RHF iter   0:  -270.12850800327487   -2.70129e+02   2.61977e-04 
   @DF-RHF iter   1:  -270.13164894968361   -3.14095e-03   3.49369e-05 
   @DF-RHF iter   2:  -270.13176762188039   -1.18672e-04   1.32098e-05 DIIS
   @DF-RHF iter   3:  -270.13178924797694   -2.16261e-05   5.62260e-06 DIIS
   @DF-RHF iter   4:  -270.13179218511709   -2.93714e-06   2.37187e-06 DIIS
   @DF-RHF iter   5:  -270.13179292092786   -7.35811e-07   1.07262e-06 DIIS
   @DF-RHF iter   6:  -270.13179306963923   -1.48711e-07   2.44838e-07 DIIS
   @DF-RHF iter   7:  -270.13179307623795   -6.59873e-09   4.46378e-08 DIIS
   @DF-RHF iter   8:  -270.13179307648545   -2.47496e-10   1.26100e-08 DIIS
   @DF-RHF iter   9:  -270.13179307651239   -2.69438e-11   5.72166e-09 DIIS

  ==> Post-Iterations <==

    Orbital Energies (a.u.)
    -----------------------

    Doubly Occupied:                                                      

       1A    -20.539274     2A    -11.317922     3A    -11.232203  
       4A    -11.232178     5A    -11.211794     6A    -11.211699  
       7A     -1.399513     8A     -1.069343     9A     -1.037229  
      10A     -0.916991    11A     -0.845941    12A     -0.725965  
      13A     -0.669719    14A     -0.649353    15A     -0.619812  
      16A     -0.608223    17A     -0.561151    18A     -0.527569  
[...]


*** tstop() called on cx1-27-3-3 at Fri Sep  9 21:57:51 2016
Module time:
	user time   =      74.23 seconds =       1.24 minutes
	system time =       0.50 seconds =       0.01 minutes
	total time  =         20 seconds =       0.33 minutes
Total time:
	user time   =     540.86 seconds =       9.01 minutes
	system time =       5.24 seconds =       0.09 minutes
	total time  =        152 seconds =       2.53 minutes
CURRENT ENERGY: -270.1318627554

			-----------------------------------------
			 OPTKING 2.0: for geometry optimizations 
			  - R.A. King,  Bethel University        
			-----------------------------------------

	Previous internal coordinate definitions found.
	---Fragment 1 Geometry and Gradient---
	 H          -4.8537471491        1.4833010414        1.6296492577
	 C          -4.8126726796        0.1656899132        0.0675795141
	 C          -2.4291015799       -1.4383791700        0.1345029271
	 H          -4.9159785312        1.2549141114       -1.6595536474
	 H          -6.4739724847       -1.0256740184        0.1809328273
	 C          -0.0001067407        0.0762137744       -0.0068396686
	 H          -2.4149065829       -2.7934869565       -1.4081489730
	 H          -2.3554318685       -2.5618235209        1.8521586320
	 C           2.4293567122       -1.4435932822       -0.0566566620
	 O          -0.0002743369        2.3193948949       -0.0743479395
	 C           4.8127391921        0.1624029360       -0.0602355947
	 H           2.3639769586       -2.6505249100       -1.7174511376
	 H           2.4081712196       -2.7200001107        1.5510941037
	 H           4.8609280289        1.3991024322       -1.6867389257
	 H           6.4744769123       -1.0329028065       -0.1050036942
	 H           4.9082785973        1.3377571698        1.6101111419
	            -0.0000028497        0.0000043693        0.0000083519
	             0.0000042380       -0.0000020538       -0.0000321160
	             0.0000036309        0.0000112033        0.0001647103
	             0.0000031944       -0.0000022950        0.0000098331
	             0.0000007025       -0.0000006778        0.0000079317
	            -0.0000167399        0.0000145673       -0.0002178395
	             0.0000147886       -0.0000049407       -0.0000305352
	            -0.0000140172       -0.0000037854       -0.0000307853
	            -0.0000420359       -0.0000926200        0.0001981848
	             0.0000070170       -0.0000016397        0.0000292355
	             0.0000096472        0.0000163826       -0.0000365823
	             0.0000113791        0.0000502815       -0.0000608158
	             0.0000207715        0.0000157732       -0.0000348256
	            -0.0000049890       -0.0000043512        0.0000078226
	            -0.0000005750       -0.0000034090        0.0000087662
	             0.0000058376        0.0000031956        0.0000086636

	---Fragment 1 Intrafragment Coordinates---
	 - Coordinate -           - BOHR/RAD -       - ANG/DEG -
	 R(1,2)           =         2.043978	       1.081627
	 R(2,3)           =         2.873835	       1.520768
	 R(2,4)           =         2.044522	       1.081915
	 R(2,5)           =         2.047465	       1.083472
	 R(3,6)           =         2.866005	       1.516625
	 R(3,7)           =         2.053362	       1.086592
	 R(3,8)           =         2.053752	       1.086799
	 R(6,9)           =         2.866110	       1.516680
	 R(6,10)          =         2.244197	       1.187578
	 R(9,11)          =         2.873978	       1.520844
	 R(9,12)          =         2.054068	       1.086966
	 R(9,13)          =         2.052931	       1.086364
	 R(11,14)         =         2.043835	       1.081551
	 R(11,15)         =         2.047470	       1.083474
	 R(11,16)         =         2.044662	       1.081989
	 B(1,2,3)         =         1.937649	     111.019125
	 B(1,2,4)         =         1.876693	     107.526569
	 B(1,2,5)         =         1.892810	     108.450049
	 B(2,3,6)         =         1.989762	     114.004987
	 B(2,3,7)         =         1.935418	     110.891300
	 B(2,3,8)         =         1.933234	     110.766136
	 B(3,2,4)         =         1.937932	     111.035307
	 B(3,2,5)         =         1.925064	     110.298068
	 B(3,6,9)         =         2.025313	     116.041916
	 B(3,6,10)        =         2.128983	     121.981769
	 B(4,2,5)         =         1.892058	     108.406954
	 B(6,3,7)         =         1.881628	     107.809354
	 B(6,3,8)         =         1.875414	     107.453284
	 B(6,9,11)        =         1.989591	     113.995195
	 B(6,9,12)        =         1.874073	     107.376466
	 B(6,9,13)        =         1.883186	     107.898625
	 B(7,3,8)         =         1.841160	     105.490715
	 B(9,6,10)        =         2.128888	     121.976315
	 B(9,11,14)       =         1.937640	     111.018577
	 B(9,11,15)       =         1.925018	     110.295413
	 B(9,11,16)       =         1.937946	     111.036149
	 B(11,9,12)       =         1.932355	     110.715814
	 B(11,9,13)       =         1.935819	     110.914237
	 B(12,9,13)       =         1.841646	     105.518553
	 B(14,11,15)      =         1.893057	     108.464194
	 B(14,11,16)      =         1.876737	     107.529121
	 B(15,11,16)      =         1.891810	     108.392737
	 D(1,2,3,6)       =        -1.039734	     -59.572358
	 D(1,2,3,7)       =         3.116003	     178.533837
	 D(1,2,3,8)       =         1.077915	      61.759982
	 D(2,3,6,9)       =        -3.098821	    -177.549366
	 D(2,3,6,10)      =         0.042855	       2.455417
	 D(3,6,9,11)      =        -3.088798	    -176.975067
	*D(3,6,9,12)      =         1.047198	      60.000007
	 D(3,6,9,13)      =        -0.930394	     -53.307638
	 D(4,2,3,6)       =         1.047079	      59.993205
	 D(4,2,3,7)       =        -1.080369	     -61.900601
	 D(4,2,3,8)       =        -3.118458	    -178.674455
	 D(5,2,3,6)       =        -3.138300	    -179.811325
	 D(5,2,3,7)       =         1.017437	      58.294870
	 D(5,2,3,8)       =        -1.020651	     -58.478985
	 D(6,9,11,14)     =        -1.038372	     -59.494362
	 D(6,9,11,15)     =        -3.137211	    -179.748957
	 D(6,9,11,16)     =         1.048500	      60.074605
	 D(7,3,6,9)       =        -0.941984	     -53.971697
	 D(7,3,6,10)      =         2.199692	     126.033086
	 D(8,3,6,9)       =         1.034950	      59.298239
	 D(8,3,6,10)      =        -2.106560	    -120.696978
	 D(10,6,9,11)     =         0.052712	       3.020151
	 D(10,6,9,12)     =        -2.094478	    -120.004776
	 D(10,6,9,13)     =         2.211115	     126.687579
	 D(12,9,11,14)    =         1.076743	      61.692853
	 D(12,9,11,15)    =        -1.022095	     -58.561742
	 D(12,9,11,16)    =        -3.119570	    -178.738180
	 D(13,9,11,14)    =         3.115135	     178.484107
	 D(13,9,11,15)    =         1.016297	      58.229511
	 D(13,9,11,16)    =        -1.081178	     -61.946927

	Current energy   :      -270.1318627554

	Energy change for the previous step:
		Projected    :        -0.0000039978
		Actual       :        -0.0000007106
	Energy ratio indicates iffy step: Trust radius decreased to 1.250e-01.


	Performing BFGS update.
	Previous computed or guess Hessian on step 1.
	Steps to be used in Hessian update: 4 3
	Taking RFO optimization step.
	Going to follow RFO solution 1.
	Using RFO vector 1.
	Norm of target step-size    0.01200
	Projected energy change by RFO approximation:        -0.0000011342

	Back-transformation to cartesian coordinates...
	Successfully converged to displaced geometry.

	Back-transformation to cartesian coordinates to adjust frozen coordinates...
	Successfully converged to displaced geometry.

	--- Internal Coordinate Step in ANG or DEG, aJ/ANG or AJ/DEG ---
	 ---------------------------------------------------------------------------
	   Coordinate                Previous        Force       Change         New 
	   ----------                --------       ------       ------       ------
	    1 R(1,2)          =      1.081627    -0.000076    -0.000032     1.081595
	    2 R(2,3)          =      1.520768     0.000038     0.000010     1.520778
	    3 R(2,4)          =      1.081915     0.000080     0.000034     1.081948
	    4 R(2,5)          =      1.083472    -0.000002    -0.000001     1.083471
	    5 R(3,6)          =      1.516625     0.000036     0.000008     1.516632
	    6 R(3,7)          =      1.086592    -0.000217    -0.000083     1.086510
	    7 R(3,8)          =      1.086799     0.000199     0.000080     1.086879
	    8 R(6,9)          =      1.516680    -0.000052    -0.000020     1.516661
	    9 R(6,10)         =      1.187578     0.000021     0.000001     1.187579
	   10 R(9,11)         =      1.520844    -0.000122    -0.000038     1.520805
	   11 R(9,12)         =      1.086966    -0.000159    -0.000040     1.086926
	   12 R(9,13)         =      1.086364     0.000307     0.000079     1.086444
	   13 R(11,14)        =      1.081551     0.000074     0.000012     1.081563
	   14 R(11,15)        =      1.083474    -0.000011    -0.000003     1.083472
	   15 R(11,16)        =      1.081989    -0.000076    -0.000012     1.081976
	   16 B(1,2,3)        =    111.019125    -0.000000     0.000588   111.019713
	   17 B(1,2,4)        =    107.526569     0.000000     0.000406   107.526975
	   18 B(1,2,5)        =    108.450049     0.000000     0.006156   108.456205
	   19 B(2,3,6)        =    114.004987     0.000000     0.001042   114.006029
	   20 B(2,3,7)        =    110.891300    -0.000001     0.010718   110.902018
	   21 B(2,3,8)        =    110.766136     0.000000    -0.012408   110.753728
	   22 B(3,2,4)        =    111.035307    -0.000000    -0.001478   111.033829
	   23 B(3,2,5)        =    110.298068     0.000000     0.001170   110.299239
	   24 B(3,6,9)        =    116.041916     0.000000     0.000050   116.041965
	   25 B(3,6,10)       =    121.981769    -0.000001    -0.001948   121.979821
	   26 B(4,2,5)        =    108.406954    -0.000000    -0.006866   108.400088
	   27 B(6,3,7)        =    107.809354     0.000001     0.034345   107.843699
	   28 B(6,3,8)        =    107.453284    -0.000002    -0.035333   107.417951
	   29 B(6,9,11)       =    113.995195     0.000000     0.004786   113.999981
	   30 B(6,9,12)       =    107.376466     0.000002     0.014104   107.390571
	   31 B(6,9,13)       =    107.898625    -0.000002    -0.019534   107.879091
	   32 B(7,3,8)        =    105.490715     0.000000     0.001430   105.492145
	   33 B(9,6,10)       =    121.976315     0.000000     0.001898   121.978214
	   34 B(9,11,14)      =    111.018577     0.000000    -0.000327   111.018250
	   35 B(9,11,15)      =    110.295413     0.000000     0.003040   110.298453
	   36 B(9,11,16)      =    111.036149    -0.000000    -0.001511   111.034637
	   37 B(11,9,12)      =    110.715814    -0.000001     0.014102   110.729916
	   38 B(11,9,13)      =    110.914237     0.000001    -0.004341   110.909896
	   39 B(12,9,13)      =    105.518553     0.000000    -0.010468   105.508085
	   40 B(14,11,15)     =    108.464194    -0.000001    -0.003874   108.460320
	   41 B(14,11,16)     =    107.529121    -0.000000    -0.000821   107.528300
	   42 B(15,11,16)     =    108.392737     0.000000     0.003420   108.396157
	   43 D(1,2,3,6)      =    -59.572358     0.000000     0.032847   -59.539511
	   44 D(1,2,3,7)      =    178.533837    -0.000000    -0.021221   178.512616
	   45 D(1,2,3,8)      =     61.759982    -0.000000    -0.021924    61.738059
	   46 D(2,3,6,9)      =   -177.549366     0.000000     0.253266  -177.296101
	   47 D(2,3,6,10)     =      2.455417    -0.000000     0.242253     2.697669
	   48 D(3,6,9,11)     =   -176.975067     0.000000     0.031583  -176.943484
	   49 *D(3,6,9,12)    =     60.000007    -0.000000    -0.000000    60.000007
	   50 D(3,6,9,13)     =    -53.307638    -0.000000     0.014608   -53.293030
	   51 D(4,2,3,6)      =     59.993205     0.000000     0.032770    60.025974
	   52 D(4,2,3,7)      =    -61.900601    -0.000000    -0.021297   -61.921898
	   53 D(4,2,3,8)      =   -178.674455    -0.000000    -0.022000  -178.696456
	   54 D(5,2,3,6)      =   -179.811325     0.000000     0.023970  -179.787355
	   55 D(5,2,3,7)      =     58.294870    -0.000000    -0.030098    58.264772
	   56 D(5,2,3,8)      =    -58.478985    -0.000000    -0.030801   -58.509785
	   57 D(6,9,11,14)    =    -59.494362    -0.000000    -0.012537   -59.506899
	   58 D(6,9,11,15)    =   -179.748957    -0.000000    -0.009473  -179.758430
	   59 D(6,9,11,16)    =     60.074605    -0.000000    -0.014783    60.059821
	   60 D(7,3,6,9)      =    -53.971697     0.000000     0.293499   -53.678198
	   61 D(7,3,6,10)     =    126.033086    -0.000000     0.282486   126.315572
	   62 D(8,3,6,9)      =     59.298239     0.000000     0.294502    59.592740
	   63 D(8,3,6,10)     =   -120.696978    -0.000000     0.283489  -120.413490
	   64 D(10,6,9,11)    =      3.020151     0.000000     0.042595     3.062746
	   65 D(10,6,9,12)    =   -120.004776     0.000000     0.011013  -119.993763
	   66 D(10,6,9,13)    =    126.687579     0.000000     0.025620   126.713200
	   67 D(12,9,11,14)   =     61.692853     0.000000     0.019858    61.712712
	   68 D(12,9,11,15)   =    -58.561742     0.000000     0.022923   -58.538820
	   69 D(12,9,11,16)   =   -178.738180     0.000000     0.017612  -178.720568
	   70 D(13,9,11,14)   =    178.484107     0.000000     0.012979   178.497085
	   71 D(13,9,11,15)   =     58.229511     0.000000     0.016043    58.245554
	   72 D(13,9,11,16)   =    -61.946927     0.000000     0.010733   -61.936194
	 ---------------------------------------------------------------------------

  ==> Convergence Check <==

  Measures of convergence in internal coordinates in au.
  Criteria marked as inactive (o), active & met (*), and active & unmet ( ).
  ---------------------------------------------------------------------------------------------
   Step     Total Energy     Delta E     MAX Force     RMS Force      MAX Disp      RMS Disp   
  ---------------------------------------------------------------------------------------------
    Convergence Criteria    1.00e-06 *    3.00e-04 *             o    1.20e-03 *             o
  ---------------------------------------------------------------------------------------------
      5    -270.13186276   -7.11e-07 *    3.73e-05 *    1.13e-05 o    5.14e-03      1.41e-03 o  ~
  ---------------------------------------------------------------------------------------------


  **** Optimization is complete! (in 5 steps) ****

  ==> Optimization Summary <==

  Measures of convergence in internal coordinates in au.
  --------------------------------------------------------------------------------------------------------------- ~
   Step         Total Energy             Delta E       MAX Force       RMS Force        MAX Disp        RMS Disp  ~
  --------------------------------------------------------------------------------------------------------------- ~
      1    -270.131848358827   -270.131848358827      0.00027105      0.00008426      0.02940084      0.00760381  ~
      2    -270.131856442444     -0.000008083616      0.00024091      0.00007269      0.05997971      0.01561067  ~
      3    -270.131793076512      0.000063365931      0.00086581      0.00028828      0.04132381      0.01118827  ~
      4    -270.131862044742     -0.000068968230      0.00008675      0.00002987      0.00752287      0.00196656  ~
      5    -270.131862755367     -0.000000710624      0.00003729      0.00001127      0.00514002      0.00141376  ~
  --------------------------------------------------------------------------------------------------------------- ~

	Writing optimization data to binary file.
	Final energy is   -270.1318627553669
	Final (previous) structure:
	Cartesian Geometry (in Angstrom)
	    H    -2.5684925637   0.7849291645   0.8623733110
	    C    -2.5467568890   0.0876793324   0.0357615414
	    C    -1.2854252916  -0.7611575322   0.0711758889
	    H    -2.6014239953   0.6640719972  -0.8781980337
	    H    -3.4258789496  -0.5427633554   0.0957455358
	    C    -0.0000564848   0.0403305955  -0.0036193970
	    H    -1.2779136221  -1.4782497427  -0.7451603997
	    H    -1.2464409564  -1.3556587232   0.9801202096
	    C     1.2855603018  -0.7639167217  -0.0299814166
	    O    -0.0001451728   1.2273710098  -0.0393432381
	    C     2.5467920858   0.0859399389  -0.0318753063
	    H     1.2509628237  -1.4025974803  -0.9088360683
	    H     1.2743494211  -1.4393621759   0.8208037107
	    H     2.5722925219   0.7403731762  -0.8925838645
	    H     3.4261458812  -0.5465886656  -0.0555655660
	    H     2.5973493654   0.7079106589   0.8520341847
	Saving final (previous) structure.
			--------------------------
			 OPTKING Finished Execution 
			--------------------------

    Final optimized geometry and variables:
    Molecular point group: c1
    Full point group: C1

    Geometry (in Angstrom), charge = 0, multiplicity = 1:

    H           -2.568492367580     0.784929104586     0.862373245164
    C           -2.546756694474     0.087679325751     0.035761538625
    C           -1.285425193445    -0.761157474086     0.071175883492
    H           -2.601423796614     0.664071946510    -0.878197966638
    H           -3.425878687945    -0.542763313964     0.095745528500
    C           -0.000056484750     0.040330592386    -0.003619396753
    H           -1.277913524547    -1.478249629853    -0.745160342789
    H           -1.246440861194    -1.355658619710     0.980120134747
    C            1.285560203619    -0.763916663402    -0.029981414264
    O           -0.000145172825     1.227370916104    -0.039343235108
    C            2.546791891350     0.085939932314    -0.031875303868
    H            1.250962728145    -1.402597373165    -0.908835998870
    H            1.274349323798    -1.439362065952     0.820803648043
    H            2.572292325473     0.740373119625    -0.892583796310
    H            3.426145619525    -0.546588623864    -0.055565561807
    H            2.597349167080     0.707910604877     0.852034119589

	Cleaning optimization helper files.


Properties will be evaluated at   0.000000,   0.000000,   0.000000 Bohr

Properties computed using the  density matrix

  Nuclear Dipole Moment: (a.u.)
     X:     0.0009      Y:    -3.6202      Z:     0.1224

  Electronic Dipole Moment: (a.u.)
     X:    -0.0008      Y:     2.4786      Z:    -0.0885

  Dipole Moment: (a.u.)
     X:     0.0001      Y:    -1.1415      Z:     0.0339     Total:     1.1420

  Dipole Moment: (Debye)
     X:     0.0002      Y:    -2.9015      Z:     0.0861     Total:     2.9028

  Quadrupole Moment: (Debye Ang)
    XX:   -37.1671     YY:   -41.5581     ZZ:   -37.0891
    XY:    -0.0009     XZ:    -0.0552     YZ:     0.1393

  Traceless Quadrupole Moment: (Debye Ang)
    XX:     1.4377     YY:    -2.9533     ZZ:     1.5156
    XY:    -0.0009     XZ:    -0.0552     YZ:     0.1393

  Mulliken Charges: (a.u.)
   Center  Symbol    Alpha    Beta     Spin     Total
       1     H     0.44730  0.44730  0.00000  0.10541
       2     C     3.14071  3.14071  0.00000 -0.28142
       3     C     3.09785  3.09785  0.00000 -0.19570
       4     H     0.44845  0.44845  0.00000  0.10311
       5     H     0.45075  0.45075  0.00000  0.09850
       6     C     2.87459  2.87459  0.00000  0.25082
       7     H     0.44622  0.44622  0.00000  0.10756
       8     H     0.44583  0.44583  0.00000  0.10835
       9     C     3.09784  3.09784  0.00000 -0.19568
      10     O     4.17122  4.17122  0.00000 -0.34243
      11     C     3.14072  3.14072  0.00000 -0.28144
      12     H     0.44590  0.44590  0.00000  0.10820
      13     H     0.44614  0.44614  0.00000  0.10773
      14     H     0.44714  0.44714  0.00000  0.10573
      15     H     0.45075  0.45075  0.00000  0.09849
      16     H     0.44860  0.44860  0.00000  0.10280

   Total alpha = 24.00000, Total beta = 24.00000, Total charge = -0.00000


*** PSI4 exiting successfully. Buy a developer a beer!
