    -----------------------------------------------------------------------
          Psi4: An Open-Source Ab Initio Electronic Structure Package
                              Psi4 1.0.54 Driver

                          Git: Rev {master} 8d4cec3 dirty

    J. M. Turney, A. C. Simmonett, R. M. Parrish, E. G. Hohenstein,
    F. A. Evangelista, J. T. Fermann, B. J. Mintz, L. A. Burns, J. J. Wilke,
    M. L. Abrams, N. J. Russ, M. L. Leininger, C. L. Janssen, E. T. Seidl,
    W. D. Allen, H. F. Schaefer, R. A. King, E. F. Valeev, C. D. Sherrill,
    and T. D. Crawford, WIREs Comput. Mol. Sci. 2, 556-565 (2012)
    (doi: 10.1002/wcms.93)

                         Additional Contributions by
    A. E. DePrince, U. Bozkaya, A. Yu. Sokolov, D. G. A. Smith, R. Di Remigio,
    R. M. Richard, J. F. Gonthier, H. R. McAlexander, M. Saitow, and
    B. P. Pritchard
    -----------------------------------------------------------------------


    Psi4 started on: Sat Sep 10 17:09:08 2016

    Process ID:  10940
    PSI4DATADIR: /export131/home/mjharvey/miniconda3/share/psi4
    Memory level set to 256.000 MB

  ==> Input File <==

--------------------------------------------------------------------------
set {
	reference rhf
	basis cc-pvtz
}


set_num_threads( 4 )
memory 2 gb

molecule MOL {
0 1

H	 -1.000894	 -3.586158	 1.001138
O	 -1.192568	 -2.751091	 0.601585
C	 -0.087100	 -2.011812	 0.620124
C	 -0.310616	 -0.658853	 0.000791
O	 0.926998	 -2.408190	 1.081056
C	 0.926581	 0.227233	 0.000178
H	 -1.129683	 -0.192841	 0.539020
H	 -0.677114	 -0.825841	 -1.006935
C	 2.220156	 -0.582071	 -0.000088
H	 0.899945	 0.878221	 -0.866390
H	 0.900542	 0.878581	 0.866486
C	 3.466689	 0.296012	 -0.000457
H	 2.239073	 -1.234095	 -0.869382
H	 2.239505	 -1.233985	 0.869270
H	 3.493549	 0.935857	 -0.875887
H	 4.368821	 -0.304526	 -0.001199
H	 3.494559	 0.935166	 0.875458

	symmetry c1
}
set optking {
	frozen_dihedral = ("
		7 4 6 10
	")
}

ee,wfn = optimize('scf', return_wfn=True)
oeprop( wfn, 'DIPOLE', 'QUADRUPOLE', 'MULLIKEN_CHARGES')
f=open( 'psi4out.xyz', 'w' )
f.write( "17  " )
f.write( str(ee) + "\n" )
f.write( MOL.save_string_xyz() )
f.close()
--------------------------------------------------------------------------

  Memory set to   2.000 GiB by Python script.
gradient() will perform analytic gradient computation.

*** tstart() called on cx1-27-3-1
*** at Sat Sep 10 17:09:08 2016


         ---------------------------------------------------------
                                   SCF
            by Justin Turney, Rob Parrish, and Andy Simmonett
                              RHF Reference
                        4 Threads,   2000 MiB Core
         ---------------------------------------------------------

  ==> Geometry <==

    Molecular point group: c1
    Full point group: C1

    Geometry (in Angstrom), charge = 0, multiplicity = 1:

       Center              X                  Y                   Z               Mass       
    ------------   -----------------  -----------------  -----------------  -----------------
           H         -1.836464590128    -2.419729538611     0.659248411173     1.007825032070
           O         -2.028138590128    -1.584662538611     0.259695411173    15.994914619560
           C         -0.922670590128    -0.845383538611     0.278234411173    12.000000000000
           C         -1.146186590128     0.507575461389    -0.341098588827    12.000000000000
           O          0.091427409872    -1.241761538611     0.739166411173    15.994914619560
           C          0.091010409872     1.393661461389    -0.341711588827    12.000000000000
           H         -1.965253590128     0.973587461389     0.197130411173     1.007825032070
           H         -1.512684590128     0.340587461389    -1.348824588827     1.007825032070
           C          1.384585409872     0.584357461389    -0.341977588827    12.000000000000
           H          0.064374409872     2.044649461389    -1.208279588827     1.007825032070
           H          0.064971409872     2.045009461389     0.524596411173     1.007825032070
           C          2.631118409872     1.462440461389    -0.342346588827    12.000000000000
           H          1.403502409872    -0.067666538611    -1.211271588827     1.007825032070
           H          1.403934409872    -0.067556538611     0.527380411173     1.007825032070
           H          2.657978409872     2.102285461389    -1.217776588827     1.007825032070
           H          3.533250409872     0.861902461389    -0.343088588827     1.007825032070
           H          2.658988409872     2.101594461389     0.533568411173     1.007825032070

  Running in c1 symmetry.

  Rotational constants: A =      0.20894  B =      0.04884  C =      0.04127 [cm^-1]
  Rotational constants: A =   6263.74383  B =   1464.06481  C =   1237.11077 [MHz]
  Nuclear repulsion =  318.321085809356418

  Charge       = 0
  Multiplicity = 1
  Electrons    = 56
  Nalpha       = 28
  Nbeta        = 28

  ==> Algorithm <==

  SCF Algorithm Type is DF.
  DIIS enabled.
  MOM disabled.
  Fractional occupation disabled.
  Guess Type is SAD.
  Energy threshold   = 1.00e-08
  Density threshold  = 1.00e-08
  Integral threshold = 0.00e+00

  ==> Primary Basis <==

  Basis Set: CC-PVTZ
    Number of shells: 130
    Number of basis function: 350
    Number of Cartesian functions: 395
    Spherical Harmonics?: true
    Max angular momentum: 3

  ==> Pre-Iterations <==

   -------------------------------------------------------
    Irrep   Nso     Nmo     Nalpha   Nbeta   Ndocc  Nsocc
   -------------------------------------------------------
     A        350     350       0       0       0       0
   -------------------------------------------------------
    Total     350     350      28      28      28       0
   -------------------------------------------------------

  ==> Integral Setup <==

  ==> DFJK: Density-Fitted J/K Matrices <==

    J tasked:                  Yes
    K tasked:                  Yes
    wK tasked:                  No
    OpenMP threads:              4
    Integrals threads:           4
    Memory (MB):              1430
    Algorithm:                Core
    Integral Cache:           NONE
    Schwarz Cutoff:          1E-12
    Fitting Condition:       1E-12

   => Auxiliary Basis Set <=

  Basis Set: 
    Number of shells: 275
    Number of basis function: 853
    Number of Cartesian functions: 1022
    Spherical Harmonics?: true
    Max angular momentum: 4

  Minimum eigenvalue in the overlap matrix is 2.8770632460E-04.
  Using Symmetric Orthogonalization.
  SCF Guess: Superposition of Atomic Densities via on-the-fly atomic UHF.

  ==> Iterations <==

                           Total Energy        Delta E     RMS |[F,P]|

   @DF-RHF iter   0:  -348.42626628743074   -3.48426e+02   1.52121e-02 
   @DF-RHF iter   1:  -344.79921938060829    3.62705e+00   1.68927e-03 
   @DF-RHF iter   2:  -344.96206945761094   -1.62850e-01   1.07602e-03 DIIS
   @DF-RHF iter   3:  -345.01261113336170   -5.05417e-02   2.51384e-04 DIIS
   @DF-RHF iter   4:  -345.01934914778587   -6.73801e-03   9.19772e-05 DIIS
   @DF-RHF iter   5:  -345.02016993441998   -8.20787e-04   3.53138e-05 DIIS
   @DF-RHF iter   6:  -345.02033387035908   -1.63936e-04   1.40107e-05 DIIS
   @DF-RHF iter   7:  -345.02035824304221   -2.43727e-05   4.56018e-06 DIIS
   @DF-RHF iter   8:  -345.02036151712150   -3.27408e-06   1.45510e-06 DIIS
   @DF-RHF iter   9:  -345.02036186542261   -3.48301e-07   4.23221e-07 DIIS
   @DF-RHF iter  10:  -345.02036190059539   -3.51728e-08   1.34533e-07 DIIS
   @DF-RHF iter  11:  -345.02036190374247   -3.14708e-09   4.89959e-08 DIIS
   @DF-RHF iter  12:  -345.02036190428430   -5.41831e-10   1.92738e-08 DIIS
   @DF-RHF iter  13:  -345.02036190439321   -1.08912e-10   7.08689e-09 DIIS

  ==> Post-Iterations <==

    Orbital Energies (a.u.)
    -----------------------

    Doubly Occupied:                                                      

       1A    -20.607309     2A    -20.540205     3A    -11.378992  
       4A    -11.240420     5A    -11.218665     6A    -11.194406  
       7A    -11.190434     8A     -1.482679     9A     -1.376743  
      10A     -1.087785    11A     -1.009563    12A     -0.909944  
      13A     -0.820541    14A     -0.793852    15A     -0.714702  
      16A     -0.689223    17A     -0.666014    18A     -0.624712  
      19A     -0.591000    20A     -0.578231    21A     -0.569099  
      22A     -0.536489    23A     -0.506730    24A     -0.500073  
      25A     -0.491850    26A     -0.462635    27A     -0.456099  
      28A     -0.407542  

    Virtual:                                                              

      29A      0.137443    30A      0.151932    31A      0.165735  
      32A      0.168183    33A      0.188751    34A      0.202818  
      35A      0.222147    36A      0.232419    37A      0.242468  
      38A      0.260047    39A      0.273323    40A      0.305938  
      41A      0.338325    42A      0.348801    43A      0.375097  
      44A      0.379883    45A      0.403783    46A      0.419461  
      47A      0.429006    48A      0.446167    49A      0.461137  
      50A      0.481939    51A      0.494541    52A      0.506704  
      53A      0.519139    54A      0.574871    55A      0.583970  
      56A      0.594187    57A      0.598741    58A      0.612063  
      59A      0.620086    60A      0.631651    61A      0.641401  
      62A      0.646455    63A      0.665077    64A      0.666529  
      65A      0.680843    66A      0.695859    67A      0.698966  
      68A      0.704088    69A      0.713376    70A      0.731484  
      71A      0.767627    72A      0.774954    73A      0.787365  
      74A      0.823937    75A      0.833847    76A      0.836693  
      77A      0.869108    78A      0.886932    79A      0.914896  
      80A      0.919396    81A      0.941674    82A      0.948545  
      83A      0.980745    84A      0.993020    85A      1.016937  
      86A      1.044489    87A      1.060944    88A      1.081176  
      89A      1.101293    90A      1.118343    91A      1.134255  
      92A      1.158850    93A      1.196520    94A      1.214474  
      95A      1.228722    96A      1.233158    97A      1.255432  
      98A      1.279392    99A      1.299220   100A      1.307378  
     101A      1.328006   102A      1.339890   103A      1.345129  
     104A      1.361854   105A      1.367430   106A      1.371365  
     107A      1.380449   108A      1.407670   109A      1.409985  
     110A      1.433845   111A      1.440215   112A      1.463029  
     113A      1.466393   114A      1.493127   115A      1.515339  
     116A      1.544644   117A      1.551983   118A      1.564394  
     119A      1.569424   120A      1.570959   121A      1.593583  
     122A      1.616907   123A      1.634954   124A      1.667266  
     125A      1.681274   126A      1.707554   127A      1.717243  
     128A      1.743374   129A      1.764783   130A      1.774759  
     131A      1.813438   132A      1.837353   133A      1.857486  
     134A      1.882327   135A      1.894053   136A      1.921010  
     137A      1.969389   138A      2.027679   139A      2.036237  
     140A      2.101823   141A      2.225882   142A      2.278587  
     143A      2.287972   144A      2.341983   145A      2.356927  
     146A      2.395381   147A      2.464843   148A      2.480714  
     149A      2.548411   150A      2.593897   151A      2.617903  
     152A      2.670175   153A      2.678990   154A      2.687596  
     155A      2.723390   156A      2.730286   157A      2.771277  
     158A      2.795996   159A      2.829203   160A      2.833321  
     161A      2.858293   162A      2.885114   163A      2.899621  
     164A      2.916181   165A      2.941600   166A      2.966454  
     167A      2.970041   168A      2.984187   169A      3.018500  
     170A      3.026953   171A      3.051819   172A      3.059578  
     173A      3.090783   174A      3.133153   175A      3.157162  
     176A      3.167950   177A      3.193450   178A      3.207136  
     179A      3.217165   180A      3.249526   181A      3.251914  
     182A      3.261346   183A      3.282624   184A      3.285921  
     185A      3.315632   186A      3.334263   187A      3.360393  
     188A      3.370876   189A      3.377383   190A      3.416164  
     191A      3.426926   192A      3.429670   193A      3.434367  
     194A      3.457295   195A      3.466995   196A      3.477017  
     197A      3.499784   198A      3.515801   199A      3.526243  
     200A      3.545776   201A      3.558938   202A      3.573014  
     203A      3.582674   204A      3.608711   205A      3.615260  
     206A      3.629140   207A      3.656396   208A      3.660763  
     209A      3.691300   210A      3.725023   211A      3.727534  
     212A      3.748311   213A      3.767039   214A      3.791510  
     215A      3.810855   216A      3.814101   217A      3.827693  
     218A      3.852974   219A      3.861618   220A      3.883314  
     221A      3.918778   222A      3.939990   223A      3.945151  
     224A      3.974023   225A      3.984432   226A      3.993796  
     227A      4.018568   228A      4.029359   229A      4.059661  
     230A      4.088686   231A      4.105783   232A      4.116349  
     233A      4.144654   234A      4.161045   235A      4.172764  
     236A      4.186567   237A      4.191287   238A      4.196944  
     239A      4.213129   240A      4.224122   241A      4.238612  
     242A      4.256684   243A      4.272948   244A      4.288642  
     245A      4.335177   246A      4.340469   247A      4.346990  
     248A      4.362491   249A      4.395288   250A      4.422452  
     251A      4.437976   252A      4.453042   253A      4.464132  
     254A      4.475355   255A      4.490975   256A      4.522546  
     257A      4.541309   258A      4.556750   259A      4.574880  
     260A      4.577416   261A      4.609929   262A      4.624900  
     263A      4.638956   264A      4.639489   265A      4.657843  
     266A      4.690050   267A      4.702054   268A      4.708494  
     269A      4.737030   270A      4.760320   271A      4.783532  
     272A      4.831559   273A      4.844978   274A      4.867402  
     275A      4.940162   276A      4.968303   277A      5.019386  
     278A      5.035648   279A      5.059342   280A      5.099986  
     281A      5.124695   282A      5.140005   283A      5.184176  
     284A      5.200810   285A      5.245491   286A      5.250748  
     287A      5.282223   288A      5.298582   289A      5.326940  
     290A      5.361659   291A      5.373204   292A      5.389568  
     293A      5.415841   294A      5.425020   295A      5.466865  
     296A      5.500949   297A      5.568932   298A      5.576472  
     299A      5.604877   300A      5.642431   301A      5.658046  
     302A      5.690248   303A      5.729370   304A      5.744262  
     305A      5.761384   306A      5.771831   307A      5.784147  
     308A      5.811450   309A      5.834821   310A      5.858179  
     311A      5.892100   312A      5.902047   313A      5.945423  
     314A      5.948435   315A      5.978595   316A      6.046852  
     317A      6.064356   318A      6.091933   319A      6.134547  
     320A      6.292387   321A      6.314299   322A      6.341633  
     323A      6.353635   324A      6.419103   325A      6.467060  
     326A      6.537569   327A      6.661729   328A      6.803117  
     329A      6.821181   330A      6.952615   331A      7.037564  
     332A      7.059386   333A      7.106021   334A      7.215652  
     335A      7.265725   336A      7.285604   337A      7.341334  
     338A      7.414423   339A      7.512967   340A      7.700257  
     341A      7.812192   342A      7.913424   343A      8.038728  
     344A      9.978424   345A     12.829537   346A     13.293704  
     347A     13.646630   348A     14.092777   349A     14.289590  
     350A     14.514500  

    Final Occupation by Irrep:
              A 
    DOCC [    28 ]

  Energy converged.

  @DF-RHF Final Energy:  -345.02036190439321

   => Energetics <=

    Nuclear Repulsion Energy =            318.3210858093564184
    One-Electron Energy =               -1101.3910242953788838
    Two-Electron Energy =                 438.0495765816291964
    DFT Exchange-Correlation Energy =       0.0000000000000000
    Empirical Dispersion Energy =           0.0000000000000000
    PCM Polarization Energy =               0.0000000000000000
    EFP Energy =                            0.0000000000000000
    Total Energy =                       -345.0203619043932690


  Saving occupied orbitals to File 180.

*** tstop() called on cx1-27-3-1 at Sat Sep 10 17:09:17 2016
Module time:
	user time   =      30.46 seconds =       0.51 minutes
	system time =       0.73 seconds =       0.01 minutes
	total time  =          9 seconds =       0.15 minutes
Total time:
	user time   =      30.46 seconds =       0.51 minutes
	system time =       0.73 seconds =       0.01 minutes
	total time  =          9 seconds =       0.15 minutes


Properties will be evaluated at   0.000000,   0.000000,   0.000000 Bohr

Properties computed using the SCF density matrix

  Nuclear Dipole Moment: (a.u.)
     X:     6.0586      Y:     7.4062      Z:    -2.7020

  Electronic Dipole Moment: (a.u.)
     X:    -6.7177      Y:    -7.3627      Z:     2.5475

  Dipole Moment: (a.u.)
     X:    -0.6592      Y:     0.0434      Z:    -0.1544     Total:     0.6784

  Dipole Moment: (Debye)
     X:    -1.6755      Y:     0.1104      Z:    -0.3925     Total:     1.7244


*** tstart() called on cx1-27-3-1
*** at Sat Sep 10 17:09:17 2016


         ------------------------------------------------------------
                                   SCF GRAD                          
                          Rob Parrish, Justin Turney,                
                       Andy Simmonett, and Alex Sokolov              
         ------------------------------------------------------------

  ==> Geometry <==

    Molecular point group: c1
    Full point group: C1

    Geometry (in Angstrom), charge = 0, multiplicity = 1:

       Center              X                  Y                   Z               Mass       
    ------------   -----------------  -----------------  -----------------  -----------------
           H         -1.836464590128    -2.419729538611     0.659248411173     1.007825032070
           O         -2.028138590128    -1.584662538611     0.259695411173    15.994914619560
           C         -0.922670590128    -0.845383538611     0.278234411173    12.000000000000
           C         -1.146186590128     0.507575461389    -0.341098588827    12.000000000000
           O          0.091427409872    -1.241761538611     0.739166411173    15.994914619560
           C          0.091010409872     1.393661461389    -0.341711588827    12.000000000000
           H         -1.965253590128     0.973587461389     0.197130411173     1.007825032070
           H         -1.512684590128     0.340587461389    -1.348824588827     1.007825032070
           C          1.384585409872     0.584357461389    -0.341977588827    12.000000000000
           H          0.064374409872     2.044649461389    -1.208279588827     1.007825032070
           H          0.064971409872     2.045009461389     0.524596411173     1.007825032070
           C          2.631118409872     1.462440461389    -0.342346588827    12.000000000000
           H          1.403502409872    -0.067666538611    -1.211271588827     1.007825032070
           H          1.403934409872    -0.067556538611     0.527380411173     1.007825032070
           H          2.657978409872     2.102285461389    -1.217776588827     1.007825032070
           H          3.533250409872     0.861902461389    -0.343088588827     1.007825032070
           H          2.658988409872     2.101594461389     0.533568411173     1.007825032070

  Nuclear repulsion =  318.321085809356418

  ==> Basis Set <==

  Basis Set: CC-PVTZ
    Number of shells: 130
    Number of basis function: 350
    Number of Cartesian functions: 395
    Spherical Harmonics?: true
    Max angular momentum: 3

  ==> DFJKGrad: Density-Fitted SCF Gradients <==

    Gradient:                    1
    J tasked:                  Yes
    K tasked:                  Yes
    wK tasked:                  No
    OpenMP threads:              4
    Integrals threads:           4
    Memory (MB):              1430
    Schwarz Cutoff:          0E+00
    Fitting Condition:       1E-12

   => Auxiliary Basis Set <=

  Basis Set: 
    Number of shells: 275
    Number of basis function: 853
    Number of Cartesian functions: 1022
    Spherical Harmonics?: true
    Max angular momentum: 4


  -Total Gradient:
     Atom            X                  Y                   Z
    ------   -----------------  -----------------  -----------------
       1       -0.000039047640     0.000072500786    -0.000049008468
       2       -0.000832680895    -0.000430861775     0.000885805506
       3        0.006530767701     0.001815493378    -0.002622745485
       4        0.004892521879     0.000188047676     0.001398564903
       5        0.028929115694     0.029058142469    -0.012504569661
       6       -0.006029109634     0.000767003135    -0.002219284793
       7        0.000508439501     0.001622507685     0.001458423425
       8       -0.000252286647     0.002111896873    -0.000935853537
       9       -0.023013737453    -0.010315849410    -0.006377895526
      10        0.001130077097    -0.000549787211     0.000120444511
      11       -0.001738368969     0.000459664398    -0.001438258362
      12        0.002911665397    -0.003252332535     0.005995209932
      13       -0.000260348387     0.000144839071     0.000269196162
      14       -0.010559588289    -0.019707123658     0.016137193429
      15       -0.002283960108    -0.002081540779     0.000630522169
      16        0.000230381052     0.000324594330    -0.000142019015
      17       -0.000123840294    -0.000227194436    -0.000605725189


*** tstop() called on cx1-27-3-1 at Sat Sep 10 17:09:25 2016
Module time:
	user time   =      30.22 seconds =       0.50 minutes
	system time =       0.60 seconds =       0.01 minutes
	total time  =          8 seconds =       0.13 minutes
Total time:
	user time   =      60.77 seconds =       1.01 minutes
	system time =       1.34 seconds =       0.02 minutes
	total time  =         17 seconds =       0.28 minutes

			-----------------------------------------
			 OPTKING 2.0: for geometry optimizations 
			  - R.A. King,  Bethel University        
			-----------------------------------------

	Internal coordinates to be generated automatically.
	Detected frag 1 with atoms:  1 2 3 4 5 6 7 8 9 10 11 12 13 14 15 16 17
	---Fragment 1 Bond Connectivity---
	 1 : 2
	 2 : 1 3
	 3 : 2 4 5
	 4 : 3 6 7 8
	 5 : 3
	 6 : 4 9 10 11
	 7 : 4
	 8 : 4
	 9 : 6 12 13 14
	 10 : 6
	 11 : 6
	 12 : 9 15 16 17
	 13 : 9
	 14 : 9
	 15 : 12
	 16 : 12
	 17 : 12

	Assuming in current code that numbering for constraints corresponds to unified fragment.
	Frozen dihedral atom list: 
	     7     4     6    10
	---Fragment 1 Geometry and Gradient---
	 H          -3.4704151281       -4.5726261436        1.2457989507
	 O          -3.8326264949       -2.9945782110        0.4907532051
	 C          -1.7435947262       -1.5975433652        0.5257868379
	 C          -2.1659787525        0.9591786138       -0.6445829172
	 O           0.1727727657       -2.3465892303        1.3968220837
	 C           0.1719847499        2.6336384840       -0.6457413193
	 H          -3.7137910670        1.8398136684        0.3725224896
	 H          -2.8585596008        0.6436170263       -2.5489090742
	 C           2.6164872322        1.1042755657       -0.6462439865
	 H           0.1216500046        3.8638275198       -2.2833175148
	 H           0.1227781711        3.8645078212        0.9913435474
	 C           4.9720932179        2.7636119577       -0.6469412954
	 H           2.6522351815       -0.1278712263       -2.2889715754
	 H           2.6530515432       -0.1276633565        0.9966045450
	 H           5.0228512618        3.9727437752       -2.3012642439
	 H           6.6768756336        1.6287596053       -0.6483434722
	 H           5.0247598852        3.9714379744        1.0082981703
	            -0.0000390476        0.0000725008       -0.0000490085
	            -0.0008326809       -0.0004308618        0.0008858055
	             0.0065307677        0.0018154934       -0.0026227455
	             0.0048925219        0.0001880477        0.0013985649
	             0.0289291157        0.0290581425       -0.0125045697
	            -0.0060291096        0.0007670031       -0.0022192848
	             0.0005084395        0.0016225077        0.0014584234
	            -0.0002522866        0.0021118969       -0.0009358535
	            -0.0230137375       -0.0103158494       -0.0063778955
	             0.0011300771       -0.0005497872        0.0001204445
	            -0.0017383690        0.0004596644       -0.0014382584
	             0.0029116654       -0.0032523325        0.0059952099
	            -0.0002603484        0.0001448391        0.0002691962
	            -0.0105595883       -0.0197071237        0.0161371934
	            -0.0022839601       -0.0020815408        0.0006305222
	             0.0002303811        0.0003245943       -0.0001420190
	            -0.0001238403       -0.0002271944       -0.0006057252

	Previous optimization step data not found.  Starting new optimization.

	---Fragment 1 Intrafragment Coordinates---
	 - Coordinate -           - BOHR/RAD -       - ANG/DEG -
	 R(1,2)           =         1.786484	       0.945367
	 R(2,3)           =         2.513362	       1.330014
	 R(3,4)           =         2.843414	       1.504670
	 R(3,5)           =         2.234331	       1.182357
	 R(4,6)           =         2.875742	       1.521777
	 R(4,7)           =         2.050791	       1.085232
	 R(4,8)           =         2.050782	       1.085227
	 R(6,9)           =         2.883495	       1.525880
	 R(6,10)          =         2.048793	       1.084175
	 R(6,11)          =         2.048782	       1.084169
	 R(9,12)          =         2.881367	       1.524754
	 R(9,13)          =         2.053781	       1.086814
	 R(9,14)          =         2.053768	       1.086807
	 R(12,15)         =         2.049722	       1.084666
	 R(12,16)         =         2.047968	       1.083738
	 R(12,17)         =         2.049740	       1.084676
	 B(1,2,3)         =         1.892917	     108.456154
	 B(2,3,4)         =         1.950444	     111.752201
	 B(2,3,5)         =         2.131732	     122.139260
	 B(3,4,6)         =         1.985544	     113.763297
	 B(3,4,7)         =         1.869301	     107.103072
	 B(3,4,8)         =         1.869227	     107.098803
	 B(4,3,5)         =         2.201004	     126.108243
	 B(4,6,9)         =         1.961019	     112.358114
	 B(4,6,10)        =         1.907068	     109.266964
	 B(4,6,11)        =         1.907067	     109.266904
	 B(6,4,7)         =         1.943103	     111.331579
	 B(6,4,8)         =         1.943122	     111.332716
	 B(6,9,12)        =         1.968851	     112.806881
	 B(6,9,13)        =         1.910380	     109.456738
	 B(6,9,14)        =         1.910387	     109.457140
	 B(7,4,8)         =         1.845984	     105.767071
	 B(9,6,10)        =         1.916816	     109.825448
	 B(9,6,11)        =         1.916805	     109.824829
	 B(9,12,15)       =         1.939230	     111.109713
	 B(9,12,16)       =         1.940582	     111.187155
	 B(9,12,17)       =         1.939231	     111.109739
	 B(10,6,11)       =         1.851828	     106.101927
	 B(12,9,13)       =         1.908237	     109.333939
	 B(12,9,14)       =         1.908244	     109.334309
	 B(13,9,14)       =         1.854215	     106.238682
	 B(15,12,16)      =         1.881489	     107.801399
	 B(15,12,17)      =         1.879181	     107.669120
	 B(16,12,17)      =         1.881463	     107.799873
	 D(1,2,3,4)       =        -3.139927	    -179.904547
	 D(1,2,3,5)       =        -0.001595	      -0.091415
	 D(2,3,4,6)       =         3.139863	     179.900923
	 D(2,3,4,7)       =         0.985111	      56.442724
	 D(2,3,4,8)       =        -0.988599	     -56.642546
	 D(3,4,6,9)       =         0.466295	      26.716737
	 D(3,4,6,10)      =         2.598356	     148.874835
	 D(3,4,6,11)      =        -1.665752	     -95.440531
	 D(4,6,9,12)      =        -3.141418	    -179.989994
	 D(4,6,9,13)      =         1.013012	      58.041297
	 D(4,6,9,14)      =        -1.012649	     -58.020524
	 D(5,3,4,6)       =         0.001689	       0.096777
	 D(5,3,4,7)       =        -2.153063	    -123.361422
	 D(5,3,4,8)       =         2.156412	     123.553308
	 D(6,9,12,15)     =        -1.045360	     -59.894698
	 D(6,9,12,16)     =        -3.141040	    -179.968307
	 D(6,9,12,17)     =         1.046499	      59.959997
	 D(7,4,6,9)       =         2.580328	     147.841882
	*D(7,4,6,10)      =        -1.570797	     -90.000020
	 D(7,4,6,11)      =         0.448281	      25.684614
	 D(8,4,6,9)       =        -1.647655	     -94.403671
	 D(8,4,6,10)      =         0.484406	      27.754427
	 D(8,4,6,11)      =         2.503484	     143.439061
	 D(10,6,9,12)     =         1.015245	      58.169225
	 D(10,6,9,13)     =        -1.113511	     -63.799484
	 D(10,6,9,14)     =        -3.139172	    -179.861304
	 D(11,6,9,12)     =        -1.014904	     -58.149728
	 D(11,6,9,13)     =         3.139526	     179.881563
	 D(11,6,9,14)     =         1.113865	      63.819742
	 D(13,9,12,15)    =         1.084603	      62.143189
	 D(13,9,12,16)    =        -1.011077	     -57.930420
	 D(13,9,12,17)    =        -3.106723	    -178.002115
	 D(14,9,12,15)    =         3.107849	     178.066636
	 D(14,9,12,16)    =         1.012169	      57.993027
	 D(14,9,12,17)    =        -1.083477	     -62.078669
	 R(5,9)           =         4.696203	       2.485124

	Current energy   :      -345.0203619044

	Generating empirical Hessian (Schlegel '84) for each fragment.
	Taking RFO optimization step.
	Going to follow RFO solution 1.
	Using RFO vector 1.

	Determining step-restricting scale parameter for RS-RFO.
	Maximum step size allowed    0.50000

	 Iter      |step|        alpha        rfo_root  
	------------------------------------------------
	    0     0.67523       1.00000           1
	    1     0.55204       1.71561           1
	    2     0.50692       2.13675           1
	    3     0.50015       2.21098           1
	    4     0.50000       2.21268           1
	------------------------------------------------
	Norm of target step-size    0.50000
	Projected energy change by RFO approximation:        -0.0246231738

	Back-transformation to cartesian coordinates...
	Successfully converged to displaced geometry.

	Back-transformation to cartesian coordinates to adjust frozen coordinates...
	Successfully converged to displaced geometry.

	--- Internal Coordinate Step in ANG or DEG, aJ/ANG or AJ/DEG ---
	 ---------------------------------------------------------------------------
	   Coordinate                Previous        Force       Change         New 
	   ----------                --------       ------       ------       ------
	    1 R(1,2)          =      0.945367     0.000764     0.000075     0.945441
	    2 R(2,3)          =      1.330014    -0.007514    -0.000726     1.329288
	    3 R(3,4)          =      1.504670    -0.078606    -0.009368     1.495302
	    4 R(3,5)          =      1.182357    -0.071624    -0.003831     1.178526
	    5 R(4,6)          =      1.521777     0.084500     0.018814     1.540591
	    6 R(4,7)          =      1.085232    -0.008538    -0.001294     1.083938
	    7 R(4,8)          =      1.085227    -0.005184    -0.000786     1.084441
	    8 R(6,9)          =      1.525880     0.056782     0.010128     1.536008
	    9 R(6,10)         =      1.084175     0.003742     0.000565     1.084740
	   10 R(6,11)         =      1.084169     0.006849     0.001035     1.085204
	   11 R(9,12)         =      1.524754     0.019911     0.003464     1.528218
	   12 R(9,13)         =      1.086814     0.002527     0.000385     1.087199
	   13 R(9,14)         =      1.086807    -0.202192    -0.030781     1.056026
	   14 R(12,15)        =      1.084666     0.014775     0.002236     1.086902
	   15 R(12,16)        =      1.083738    -0.000099    -0.000015     1.083723
	   16 R(12,17)        =      1.084676     0.005159     0.000781     1.085457
	   17 B(1,2,3)        =    108.456154    -0.000003    -0.055799   108.400355
	   18 B(2,3,4)        =    111.752201     0.000369     0.420591   112.172792
	   19 B(2,3,5)        =    122.139260     0.000407     0.499181   122.638441
	   20 B(3,4,6)        =    113.763297     0.000338     2.917192   116.680490
	   21 B(3,4,7)        =    107.103072    -0.000074    -0.838518   106.264554
	   22 B(3,4,8)        =    107.098803    -0.000360    -1.955991   105.142812
	   23 B(4,3,5)        =    126.108243    -0.000776    -0.935087   125.173155
	   24 B(4,6,9)        =    112.358114     0.001652     5.799460   118.157574
	   25 B(4,6,10)       =    109.266964    -0.000879    -3.364777   105.902186
	   26 B(4,6,11)       =    109.266904    -0.000087     0.408040   109.674944
	   27 B(6,4,7)        =    111.331579    -0.000031    -0.188877   111.142702
	   28 B(6,4,8)        =    111.332716     0.000053    -0.161152   111.171564
	   29 B(6,9,12)       =    112.806881    -0.000837    -2.436221   110.370660
	   30 B(6,9,13)       =    109.456738     0.000222     0.509385   109.966123
	   31 B(6,9,14)       =    109.457140     0.000740     2.912712   112.369852
	   32 B(7,4,8)        =    105.767071     0.000039    -0.082413   105.684658
	   33 B(9,6,10)       =    109.825448    -0.000322    -1.361438   108.464010
	   34 B(9,6,11)       =    109.824829    -0.000749    -2.146535   107.678294
	   35 B(9,12,15)      =    111.109713     0.000305     1.103322   112.213035
	   36 B(9,12,16)      =    111.187155    -0.000099    -0.350395   110.836760
	   37 B(9,12,17)      =    111.109739    -0.000044    -0.154461   110.955278
	   38 B(10,6,11)      =    106.101927     0.000303     0.271887   106.373814
	   39 B(12,9,13)      =    109.333939     0.000103    -0.481552   108.852388
	   40 B(12,9,14)      =    109.334309    -0.000171    -1.029374   108.304936
	   41 B(13,9,14)      =    106.238682    -0.000010     0.615169   106.853850
	   42 B(15,12,16)     =    107.801399    -0.000086    -0.214720   107.586679
	   43 B(15,12,17)     =    107.669120    -0.000102    -0.280892   107.388228
	   44 B(16,12,17)     =    107.799873     0.000016    -0.142458   107.657414
	   45 D(1,2,3,4)      =   -179.904547    -0.000021    -0.774121  -180.678668
	   46 D(1,2,3,5)      =     -0.091415     0.000021     0.782107     0.690692
	   47 D(2,3,4,6)      =    179.900923     0.000012     0.507010   180.407933
	   48 D(2,3,4,7)      =     56.442724    -0.000017    -0.583905    55.858818
	   49 D(2,3,4,8)      =    -56.642546     0.000019     0.742754   -55.899792
	   50 D(3,4,6,9)      =     26.716737    -0.000047    -0.485690    26.231047
	   51 D(3,4,6,10)     =    148.874835    -0.000029    -0.907819   147.967016
	   52 D(3,4,6,11)     =    -95.440531    -0.000068    -2.188802   -97.629333
	   53 D(4,6,9,12)     =   -179.989994    -0.000116    -4.527407  -184.517401
	   54 D(4,6,9,13)     =     58.041297    -0.000052    -2.666519    55.374778
	   55 D(4,6,9,14)     =    -58.020524    -0.000175    -5.492314   -63.512838
	   56 D(5,3,4,6)      =      0.096777    -0.000033    -1.099550    -1.002773
	   57 D(5,3,4,7)      =   -123.361422    -0.000063    -2.190466  -125.551888
	   58 D(5,3,4,8)      =    123.553308    -0.000027    -0.863806   122.689502
	   59 D(6,9,12,15)    =    -59.894698     0.000035     0.871421   -59.023277
	   60 D(6,9,12,16)    =   -179.968307     0.000028     0.638268  -179.330039
	   61 D(6,9,12,17)    =     59.959997     0.000045     1.152587    61.112584
	   62 D(7,4,6,9)      =    147.841882    -0.000018     0.422130   148.264011
	   63 *D(7,4,6,10)    =    -90.000020     0.000000    -0.000000   -90.000020
	   64 D(7,4,6,11)     =     25.684614    -0.000040    -1.280982    24.403632
	   65 D(8,4,6,9)      =    -94.403671    -0.000004     0.094436   -94.309235
	   66 D(8,4,6,10)     =     27.754427     0.000014    -0.327694    27.426734
	   67 D(8,4,6,11)     =    143.439061    -0.000026    -1.608676   141.830386
	   68 D(10,6,9,12)    =     58.169225    -0.000064    -3.108104    55.061121
	   69 D(10,6,9,13)    =    -63.799484    -0.000000    -1.247216   -65.046700
	   70 D(10,6,9,14)    =   -179.861304    -0.000122    -4.073011  -183.934315
	   71 D(11,6,9,12)    =    -58.149728    -0.000005    -1.519825   -59.669554
	   72 D(11,6,9,13)    =    179.881563     0.000058     0.341063   180.222625
	   73 D(11,6,9,14)    =     63.819742    -0.000064    -2.484732    61.335010
	   74 D(13,9,12,15)   =     62.143189    -0.000013    -0.390898    61.752291
	   75 D(13,9,12,16)   =    -57.930420    -0.000020    -0.624052   -58.554471
	   76 D(13,9,12,17)   =   -178.002115    -0.000003    -0.109733  -178.111848
	   77 D(14,9,12,15)   =    178.066636    -0.000024    -0.487587   177.579048
	   78 D(14,9,12,16)   =     57.993027    -0.000031    -0.720741    57.272286
	   79 D(14,9,12,17)   =    -62.078669    -0.000014    -0.206422   -62.285091
	   80 R(5,9)          =      2.485124     0.407599     0.226749     2.711873
	 ---------------------------------------------------------------------------
	Successfully symmetrized geometry.

  ==> Convergence Check <==

  Measures of convergence in internal coordinates in au.
  Criteria marked as inactive (o), active & met (*), and active & unmet ( ).
  --------------------------------------------------------------------------------------------- ~
   Step     Total Energy     Delta E     MAX Force     RMS Force      MAX Disp      RMS Disp    ~
  --------------------------------------------------------------------------------------------- ~
    Convergence Criteria    1.00e-06 *    3.00e-04 *             o    1.20e-03 *             o  ~
  --------------------------------------------------------------------------------------------- ~
      1    -345.02036190   -3.45e+02      4.95e-02      7.82e-03 o    4.28e-01      5.59e-02 o  ~
  ---------------------------------------------------------------------------------------------

	Writing optimization data to binary file.
	Structure for next step:
	Cartesian Geometry (in Angstrom)
	    H    -2.2001998801  -2.3273526217   0.5557912837
	    O    -2.2860005257  -1.4579693383   0.1943076759
	    C    -1.1029586614  -0.8558585373   0.2641741357
	    C    -1.1392534184   0.5271606792  -0.3031592843
	    O    -0.1457640133  -1.3843384579   0.7039602189
	    C     0.1828126939   1.3178395559  -0.2834737317
	    H    -1.9186855439   1.0552713002   0.2339682768
	    H    -1.5095858955   0.4084603896  -1.3154718284
	    C     1.5000538985   0.5278113663  -0.2906365561
	    H     0.1603665150   1.9563016245  -1.1601285841
	    H     0.2000522964   1.9795049148   0.5765082445
	    C     2.6913583439   1.4806785084  -0.3816736612
	    H     1.5237689235  -0.1467010065  -1.1429699946
	    H     1.6165602893  -0.0671770311   0.5740053557
	    H     2.6569425816   2.0972662815  -1.2760960081
	    H     3.6247575717   0.9302980432  -0.3990935052
	    H     2.7195177924   2.1496951729   0.4726329524
			--------------------------
			 OPTKING Finished Execution 
			--------------------------

    Structure for next step:
    Molecular point group: c1
    Full point group: C1

    Geometry (in Angstrom), charge = 0, multiplicity = 1:

    H           -2.137649159438    -2.313710295737     0.560424539007
    O           -2.223449805086    -1.444327012341     0.198940931186
    C           -1.040407940767    -0.842216211316     0.268807390960
    C           -1.076702697709     0.540803005224    -0.298526028996
    O           -0.083213292674    -1.370696131911     0.708593474162
    C            0.245363414535     1.331481881926    -0.278840476395
    H           -1.856134823281     1.068913626190     0.238601532104
    H           -1.447035174855     0.422102715557    -1.310838573116
    C            1.562604619186     0.541453692334    -0.286003300783
    H            0.222917235679     1.969943950481    -1.155495328804
    H            0.262603017017     1.993147240812     0.581141499736
    C            2.753909064591     1.494320834386    -0.377040405930
    H            1.586319644126    -0.133058680534    -1.138336739268
    H            1.679111009934    -0.053534705137     0.578638610971
    H            2.719493302200     2.110908607533    -1.271462752788
    H            3.687308292314     0.943940369244    -0.394460249900
    H            2.782068513016     2.163337498942     0.477266207654

gradient() will perform analytic gradient computation.

*** tstart() called on cx1-27-3-1
*** at Sat Sep 10 17:09:26 2016


         ---------------------------------------------------------
                                   SCF
            by Justin Turney, Rob Parrish, and Andy Simmonett
                              RHF Reference
                        4 Threads,   2000 MiB Core
         ---------------------------------------------------------

  ==> Geometry <==

    Molecular point group: c1
    Full point group: C1

    Geometry (in Angstrom), charge = 0, multiplicity = 1:

       Center              X                  Y                   Z               Mass       
    ------------   -----------------  -----------------  -----------------  -----------------
           H         -2.137649159438    -2.313710295737     0.560424539007     1.007825032070
           O         -2.223449805086    -1.444327012341     0.198940931186    15.994914619560
           C         -1.040407940767    -0.842216211316     0.268807390960    12.000000000000
           C         -1.076702697709     0.540803005224    -0.298526028996    12.000000000000
           O         -0.083213292674    -1.370696131911     0.708593474162    15.994914619560
           C          0.245363414535     1.331481881926    -0.278840476395    12.000000000000
           H         -1.856134823281     1.068913626190     0.238601532104     1.007825032070
           H         -1.447035174855     0.422102715557    -1.310838573116     1.007825032070
           C          1.562604619186     0.541453692334    -0.286003300783    12.000000000000
           H          0.222917235679     1.969943950481    -1.155495328804     1.007825032070
           H          0.262603017017     1.993147240812     0.581141499736     1.007825032070
           C          2.753909064591     1.494320834386    -0.377040405930    12.000000000000
           H          1.586319644126    -0.133058680534    -1.138336739268     1.007825032070
           H          1.679111009934    -0.053534705137     0.578638610971     1.007825032070
           H          2.719493302200     2.110908607533    -1.271462752788     1.007825032070
           H          3.687308292314     0.943940369244    -0.394460249900     1.007825032070
           H          2.782068513016     2.163337498942     0.477266207654     1.007825032070

  Running in c1 symmetry.

  Rotational constants: A =      0.22302  B =      0.04461  C =      0.03858 [cm^-1]
  Rotational constants: A =   6685.93925  B =   1337.47404  C =   1156.46673 [MHz]
  Nuclear repulsion =  313.711023410481744

  Charge       = 0
  Multiplicity = 1
  Electrons    = 56
  Nalpha       = 28
  Nbeta        = 28

  ==> Algorithm <==

  SCF Algorithm Type is DF.
  DIIS enabled.
  MOM disabled.
  Fractional occupation disabled.
  Guess Type is READ.
  Energy threshold   = 1.00e-08
  Density threshold  = 1.00e-08
  Integral threshold = 0.00e+00

  ==> Primary Basis <==

  Basis Set: CC-PVTZ
    Number of shells: 130
    Number of basis function: 350
    Number of Cartesian functions: 395
    Spherical Harmonics?: true
    Max angular momentum: 3

  ==> Pre-Iterations <==

   -------------------------------------------------------
    Irrep   Nso     Nmo     Nalpha   Nbeta   Ndocc  Nsocc
   -------------------------------------------------------
     A        350     350       0       0       0       0
   -------------------------------------------------------
    Total     350     350      28      28      28       0
   -------------------------------------------------------

  ==> Integral Setup <==

  ==> DFJK: Density-Fitted J/K Matrices <==

    J tasked:                  Yes
    K tasked:                  Yes
    wK tasked:                  No
    OpenMP threads:              4
    Integrals threads:           4
    Memory (MB):              1430
    Algorithm:                Core
    Integral Cache:           NONE
    Schwarz Cutoff:          1E-12
    Fitting Condition:       1E-12

   => Auxiliary Basis Set <=

  Basis Set: 
    Number of shells: 275
    Number of basis function: 853
    Number of Cartesian functions: 1022
    Spherical Harmonics?: true
    Max angular momentum: 4

  Minimum eigenvalue in the overlap matrix is 2.9977527911E-04.
  Using Symmetric Orthogonalization.
  SCF Guess: Reading in previously saved MOs, projecting if necessary.

  Using orbitals from previous SCF, no projection.
  Recomputing DOCC and SOCC from number of alpha and beta electrons from previous calculation.
              A 
    DOCC [    28 ]

  ==> Iterations <==

                           Total Energy        Delta E     RMS |[F,P]|

   @DF-RHF iter   0:  -345.00648505651873   -3.45006e+02   1.15374e-03 
   @DF-RHF iter   1:  -345.03317011179308   -2.66851e-02   1.79673e-04 
   @DF-RHF iter   2:  -345.03553516572890   -2.36505e-03   6.78098e-05 DIIS
   @DF-RHF iter   3:  -345.03582247055101   -2.87305e-04   2.96113e-05 DIIS
   @DF-RHF iter   4:  -345.03588164142229   -5.91709e-05   8.79014e-06 DIIS
   @DF-RHF iter   5:  -345.03588650606730   -4.86465e-06   2.48413e-06 DIIS
   @DF-RHF iter   6:  -345.03588732406331   -8.17996e-07   8.33425e-07 DIIS
   @DF-RHF iter   7:  -345.03588743389753   -1.09834e-07   2.65217e-07 DIIS
   @DF-RHF iter   8:  -345.03588744408262   -1.01851e-08   9.00614e-08 DIIS
   @DF-RHF iter   9:  -345.03588744507408   -9.91463e-10   3.07464e-08 DIIS
   @DF-RHF iter  10:  -345.03588744520778   -1.33696e-10   9.35621e-09 DIIS

  ==> Post-Iterations <==

    Orbital Energies (a.u.)
    -----------------------

    Doubly Occupied:                                                      

       1A    -20.605463     2A    -20.538419     3A    -11.373280  
       4A    -11.239282     5A    -11.223611     6A    -11.201776  
       7A    -11.200444     8A     -1.480001     9A     -1.373018  
      10A     -1.083707    11A     -1.015695    12A     -0.911396  
      13A     -0.824624    14A     -0.788828    15A     -0.707668  
      16A     -0.685378    17A     -0.667497    18A     -0.626772  
      19A     -0.587896    20A     -0.582275    21A     -0.573037  
      22A     -0.532448    23A     -0.507932    24A     -0.491648  
      25A     -0.488161    26A     -0.467778    27A     -0.458565  
      28A     -0.431377  

    Virtual:                                                              

      29A      0.136460    30A      0.151528    31A      0.167626  
      32A      0.169217    33A      0.191975    34A      0.200967  
      35A      0.220778    36A      0.232780    37A      0.241646  
      38A      0.250895    39A      0.273514    40A      0.306179  
      41A      0.336315    42A      0.353985    43A      0.371523  
      44A      0.378879    45A      0.403137    46A      0.417514  
      47A      0.427239    48A      0.447030    49A      0.455258  
      50A      0.482619    51A      0.485570    52A      0.496294  
      53A      0.522693    54A      0.577080    55A      0.580844  
      56A      0.592382    57A      0.595297    58A      0.612424  
      59A      0.619366    60A      0.635246    61A      0.642403  
      62A      0.645390    63A      0.661237    64A      0.665526  
      65A      0.678596    66A      0.689418    67A      0.694039  
      68A      0.700779    69A      0.704368    70A      0.727852  
      71A      0.754215    72A      0.763231    73A      0.799519  
      74A      0.817337    75A      0.821318    76A      0.841371  
      77A      0.865939    78A      0.882460    79A      0.913419  
      80A      0.916496    81A      0.931800    82A      0.940033  
      83A      0.954196    84A      0.972239    85A      1.011943  
      86A      1.043592    87A      1.058067    88A      1.083599  
      89A      1.098349    90A      1.108630    91A      1.133627  
      92A      1.146932    93A      1.175520    94A      1.204452  
      95A      1.224886    96A      1.238840    97A      1.252436  
      98A      1.275832    99A      1.302139   100A      1.306735  
     101A      1.321087   102A      1.333011   103A      1.345079  
     104A      1.355191   105A      1.356699   106A      1.373072  
     107A      1.379512   108A      1.403638   109A      1.413520  
     110A      1.418759   111A      1.426949   112A      1.442668  
     113A      1.469357   114A      1.495795   115A      1.521927  
     116A      1.536903   117A      1.546150   118A      1.551132  
     119A      1.562506   120A      1.566614   121A      1.597643  
     122A      1.608738   123A      1.635158   124A      1.658810  
     125A      1.677708   126A      1.687598   127A      1.716380  
     128A      1.744944   129A      1.764813   130A      1.778310  
     131A      1.811960   132A      1.835476   133A      1.850427  
     134A      1.854220   135A      1.876439   136A      1.926373  
     137A      1.945704   138A      2.013806   139A      2.037205  
     140A      2.060548   141A      2.106360   142A      2.246955  
     143A      2.291672   144A      2.323263   145A      2.352938  
     146A      2.399428   147A      2.457173   148A      2.484620  
     149A      2.553845   150A      2.568025   151A      2.614782  
     152A      2.645864   153A      2.681218   154A      2.694026  
     155A      2.701394   156A      2.712958   157A      2.762347  
     158A      2.780783   159A      2.817967   160A      2.826602  
     161A      2.838559   162A      2.871419   163A      2.878824  
     164A      2.916039   165A      2.938306   166A      2.939580  
     167A      2.975538   168A      2.982761   169A      3.002098  
     170A      3.021899   171A      3.037582   172A      3.041458  
     173A      3.075713   174A      3.120005   175A      3.135543  
     176A      3.157432   177A      3.173377   178A      3.195226  
     179A      3.215830   180A      3.233315   181A      3.253399  
     182A      3.260282   183A      3.266687   184A      3.280593  
     185A      3.322311   186A      3.327383   187A      3.345232  
     188A      3.369422   189A      3.379674   190A      3.394449  
     191A      3.419017   192A      3.421014   193A      3.428528  
     194A      3.446973   195A      3.457938   196A      3.461513  
     197A      3.484393   198A      3.489129   199A      3.522898  
     200A      3.533742   201A      3.549518   202A      3.567536  
     203A      3.573942   204A      3.590729   205A      3.608245  
     206A      3.621770   207A      3.640217   208A      3.645820  
     209A      3.679391   210A      3.714573   211A      3.728344  
     212A      3.749501   213A      3.759856   214A      3.782980  
     215A      3.798719   216A      3.809558   217A      3.816909  
     218A      3.839790   219A      3.856381   220A      3.888839  
     221A      3.903505   222A      3.910148   223A      3.941991  
     224A      3.962047   225A      3.975513   226A      3.992763  
     227A      4.020626   228A      4.023724   229A      4.054908  
     230A      4.072838   231A      4.088859   232A      4.115738  
     233A      4.131547   234A      4.157839   235A      4.173867  
     236A      4.179817   237A      4.194714   238A      4.203269  
     239A      4.207457   240A      4.223350   241A      4.229145  
     242A      4.243144   243A      4.250346   244A      4.283196  
     245A      4.319990   246A      4.336131   247A      4.356858  
     248A      4.363640   249A      4.391857   250A      4.403488  
     251A      4.431115   252A      4.435270   253A      4.451340  
     254A      4.463517   255A      4.487857   256A      4.519196  
     257A      4.533778   258A      4.553886   259A      4.561491  
     260A      4.586442   261A      4.594751   262A      4.612506  
     263A      4.628007   264A      4.651114   265A      4.664183  
     266A      4.675193   267A      4.684883   268A      4.697533  
     269A      4.732237   270A      4.751317   271A      4.783690  
     272A      4.807377   273A      4.838945   274A      4.870871  
     275A      4.916723   276A      4.939227   277A      5.000640  
     278A      5.010326   279A      5.028089   280A      5.083508  
     281A      5.133285   282A      5.140879   283A      5.190185  
     284A      5.209625   285A      5.223187   286A      5.252151  
     287A      5.260650   288A      5.286347   289A      5.325879  
     290A      5.351797   291A      5.359941   292A      5.388825  
     293A      5.422178   294A      5.428498   295A      5.472963  
     296A      5.517943   297A      5.566547   298A      5.570989  
     299A      5.596795   300A      5.627718   301A      5.647499  
     302A      5.673903   303A      5.694699   304A      5.729369  
     305A      5.738530   306A      5.761032   307A      5.799842  
     308A      5.807844   309A      5.825291   310A      5.870214  
     311A      5.897884   312A      5.931898   313A      5.938741  
     314A      5.942783   315A      5.981675   316A      6.034389  
     317A      6.055981   318A      6.088213   319A      6.108413  
     320A      6.265649   321A      6.285633   322A      6.331516  
     323A      6.344791   324A      6.403010   325A      6.464258  
     326A      6.530310   327A      6.660010   328A      6.809152  
     329A      6.832745   330A      6.919069   331A      7.043695  
     332A      7.049813   333A      7.089779   334A      7.106897  
     335A      7.216147   336A      7.282782   337A      7.320489  
     338A      7.416868   339A      7.511603   340A      7.643335  
     341A      7.764923   342A      7.881497   343A      8.041427  
     344A      9.940574   345A     12.821425   346A     13.287277  
     347A     13.710554   348A     13.967020   349A     14.212151  
     350A     14.539438  

    Final Occupation by Irrep:
              A 
    DOCC [    28 ]

  Energy converged.

  @DF-RHF Final Energy:  -345.03588744520778

   => Energetics <=

    Nuclear Repulsion Energy =            313.7110234104817437
    One-Electron Energy =               -1092.1578721926384787
    Two-Electron Energy =                 433.4109613369488443
    DFT Exchange-Correlation Energy =       0.0000000000000000
    Empirical Dispersion Energy =           0.0000000000000000
    PCM Polarization Energy =               0.0000000000000000
    EFP Energy =                            0.0000000000000000
    Total Energy =                       -345.0358874452078908


  Saving occupied orbitals to File 180.

*** tstop() called on cx1-27-3-1 at Sat Sep 10 17:09:34 2016
Module time:
	user time   =      25.49 seconds =       0.42 minutes
	system time =       0.53 seconds =       0.01 minutes
	total time  =          8 seconds =       0.13 minutes
Total time:
	user time   =      88.17 seconds =       1.47 minutes
	system time =       1.96 seconds =       0.03 minutes
	total time  =         26 seconds =       0.43 minutes


Properties will be evaluated at   0.000000,   0.000000,   0.000000 Bohr

Properties computed using the SCF density matrix

  Nuclear Dipole Moment: (a.u.)
     X:     7.0190      Y:     7.6475      Z:    -2.6529

  Electronic Dipole Moment: (a.u.)
     X:    -7.5720      Y:    -7.4534      Z:     2.4568

  Dipole Moment: (a.u.)
     X:    -0.5530      Y:     0.1941      Z:    -0.1961     Total:     0.6180

  Dipole Moment: (Debye)
     X:    -1.4055      Y:     0.4934      Z:    -0.4984     Total:     1.5707


*** tstart() called on cx1-27-3-1
*** at Sat Sep 10 17:09:34 2016


         ------------------------------------------------------------
                                   SCF GRAD                          
                          Rob Parrish, Justin Turney,                
                       Andy Simmonett, and Alex Sokolov              
         ------------------------------------------------------------

  ==> Geometry <==

    Molecular point group: c1
    Full point group: C1

    Geometry (in Angstrom), charge = 0, multiplicity = 1:

       Center              X                  Y                   Z               Mass       
    ------------   -----------------  -----------------  -----------------  -----------------
           H         -2.137649159438    -2.313710295737     0.560424539007     1.007825032070
           O         -2.223449805086    -1.444327012341     0.198940931186    15.994914619560
           C         -1.040407940767    -0.842216211316     0.268807390960    12.000000000000
           C         -1.076702697709     0.540803005224    -0.298526028996    12.000000000000
           O         -0.083213292674    -1.370696131911     0.708593474162    15.994914619560
           C          0.245363414535     1.331481881926    -0.278840476395    12.000000000000
           H         -1.856134823281     1.068913626190     0.238601532104     1.007825032070
           H         -1.447035174855     0.422102715557    -1.310838573116     1.007825032070
           C          1.562604619186     0.541453692334    -0.286003300783    12.000000000000
           H          0.222917235679     1.969943950481    -1.155495328804     1.007825032070
           H          0.262603017017     1.993147240812     0.581141499736     1.007825032070
           C          2.753909064591     1.494320834386    -0.377040405930    12.000000000000
           H          1.586319644126    -0.133058680534    -1.138336739268     1.007825032070
           H          1.679111009934    -0.053534705137     0.578638610971     1.007825032070
           H          2.719493302200     2.110908607533    -1.271462752788     1.007825032070
           H          3.687308292314     0.943940369244    -0.394460249900     1.007825032070
           H          2.782068513016     2.163337498942     0.477266207654     1.007825032070

  Nuclear repulsion =  313.711023410481744

  ==> Basis Set <==

  Basis Set: CC-PVTZ
    Number of shells: 130
    Number of basis function: 350
    Number of Cartesian functions: 395
    Spherical Harmonics?: true
    Max angular momentum: 3

  ==> DFJKGrad: Density-Fitted SCF Gradients <==

    Gradient:                    1
    J tasked:                  Yes
    K tasked:                  Yes
    wK tasked:                  No
    OpenMP threads:              4
    Integrals threads:           4
    Memory (MB):              1430
    Schwarz Cutoff:          0E+00
    Fitting Condition:       1E-12

   => Auxiliary Basis Set <=

  Basis Set: 
    Number of shells: 275
    Number of basis function: 853
    Number of Cartesian functions: 1022
    Spherical Harmonics?: true
    Max angular momentum: 4


  -Total Gradient:
     Atom            X                  Y                   Z
    ------   -----------------  -----------------  -----------------
       1        0.000033650586    -0.000038374301     0.000087677463
       2        0.000300558213    -0.000018361455    -0.000890120902
       3       -0.001112726409    -0.002031922781     0.001444173683
       4        0.000369549482    -0.001049344183     0.001347513858
       5        0.004310689780     0.014606318593    -0.008571667252
       6       -0.000202119658     0.003473108484    -0.002561673747
       7        0.000168031804    -0.001806941713     0.001849361660
       8       -0.000329675429    -0.001264554064     0.000686006322
       9       -0.005601964674    -0.016435092165     0.019243867078
      10       -0.001788568463    -0.002087832235    -0.001607581999
      11        0.001961374326     0.000663561725    -0.000272944656
      12       -0.000024728017    -0.001691403971     0.002655342754
      13        0.000706191803     0.000347577526    -0.001200276786
      14        0.001445132221     0.006495897743    -0.011264263851
      15        0.000199910181     0.000733013835    -0.000474101904
      16       -0.000209741700     0.000076543236    -0.000230828217
      17       -0.000225564049     0.000027805722    -0.000240483503


*** tstop() called on cx1-27-3-1 at Sat Sep 10 17:09:42 2016
Module time:
	user time   =      31.04 seconds =       0.52 minutes
	system time =       0.65 seconds =       0.01 minutes
	total time  =          8 seconds =       0.13 minutes
Total time:
	user time   =     119.37 seconds =       1.99 minutes
	system time =       2.61 seconds =       0.04 minutes
	total time  =         34 seconds =       0.57 minutes

			-----------------------------------------
			 OPTKING 2.0: for geometry optimizations 
			  - R.A. King,  Bethel University        
			-----------------------------------------

	Previous internal coordinate definitions found.
	---Fragment 1 Geometry and Gradient---
	 H          -4.0395714795       -4.3722788098        1.0590488969
	 O          -4.2017112018       -2.7293824997        0.3759438766
	 C          -1.9660860745       -1.5915579841        0.5079723514
	 C          -2.0346732252        1.0219695717       -0.5641324383
	 O          -0.1572503338       -2.5902403007        1.3390476057
	 C           0.4636696565        2.5161361077       -0.5269321352
	 H          -3.5075864817        2.0199540132        0.4508915506
	 H          -2.7345001851        0.7976585324       -2.4771259076
	 C           2.9528947842        1.0231991922       -0.5404679116
	 H           0.4212525257        3.7226545635       -2.1835697193
	 H           0.4962477838        3.7665024277        1.0981982790
	 C           5.2041339269        2.8238571317       -0.7125031082
	 H           2.9977096866       -0.2514444658       -2.1511446842
	 H           3.1730599555       -0.1011659313        1.0934685046
	 H           5.1390975614        3.9890391598       -2.4027163909
	 H           6.9680028400        1.7837887836       -0.7454218426
	 H           5.2573475725        4.0881154060        0.9019024249
	             0.0000336506       -0.0000383743        0.0000876775
	             0.0003005582       -0.0000183615       -0.0008901209
	            -0.0011127264       -0.0020319228        0.0014441737
	             0.0003695495       -0.0010493442        0.0013475139
	             0.0043106898        0.0146063186       -0.0085716673
	            -0.0002021197        0.0034731085       -0.0025616737
	             0.0001680318       -0.0018069417        0.0018493617
	            -0.0003296754       -0.0012645541        0.0006860063
	            -0.0056019647       -0.0164350922        0.0192438671
	            -0.0017885685       -0.0020878322       -0.0016075820
	             0.0019613743        0.0006635617       -0.0002729447
	            -0.0000247280       -0.0016914040        0.0026553428
	             0.0007061918        0.0003475775       -0.0012002768
	             0.0014451322        0.0064958977       -0.0112642639
	             0.0001999102        0.0007330138       -0.0004741019
	            -0.0002097417        0.0000765432       -0.0002308282
	            -0.0002255640        0.0000278057       -0.0002404835

	---Fragment 1 Intrafragment Coordinates---
	 - Coordinate -           - BOHR/RAD -       - ANG/DEG -
	 R(1,2)           =         1.786625	       0.945441
	 R(2,3)           =         2.511990	       1.329288
	 R(3,4)           =         2.825710	       1.495302
	 R(3,5)           =         2.227092	       1.178526
	 R(4,6)           =         2.911294	       1.540591
	 R(4,7)           =         2.048346	       1.083938
	 R(4,8)           =         2.049297	       1.084441
	 R(6,9)           =         2.902634	       1.536008
	 R(6,10)          =         2.049862	       1.084740
	 R(6,11)          =         2.050738	       1.085204
	 R(9,12)          =         2.887913	       1.528218
	 R(9,13)          =         2.054508	       1.087199
	 R(9,14)          =         1.995600	       1.056026
	 R(12,15)         =         2.053947	       1.086902
	 R(12,16)         =         2.047940	       1.083723
	 R(12,17)         =         2.051216	       1.085457
	 B(1,2,3)         =         1.891943	     108.400355
	 B(2,3,4)         =         1.957785	     112.172792
	 B(2,3,5)         =         2.140445	     122.638441
	 B(3,4,6)         =         2.036459	     116.680490
	 B(3,4,7)         =         1.854666	     106.264554
	 B(3,4,8)         =         1.835088	     105.142812
	 B(4,3,5)         =         2.184684	     125.173155
	 B(4,6,9)         =         2.062239	     118.157574
	 B(4,6,10)        =         1.848342	     105.902186
	 B(4,6,11)        =         1.914189	     109.674944
	 B(6,4,7)         =         1.939806	     111.142702
	 B(6,4,8)         =         1.940310	     111.171564
	 B(6,9,12)        =         1.926331	     110.370660
	 B(6,9,13)        =         1.919271	     109.966123
	 B(6,9,14)        =         1.961224	     112.369852
	 B(7,4,8)         =         1.844545	     105.684658
	 B(9,6,10)        =         1.893054	     108.464010
	 B(9,6,11)        =         1.879341	     107.678294
	 B(9,12,15)       =         1.958487	     112.213035
	 B(9,12,16)       =         1.934466	     110.836760
	 B(9,12,17)       =         1.936535	     110.955278
	 B(10,6,11)       =         1.856573	     106.373814
	 B(12,9,13)       =         1.899833	     108.852388
	 B(12,9,14)       =         1.890278	     108.304936
	 B(13,9,14)       =         1.864952	     106.853850
	 B(15,12,16)      =         1.877742	     107.586679
	 B(15,12,17)      =         1.874278	     107.388228
	 B(16,12,17)      =         1.878976	     107.657414
	 D(1,2,3,4)       =         3.129748	     179.321332
	 D(1,2,3,5)       =         0.012055	       0.690692
	 D(2,3,4,6)       =        -3.134473	    -179.592067
	 D(2,3,4,7)       =         0.974920	      55.858818
	 D(2,3,4,8)       =        -0.975635	     -55.899792
	 D(3,4,6,9)       =         0.457818	      26.231047
	 D(3,4,6,10)      =         2.582512	     147.967016
	 D(3,4,6,11)      =        -1.703953	     -97.629333
	 D(4,6,9,12)      =         3.062749	     175.482599
	 D(4,6,9,13)      =         0.966472	      55.374778
	 D(4,6,9,14)      =        -1.108508	     -63.512838
	 D(5,3,4,6)       =        -0.017502	      -1.002773
	 D(5,3,4,7)       =        -2.191294	    -125.551888
	 D(5,3,4,8)       =         2.141336	     122.689502
	 D(6,9,12,15)     =        -1.030151	     -59.023277
	 D(6,9,12,16)     =        -3.129900	    -179.330039
	 D(6,9,12,17)     =         1.066616	      61.112584
	 D(7,4,6,9)       =         2.587695	     148.264011
	*D(7,4,6,10)      =        -1.570797	     -90.000020
	 D(7,4,6,11)      =         0.425924	      24.403632
	 D(8,4,6,9)       =        -1.646007	     -94.309235
	 D(8,4,6,10)      =         0.478687	      27.426734
	 D(8,4,6,11)      =         2.475407	     141.830386
	 D(10,6,9,12)     =         0.960998	      55.061121
	 D(10,6,9,13)     =        -1.135279	     -65.046700
	 D(10,6,9,14)     =         3.072926	     176.065685
	 D(11,6,9,12)     =        -1.041430	     -59.669554
	 D(11,6,9,13)     =        -3.137707	    -179.777375
	 D(11,6,9,14)     =         1.070498	      61.335010
	 D(13,9,12,15)    =         1.077781	      61.752291
	 D(13,9,12,16)    =        -1.021968	     -58.554471
	 D(13,9,12,17)    =        -3.108638	    -178.111848
	 D(14,9,12,15)    =         3.099339	     177.579048
	 D(14,9,12,16)    =         0.999590	      57.272286
	 D(14,9,12,17)    =        -1.087080	     -62.285091
	 R(5,9)           =         5.124698	       2.711873

	Current energy   :      -345.0358874452

	Energy change for the previous step:
		Projected    :        -0.0246231738
		Actual       :        -0.0155255408

	Performing BFGS update.
	Previous computed or guess Hessian on step 1.
	Steps to be used in Hessian update: 1
	Taking RFO optimization step.
	Going to follow RFO solution 1.
	Using RFO vector 1.
	Norm of target step-size    0.37855
	Projected energy change by RFO approximation:        -0.0094909555

	Back-transformation to cartesian coordinates...
	Successfully converged to displaced geometry.

	Back-transformation to cartesian coordinates to adjust frozen coordinates...
	Successfully converged to displaced geometry.

	--- Internal Coordinate Step in ANG or DEG, aJ/ANG or AJ/DEG ---
	 ---------------------------------------------------------------------------
	   Coordinate                Previous        Force       Change         New 
	   ----------                --------       ------       ------       ------
	    1 R(1,2)          =      0.945441    -0.000592    -0.000074     0.945368
	    2 R(2,3)          =      1.329288     0.001891     0.000254     1.329542
	    3 R(3,4)          =      1.495302     0.043972     0.011843     1.507145
	    4 R(3,5)          =      1.178526     0.055346     0.003527     1.182053
	    5 R(4,6)          =      1.540591    -0.023833    -0.004466     1.536125
	    6 R(4,7)          =      1.083938     0.000698     0.000204     1.084142
	    7 R(4,8)          =      1.084441     0.003208     0.000672     1.085113
	    8 R(6,9)          =      1.536008    -0.033226    -0.008182     1.527826
	    9 R(6,10)         =      1.084740    -0.000884    -0.000203     1.084538
	   10 R(6,11)         =      1.085204    -0.001808    -0.000408     1.084796
	   11 R(9,12)         =      1.528218     0.006897     0.001412     1.529630
	   12 R(9,13)         =      1.087199    -0.006103    -0.001228     1.085971
	   13 R(9,14)         =      1.056026     0.104824     0.022329     1.078355
	   14 R(12,15)        =      1.086902    -0.006588    -0.001409     1.085493
	   15 R(12,16)        =      1.083723     0.001778     0.000349     1.084072
	   16 R(12,17)        =      1.085457     0.001466     0.000248     1.085705
	   17 B(1,2,3)        =    108.400355     0.000006     0.022161   108.422516
	   18 B(2,3,4)        =    112.172792    -0.000232    -0.934090   111.238701
	   19 B(2,3,5)        =    122.638441    -0.000258    -1.270425   121.368016
	   20 B(3,4,6)        =    116.680490     0.000004     0.660327   117.340817
	   21 B(3,4,7)        =    106.264554     0.000018    -0.992043   105.272511
	   22 B(3,4,8)        =    105.142812     0.000111     1.227573   106.370385
	   23 B(4,3,5)        =    125.173155     0.000492     2.002007   127.175163
	   24 B(4,6,9)        =    118.157574    -0.000148    -0.620265   117.537308
	   25 B(4,6,10)       =    105.902186     0.000174     0.836844   106.739031
	   26 B(4,6,11)       =    109.674944    -0.000058    -0.137925   109.537020
	   27 B(6,4,7)        =    111.142702    -0.000058    -1.033525   110.109177
	   28 B(6,4,8)        =    111.171564    -0.000070    -0.188497   110.983068
	   29 B(6,9,12)       =    110.370660     0.000027     0.320886   110.691546
	   30 B(6,9,13)       =    109.966123     0.000023    -0.023777   109.942346
	   31 B(6,9,14)       =    112.369852    -0.000193    -1.792264   110.577587
	   32 B(7,4,8)        =    105.684658     0.000005     0.359738   106.044396
	   33 B(9,6,10)       =    108.464010    -0.000128    -2.070172   106.393838
	   34 B(9,6,11)       =    107.678294     0.000196     1.492885   109.171179
	   35 B(9,12,15)      =    112.213035    -0.000038    -0.257549   111.955486
	   36 B(9,12,16)      =    110.836760     0.000004     0.063778   110.900539
	   37 B(9,12,17)      =    110.955278     0.000016     0.108594   111.063872
	   38 B(10,6,11)      =    106.373814    -0.000033     0.534335   106.908149
	   39 B(12,9,13)      =    108.852388    -0.000035     0.202695   109.055083
	   40 B(12,9,14)      =    108.304936     0.000171     1.440906   109.745842
	   41 B(13,9,14)      =    106.853850     0.000011    -0.116893   106.736957
	   42 B(15,12,16)     =    107.586679     0.000015     0.034863   107.621542
	   43 B(15,12,17)     =    107.388228     0.000020     0.173830   107.562058
	   44 B(16,12,17)     =    107.657414    -0.000016    -0.118505   107.538910
	   45 D(1,2,3,4)      =    179.321332     0.000008     3.021735   182.343067
	   46 D(1,2,3,5)      =      0.690692    -0.000010    -3.348027    -2.657335
	   47 D(2,3,4,6)      =   -179.592067    -0.000013    -3.618776  -183.210843
	   48 D(2,3,4,7)      =     55.858818     0.000001    -1.916572    53.942246
	   49 D(2,3,4,8)      =    -55.899792    -0.000013    -2.418347   -58.318139
	   50 D(3,4,6,9)      =     26.231047     0.000034     4.143814    30.374861
	   51 D(3,4,6,10)     =    147.967016     0.000005     1.695578   149.662593
	   52 D(3,4,6,11)     =    -97.629333     0.000011     2.695014   -94.934319
	   53 D(4,6,9,12)     =    175.482599    -0.000019    -4.957823   170.524776
	   54 D(4,6,9,13)     =     55.374778    -0.000016    -5.400052    49.974725
	   55 D(4,6,9,14)     =    -63.512838     0.000006    -4.121958   -67.634796
	   56 D(5,3,4,6)      =     -1.002773     0.000003     3.151368     2.148596
	   57 D(5,3,4,7)      =   -125.551888     0.000016     4.853573  -120.698315
	   58 D(5,3,4,8)      =    122.689502     0.000002     4.351798   127.041299
	   59 D(6,9,12,15)    =    -59.023277    -0.000012    -0.821791   -59.845068
	   60 D(6,9,12,16)    =   -179.330039    -0.000011    -0.735719  -180.065757
	   61 D(6,9,12,17)    =     61.112584    -0.000009    -0.700025    60.412559
	   62 D(7,4,6,9)      =    148.264011     0.000029     2.448237   150.712248
	   63 *D(7,4,6,10)    =    -90.000020     0.000000    -0.000000   -90.000020
	   64 D(7,4,6,11)     =     24.403632     0.000006     0.999436    25.403068
	   65 D(8,4,6,9)      =    -94.309235     0.000012     2.128131   -92.181104
	   66 D(8,4,6,10)     =     27.426734    -0.000017    -0.320106    27.106628
	   67 D(8,4,6,11)     =    141.830386    -0.000011     0.679330   142.509716
	   68 D(10,6,9,12)    =     55.061121    -0.000024    -4.006473    51.054648
	   69 D(10,6,9,13)    =    -65.046700    -0.000021    -4.448702   -69.495403
	   70 D(10,6,9,14)    =    176.065685     0.000000    -3.170608   172.895077
	   71 D(11,6,9,12)    =    -59.669554    -0.000024    -4.315665   -63.985218
	   72 D(11,6,9,13)    =   -179.777375    -0.000021    -4.757894  -184.535269
	   73 D(11,6,9,14)    =     61.335010     0.000001    -3.479800    57.855210
	   74 D(13,9,12,15)   =     61.752291    -0.000007    -0.520550    61.231741
	   75 D(13,9,12,16)   =    -58.554471    -0.000006    -0.434478   -58.988949
	   76 D(13,9,12,17)   =   -178.111848    -0.000004    -0.398784  -178.510633
	   77 D(14,9,12,15)   =    177.579048     0.000013     0.248311   177.827360
	   78 D(14,9,12,16)   =     57.272286     0.000014     0.334384    57.606670
	   79 D(14,9,12,17)   =    -62.285091     0.000016     0.370077   -61.915014
	   80 R(5,9)          =      2.711873     0.097215     0.105433     2.817306
	 ---------------------------------------------------------------------------
	Successfully symmetrized geometry.

  ==> Convergence Check <==

  Measures of convergence in internal coordinates in au.
  Criteria marked as inactive (o), active & met (*), and active & unmet ( ).
  ---------------------------------------------------------------------------------------------
   Step     Total Energy     Delta E     MAX Force     RMS Force      MAX Disp      RMS Disp   
  ---------------------------------------------------------------------------------------------
    Convergence Criteria    1.00e-06 *    3.00e-04 *             o    1.20e-03 *             o
  ---------------------------------------------------------------------------------------------
      2    -345.03588745   -1.55e-02      1.27e-02      2.56e-03 o    1.99e-01      4.23e-02 o  ~
  ---------------------------------------------------------------------------------------------

	Writing optimization data to binary file.
	Structure for next step:
	Cartesian Geometry (in Angstrom)
	    H    -2.2007468405  -2.2776701973   0.6001279940
	    O    -2.2468191168  -1.4178319321   0.2099032799
	    C    -1.0385857371  -0.8657999833   0.2657230021
	    C    -1.0520881326   0.5349269210  -0.2903945091
	    O    -0.1327935247  -1.4190090347   0.7860587786
	    C     0.2588690687   1.3328730236  -0.2244191822
	    H    -1.8313464542   1.0523026982   0.2577317067
	    H    -1.4071348696   0.4547226240  -1.3126368691
	    C     1.5677962251   0.5482927932  -0.2978832990
	    H     0.2576445398   2.0064877454  -1.0743978579
	    H     0.2632285376   1.9503403621   0.6674874342
	    C     2.7580261944   1.4961872287  -0.4547764192
	    H     1.5439317104  -0.1337004981  -1.1426611362
	    H     1.6974574675  -0.0561843481   0.5856573594
	    H     2.6825631009   2.0967240564  -1.3558620700
	    H     3.6888835684   0.9429399379  -0.5061083364
	    H     2.8282194817   2.1772089888   0.3878604542
			--------------------------
			 OPTKING Finished Execution 
			--------------------------

    Structure for next step:
    Molecular point group: c1
    Full point group: C1

    Geometry (in Angstrom), charge = 0, multiplicity = 1:

    H           -2.195339430126    -2.272381280711     0.590390516637
    O           -2.241411706443    -1.412543015561     0.200165802537
    C           -1.033178326676    -0.860511066750     0.255985524709
    C           -1.046680722244     0.540215837516    -0.300131986524
    O           -0.127386114304    -1.413720118127     0.776321301180
    C            0.264276479109     1.338161940177    -0.234156659601
    H           -1.825939043824     1.057591614755     0.247994229320
    H           -1.401727459224     0.460011540526    -1.322374346514
    C            1.573203635523     0.553581709765    -0.307620776395
    H            0.263051950254     2.011776661978    -1.084135335288
    H            0.268635947965     1.955629278670     0.657749956813
    C            2.763433604760     1.501476145301    -0.464513896545
    H            1.549339120770    -0.128411581579    -1.152398613554
    H            1.702864877858    -0.050895431523     0.575919881976
    H            2.687970511335     2.102012972989    -1.365599547330
    H            3.694290978796     0.948228854439    -0.515845813803
    H            2.833626892140     2.182497905314     0.378122976789

gradient() will perform analytic gradient computation.

*** tstart() called on cx1-27-3-1
*** at Sat Sep 10 17:09:43 2016


         ---------------------------------------------------------
                                   SCF
            by Justin Turney, Rob Parrish, and Andy Simmonett
                              RHF Reference
                        4 Threads,   2000 MiB Core
         ---------------------------------------------------------

  ==> Geometry <==

    Molecular point group: c1
    Full point group: C1

    Geometry (in Angstrom), charge = 0, multiplicity = 1:

       Center              X                  Y                   Z               Mass       
    ------------   -----------------  -----------------  -----------------  -----------------
           H         -2.195339430126    -2.272381280711     0.590390516637     1.007825032070
           O         -2.241411706443    -1.412543015561     0.200165802537    15.994914619560
           C         -1.033178326676    -0.860511066750     0.255985524709    12.000000000000
           C         -1.046680722244     0.540215837516    -0.300131986524    12.000000000000
[...]
	            -0.0000015994       -0.0000048428        0.0000040030

	---Fragment 1 Intrafragment Coordinates---
	 - Coordinate -           - BOHR/RAD -       - ANG/DEG -
	 R(1,2)           =         1.787429	       0.945866
	 R(2,3)           =         2.510369	       1.328430
	 R(3,4)           =         2.849913	       1.508109
	 R(3,5)           =         2.237077	       1.183810
	 R(4,6)           =         2.918915	       1.544623
	 R(4,7)           =         2.044335	       1.081816
	 R(4,8)           =         2.039734	       1.079381
	 R(6,9)           =         2.891543	       1.530139
	 R(6,10)          =         2.049353	       1.084471
	 R(6,11)          =         2.045320	       1.082336
	 R(9,12)          =         2.881774	       1.524969
	 R(9,13)          =         2.052588	       1.086183
	 R(9,14)          =         2.049321	       1.084454
	 R(12,15)         =         2.050169	       1.084903
	 R(12,16)         =         2.047666	       1.083578
	 R(12,17)         =         2.049924	       1.084773
	 B(1,2,3)         =         1.890572	     108.321772
	 B(2,3,4)         =         1.977506	     113.302729
	 B(2,3,5)         =         2.130079	     122.044511
	 B(3,4,6)         =         1.968006	     112.758431
	 B(3,4,7)         =         1.819305	     104.238483
	 B(3,4,8)         =         1.908263	     109.335389
	 B(4,3,5)         =         2.175601	     124.652748
	 B(4,6,9)         =         2.010541	     115.195517
	 B(4,6,10)        =         1.871847	     107.248921
	 B(4,6,11)        =         1.913601	     109.641260
	 B(6,4,7)         =         1.906579	     109.238935
	 B(6,4,8)         =         1.939949	     111.150891
	 B(6,9,12)        =         1.957367	     112.148877
	 B(6,9,13)        =         1.911078	     109.496718
	 B(6,9,14)        =         1.917664	     109.874063
	 B(7,4,8)         =         1.917869	     109.885791
	 B(9,6,10)        =         1.866211	     106.926014
	 B(9,6,11)        =         1.909552	     109.409290
	 B(9,12,15)       =         1.941930	     111.264406
	 B(9,12,16)       =         1.938454	     111.065215
	 B(9,12,17)       =         1.938979	     111.095325
	 B(10,6,11)       =         1.887725	     108.158649
	 B(12,9,13)       =         1.909613	     109.412774
	 B(12,9,14)       =         1.903386	     109.055973
	 B(13,9,14)       =         1.862272	     106.700339
	 B(15,12,16)      =         1.880885	     107.766773
	 B(15,12,17)      =         1.880487	     107.743941
	 B(16,12,17)      =         1.880423	     107.740292
	 D(1,2,3,4)       =         3.134173	     179.574905
	 D(1,2,3,5)       =        -0.006768	      -0.387781
	 D(2,3,4,6)       =        -1.874207	    -107.384158
	 D(2,3,4,7)       =         2.343099	     134.249655
	 D(2,3,4,8)       =         0.293245	      16.801709
	 D(3,4,6,9)       =         0.623463	      35.721792
	 D(3,4,6,10)      =         2.698307	     154.601618
	 D(3,4,6,11)      =        -1.539128	     -88.185541
	 D(4,6,9,12)      =         3.062041	     175.442010
	 D(4,6,9,13)      =         0.938766	      53.787336
	 D(4,6,9,14)      =        -1.101189	     -63.093487
	 D(5,3,4,6)       =         1.266714	      72.577393
	 D(5,3,4,7)       =        -0.799165	     -45.788794
	 D(5,3,4,8)       =        -2.849019	    -163.236741
	 D(6,9,12,15)     =        -1.053783	     -60.377311
	 D(6,9,12,16)     =         3.134105	     179.570998
	 D(6,9,12,17)     =         1.041364	      59.665742
	 D(7,4,6,9)       =         2.637544	     151.120154
	*D(7,4,6,10)      =        -1.570797	     -90.000020
	 D(7,4,6,11)      =         0.474953	      27.212821
	 D(8,4,6,9)       =        -1.526456	     -87.459478
	 D(8,4,6,10)      =         0.548389	      31.420348
	 D(8,4,6,11)      =         2.594139	     148.633189
	 D(10,6,9,12)     =         0.984067	      56.382886
	 D(10,6,9,13)     =        -1.139208	     -65.271788
	 D(10,6,9,14)     =         3.104023	     177.847389
	 D(11,6,9,12)     =        -1.056423	     -60.528555
	 D(11,6,9,13)     =         3.103488	     177.816770
	 D(11,6,9,14)     =         1.063533	      60.935948
	 D(13,9,12,15)    =         1.070330	      61.325414
	 D(13,9,12,16)    =        -1.024967	     -58.726277
	 D(13,9,12,17)    =        -3.117708	    -178.631533
	 D(14,9,12,15)    =         3.101276	     177.690000
	 D(14,9,12,16)    =         1.005978	      57.638309
	 D(14,9,12,17)    =        -1.086763	     -62.266947
	 R(5,9)           =         6.463119	       3.420135

	Current energy   :      -345.0424283344

	Energy change for the previous step:
		Projected    :         0.0000041124
		Actual       :        -0.0000005675

	Performing BFGS update.
	Previous computed or guess Hessian on step 1.
	Steps to be used in Hessian update: 17 16
	Taking RFO optimization step.
	Going to follow RFO solution 1.
	Rejecting RFO root 1 because normalization gives large value.
	Using RFO vector 2.
	Norm of target step-size    0.01037
	Projected energy change by RFO approximation:        -0.0000001867

	Back-transformation to cartesian coordinates...
	Could not converge backtransformation.
	Using first guess instead.

	Back-transformation to cartesian coordinates to adjust frozen coordinates...
	Successfully converged to displaced geometry.

	--- Internal Coordinate Step in ANG or DEG, aJ/ANG or AJ/DEG ---
	 ---------------------------------------------------------------------------
	   Coordinate                Previous        Force       Change         New 
	   ----------                --------       ------       ------       ------
	    1 R(1,2)          =      0.945866     0.000204     0.000018     0.945884
	    2 R(2,3)          =      1.328430    -0.000869    -0.000132     1.328299
	    3 R(3,4)          =      1.508109    -0.000068     0.000012     1.508121
	    4 R(3,5)          =      1.183810    -0.000981    -0.000036     1.183774
	    5 R(4,6)          =      1.544623    -0.000088    -0.000049     1.544574
	    6 R(4,7)          =      1.081816     0.000289     0.000077     1.081892
	    7 R(4,8)          =      1.079381    -0.000181    -0.000039     1.079342
	    8 R(6,9)          =      1.530139     0.000006    -0.000006     1.530133
	    9 R(6,10)         =      1.084471    -0.000018     0.000003     1.084474
	   10 R(6,11)         =      1.082336    -0.000005    -0.000004     1.082332
	   11 R(9,12)         =      1.524969    -0.000016    -0.000004     1.524964
	   12 R(9,13)         =      1.086183     0.000061     0.000035     1.086218
	   13 R(9,14)         =      1.084454    -0.000347    -0.000070     1.084384
	   14 R(12,15)        =      1.084903     0.000032     0.000005     1.084908
	   15 R(12,16)        =      1.083578    -0.000027    -0.000006     1.083572
	   16 R(12,17)        =      1.084773    -0.000000    -0.000001     1.084772
	   17 B(1,2,3)        =    108.321772     0.000002     0.011158   108.332930
	   18 B(2,3,4)        =    113.302729     0.000006     0.016694   113.319423
	   19 B(2,3,5)        =    122.044511    -0.000003    -0.005427   122.039084
	   20 B(3,4,6)        =    112.758431     0.000003     0.022185   112.780616
	   21 B(3,4,7)        =    104.238483    -0.000000    -0.012239   104.226243
	   22 B(3,4,8)        =    109.335389    -0.000001    -0.000363   109.335026
	   23 B(4,3,5)        =    124.652748    -0.000002    -0.011259   124.641490
	   24 B(4,6,9)        =    115.195517     0.000001    -0.003512   115.192004
	   25 B(4,6,10)       =    107.248921     0.000000     0.000716   107.249636
	   26 B(4,6,11)       =    109.641260    -0.000000     0.007132   109.648392
	   27 B(6,4,7)        =    109.238935    -0.000001    -0.004587   109.234348
	   28 B(6,4,8)        =    111.150891    -0.000000     0.003618   111.154510
	   29 B(6,9,12)       =    112.148877    -0.000001    -0.004091   112.144786
	   30 B(6,9,13)       =    109.496718     0.000000    -0.003498   109.493220
	   31 B(6,9,14)       =    109.874063     0.000001     0.003016   109.877079
	   32 B(7,4,8)        =    109.885791     0.000000    -0.010304   109.875487
	   33 B(9,6,10)       =    106.926014    -0.000001    -0.010976   106.915038
	   34 B(9,6,11)       =    109.409290    -0.000000     0.003404   109.412694
	   35 B(9,12,15)      =    111.264406     0.000002     0.008575   111.272981
	   36 B(9,12,16)      =    111.065215    -0.000000    -0.002013   111.063202
	   37 B(9,12,17)      =    111.095325     0.000000    -0.000680   111.094645
	   38 B(10,6,11)      =    108.158649     0.000000     0.003074   108.161723
	   39 B(12,9,13)      =    109.412774     0.000000    -0.003723   109.409051
	   40 B(12,9,14)      =    109.055973    -0.000000     0.002437   109.058411
	   41 B(13,9,14)      =    106.700339     0.000000     0.006380   106.706719
	   42 B(15,12,16)     =    107.766773    -0.000001    -0.001501   107.765272
	   43 B(15,12,17)     =    107.743941    -0.000001    -0.003277   107.740664
	   44 B(16,12,17)     =    107.740292    -0.000000    -0.001464   107.738828
	   45 D(1,2,3,4)      =    179.574905     0.000000     0.031039   179.605944
	   46 D(1,2,3,5)      =     -0.387781     0.000000     0.012324    -0.375457
	   47 D(2,3,4,6)      =   -107.384158    -0.000000    -0.236195  -107.620352
	   48 D(2,3,4,7)      =    134.249655    -0.000000    -0.234596   134.015059
	   49 D(2,3,4,8)      =     16.801709    -0.000000    -0.216038    16.585671
	   50 D(3,4,6,9)      =     35.721792     0.000000     0.020511    35.742303
	   51 D(3,4,6,10)     =    154.601618    -0.000000     0.004986   154.606604
	   52 D(3,4,6,11)     =    -88.185541    -0.000000     0.012838   -88.172702
	   53 D(4,6,9,12)     =    175.442010     0.000000    -0.012236   175.429775
	   54 D(4,6,9,13)     =     53.787336     0.000000    -0.002348    53.784987
	   55 D(4,6,9,14)     =    -63.093487    -0.000000    -0.009781   -63.103268
	   56 D(5,3,4,6)      =     72.577393    -0.000000    -0.216909    72.360484
	   57 D(5,3,4,7)      =    -45.788794    -0.000000    -0.215311   -46.004105
	   58 D(5,3,4,8)      =   -163.236741     0.000000    -0.196752  -163.433493
	   59 D(6,9,12,15)    =    -60.377311     0.000000    -0.022640   -60.399951
	   60 D(6,9,12,16)    =    179.570998    -0.000000    -0.025134   179.545864
	   61 D(6,9,12,17)    =     59.665742     0.000000    -0.021492    59.644250
	   62 D(7,4,6,9)      =    151.120154     0.000000     0.015525   151.135680
	   63 *D(7,4,6,10)    =    -90.000020     0.000000    -0.000000   -90.000020
	   64 D(7,4,6,11)     =     27.212821     0.000000     0.007853    27.220674
	   65 D(8,4,6,9)      =    -87.459478    -0.000000     0.001908   -87.457570
	   66 D(8,4,6,10)     =     31.420348    -0.000000    -0.013618    31.406730
	   67 D(8,4,6,11)     =    148.633189    -0.000000    -0.005765   148.627424
	   68 D(10,6,9,12)    =     56.382886    -0.000000    -0.003237    56.379649
	   69 D(10,6,9,13)    =    -65.271788     0.000000     0.006650   -65.265138
	   70 D(10,6,9,14)    =    177.847389    -0.000000    -0.000782   177.846607
	   71 D(11,6,9,12)    =    -60.528555     0.000000    -0.002605   -60.531160
	   72 D(11,6,9,13)    =    177.816770     0.000000     0.007282   177.824052
	   73 D(11,6,9,14)    =     60.935948    -0.000000    -0.000151    60.935797
	   74 D(13,9,12,15)   =     61.325414    -0.000000    -0.032390    61.293024
	   75 D(13,9,12,16)   =    -58.726277    -0.000000    -0.034884   -58.761162
	   76 D(13,9,12,17)   =   -178.631533    -0.000000    -0.031242  -178.662775
	   77 D(14,9,12,15)   =    177.690000     0.000000    -0.025449   177.664552
	   78 D(14,9,12,16)   =     57.638309    -0.000000    -0.027943    57.610366
	   79 D(14,9,12,17)   =    -62.266947     0.000000    -0.024300   -62.291247
	   80 R(5,9)          =      3.420135     0.000089    -0.002096     3.418039
	 ---------------------------------------------------------------------------
	Successfully symmetrized geometry.

  ==> Convergence Check <==

  Measures of convergence in internal coordinates in au.
  Criteria marked as inactive (o), active & met (*), and active & unmet ( ).
  ---------------------------------------------------------------------------------------------
   Step     Total Energy     Delta E     MAX Force     RMS Force      MAX Disp      RMS Disp   
  ---------------------------------------------------------------------------------------------
    Convergence Criteria    1.00e-06 *    3.00e-04 *             o    1.20e-03 *             o
  ---------------------------------------------------------------------------------------------
     18    -345.04242833   -5.67e-07 *    1.19e-04 *    2.33e-05 o    4.12e-03      1.16e-03 o  ~
  ---------------------------------------------------------------------------------------------


  **** Optimization is complete! (in 18 steps) ****

  ==> Optimization Summary <==

  Measures of convergence in internal coordinates in au.
  --------------------------------------------------------------------------------------------------------------- ~
   Step         Total Energy             Delta E       MAX Force       RMS Force        MAX Disp        RMS Disp  ~
  --------------------------------------------------------------------------------------------------------------- ~
      1    -345.020361904393   -345.020361904393      0.04947363      0.00781928      0.42849418      0.05594954  ~
      2    -345.035887445208     -0.015525540815      0.01272333      0.00255749      0.19923887      0.04233053  ~
      3    -345.038390280616     -0.002502835408      0.00605290      0.00135995      0.24306785      0.05611636  ~
      4    -345.036507137665      0.001883142950      0.01456659      0.00350271      0.12466114      0.03114281  ~
      5    -345.039990316556     -0.003483178891      0.00403806      0.00075493      0.16962639      0.04329817  ~
      6    -345.040644265087     -0.000653948531      0.00383306      0.00076692      0.30503976      0.08107047  ~
      7    -345.037177162777      0.003467102310      0.06710717      0.00899881      0.07347447      0.01664179  ~
      8    -345.041559337229     -0.004382174452      0.00787511      0.00125996      0.14811635      0.04242552  ~
      9    -345.041881529970     -0.000322192741      0.00458024      0.00091921      0.13519171      0.03287963  ~
     10    -345.042117204493     -0.000235674523      0.00093458      0.00028828      0.13735845      0.03637698  ~
     11    -345.042171191077     -0.000053986584      0.00211274      0.00045005      0.06588125      0.01879291  ~
     12    -345.042239001388     -0.000067810310      0.00239698      0.00032575      0.16005195      0.04145411  ~
     13    -345.042310279670     -0.000071278282      0.00202774      0.00032619      0.12846026      0.03500603  ~
     14    -345.042364572561     -0.000054292891      0.00118611      0.00031199      0.03517159      0.00756325  ~
     15    -345.042399237984     -0.000034665423      0.00171243      0.00030072      0.09904754      0.02666094  ~
     16    -345.042421053641     -0.000021815657      0.00126541      0.00022835      0.02791963      0.00751091  ~
     17    -345.042427766966     -0.000006713324      0.00042250      0.00006644      0.01219985      0.00323160  ~
     18    -345.042428334416     -0.000000567450      0.00011904      0.00002329      0.00412237      0.00115895  ~
  --------------------------------------------------------------------------------------------------------------- ~

	Writing optimization data to binary file.
	Final energy is   -345.0424283344158
	Final (previous) structure:
	Cartesian Geometry (in Angstrom)
	    H    -0.7716390140  -2.6624065052   0.1879915561
	    O    -0.8917611699  -1.9092526270  -0.3714664854
	    C    -1.0061906687  -0.8319625083   0.3973497778
	    C    -1.1931826402   0.4430033996  -0.3861603189
	    O    -0.9614086233  -0.8956822844   1.5785952479
	    C     0.0632402451   1.3414018350  -0.3742361255
	    H    -2.0004151301   0.9522937099   0.1230783495
	    H    -1.4900137677   0.2019080646  -1.3955297464
	    C     1.3984253580   0.5943910795  -0.3983186884
	    H     0.0284640730   1.9547780196  -1.2679015459
	    H     0.0334443894   1.9971434790   0.4863261148
	    C     2.5871152402   1.5445382655  -0.4971453942
	    H     1.4143925281  -0.0925094807  -1.2395713337
	    H     1.5001147022  -0.0078938374   0.4977576951
	    H     2.5422376509   2.1378262154  -1.4043442774
	    H     3.5228199488   0.9981581183  -0.5053394859
	    H     2.6111653726   2.2286170999   0.3443951093
	Saving final (previous) structure.
			--------------------------
			 OPTKING Finished Execution 
			--------------------------

    Final optimized geometry and variables:
    Molecular point group: c1
    Full point group: C1

    Geometry (in Angstrom), charge = 0, multiplicity = 1:

    H           -0.771639014043    -2.662406505154     0.187991556081
    O           -0.891761169921    -1.909252627025    -0.371466485419
    C           -1.006190668718    -0.831962508282     0.397349777797
    C           -1.193182640216     0.443003399563    -0.386160318857
    O           -0.961408623323    -0.895682284385     1.578595247897
    C            0.063240245068     1.341401835044    -0.374236125539
    H           -2.000415130121     0.952293709909     0.123078349490
    H           -1.490013767684     0.201908064621    -1.395529746398
    C            1.398425358025     0.594391079545    -0.398318688434
    H            0.028464073039     1.954778019588    -1.267901545889
    H            0.033444389442     1.997143479031     0.486326114825
    C            2.587115240189     1.544538265532    -0.497145394200
    H            1.414392528129    -0.092509480733    -1.239571333716
    H            1.500114702158    -0.007893837383     0.497757695092
    H            2.542237650863     2.137826215398    -1.404344277420
    H            3.522819948804     0.998158118263    -0.505339485947
    H            2.611165372572     2.228617099909     0.344395109295

	Cleaning optimization helper files.


Properties will be evaluated at   0.000000,   0.000000,   0.000000 Bohr

Properties computed using the  density matrix

  Nuclear Dipole Moment: (a.u.)
     X:     6.9195      Y:     7.2125      Z:    -3.9064

  Electronic Dipole Moment: (a.u.)
     X:    -6.8224      Y:    -7.1438      Z:     3.1921

  Dipole Moment: (a.u.)
     X:     0.0971      Y:     0.0687      Z:    -0.7143     Total:     0.7241

  Dipole Moment: (Debye)
     X:     0.2469      Y:     0.1746      Z:    -1.8155     Total:     1.8405

  Quadrupole Moment: (Debye Ang)
    XX:   -43.1101     YY:   -38.9844     ZZ:   -49.2646
    XY:    -0.8219     XZ:     1.9207     YZ:    -0.1561

  Traceless Quadrupole Moment: (Debye Ang)
    XX:     0.6763     YY:     4.8020     ZZ:    -5.4783
    XY:    -0.8219     XZ:     1.9207     YZ:    -0.1561

  Mulliken Charges: (a.u.)
   Center  Symbol    Alpha    Beta     Spin     Total
       1     H     0.38055  0.38055  0.00000  0.23889
       2     O     4.16575  4.16575  0.00000 -0.33149
       3     C     2.79040  2.79040  0.00000  0.41919
       4     C     3.10483  3.10483  0.00000 -0.20966
       5     O     4.20338  4.20338  0.00000 -0.40676
       6     C     3.08883  3.08883  0.00000 -0.17767
       7     H     0.43547  0.43547  0.00000  0.12905
       8     H     0.43760  0.43760  0.00000  0.12481
       9     C     3.09581  3.09581  0.00000 -0.19163
      10     H     0.45034  0.45034  0.00000  0.09931
      11     H     0.44594  0.44594  0.00000  0.10813
      12     C     3.15108  3.15108  0.00000 -0.30217
      13     H     0.44777  0.44777  0.00000  0.10447
      14     H     0.44642  0.44642  0.00000  0.10717
      15     H     0.45531  0.45531  0.00000  0.08938
      16     H     0.44698  0.44698  0.00000  0.10604
      17     H     0.45353  0.45353  0.00000  0.09294

   Total alpha = 28.00000, Total beta = 28.00000, Total charge =  0.00000


*** Psi4 exiting successfully. Buy a developer a beer!
