    -----------------------------------------------------------------------
          Psi4: An Open-Source Ab Initio Electronic Structure Package
                              Psi4 (no tag) Driver

                          Git: Rev {detached?}  

    J. M. Turney, A. C. Simmonett, R. M. Parrish, E. G. Hohenstein,
    F. A. Evangelista, J. T. Fermann, B. J. Mintz, L. A. Burns, J. J. Wilke,
    M. L. Abrams, N. J. Russ, M. L. Leininger, C. L. Janssen, E. T. Seidl,
    W. D. Allen, H. F. Schaefer, R. A. King, E. F. Valeev, C. D. Sherrill,
    and T. D. Crawford, WIREs Comput. Mol. Sci. 2, 556-565 (2012)
    (doi: 10.1002/wcms.93)

                         Additional Contributions by
    A. E. DePrince, M. Saitow, U. Bozkaya, A. Yu. Sokolov
    -----------------------------------------------------------------------


    Psi4 started on: Fri Sep  2 12:05:17 2016

    Process ID:  22439
    PSI4DATADIR: /export131/home/mjharvey/miniconda3/share
    Memory level set to 256.000 MB

  ==> Input File <==

--------------------------------------------------------------------------
set {
	reference rhf
	basis 6-31G*
}


set_num_threads( 4 )
memory 2 gb

molecule MOL {
0 1

O	 0.077954	 1.257181	 0.113357
C	 0.028650	 0.075053	 -0.000277
C	 -1.233602	 -0.752807	 0.000328
O	 1.104454	 -0.687547	 -0.145148
C	 -2.501530	 0.091881	 0.000126
H	 -1.193807	 -1.406641	 -0.865785
H	 -1.193516	 -1.405779	 0.867015
H	 -2.545121	 0.729328	 -0.874513
H	 -3.377167	 -0.548497	 0.000561
H	 -2.544818	 0.730135	 0.874258
C	 2.359562	 -0.031777	 -0.161209
H	 2.411168	 0.669413	 -0.981625
H	 3.096990	 -0.809169	 -0.286612
H	 2.524829	 0.495116	 0.767522

	symmetry c1
}
set optking {
	frozen_dihedral = ("
		4 2 3 6
	")
}

ee = optimize('scf')
oeprop('DIPOLE', 'QUADRUPOLE', 'MULLIKEN_CHARGES')
f=open( 'psi4out.xyz', 'w' )
f.write( "14  " )
f.write( str(ee) + "\n" )
f.write( MOL.save_string_xyz() )
f.close()
--------------------------------------------------------------------------

  Memory set to   2.000 GiB by Python script.
gradient() will perform analytic gradient computation.

*** tstart() called on cx1-1-3-2.cx1.hpc.ic.ac.uk
*** at Fri Sep  2 12:05:18 2016


         ---------------------------------------------------------
                                   SCF
            by Justin Turney, Rob Parrish, and Andy Simmonett
                              RHF Reference
                        4 Threads,   2000 MiB Core
         ---------------------------------------------------------

  ==> Geometry <==

    Molecular point group: c1
    Full point group: C1

    Geometry (in Angstrom), charge = 0, multiplicity = 1:

       Center              X                  Y                   Z               Mass       
    ------------   -----------------  -----------------  -----------------  -----------------
           O          0.079022055353     1.255576785783     0.146791210041    15.994914619560
           C          0.029718055353     0.073448785783     0.033157210041    12.000000000000
           C         -1.232533944647    -0.754411214217     0.033762210041    12.000000000000
           O          1.105522055353    -0.689151214217    -0.111713789959    15.994914619560
           C         -2.500461944647     0.090276785783     0.033560210041    12.000000000000
           H         -1.192738944647    -1.408245214217    -0.832350789959     1.007825032070
           H         -1.192447944647    -1.407383214217     0.900449210041     1.007825032070
           H         -2.544052944647     0.727723785783    -0.841078789959     1.007825032070
           H         -3.376098944647    -0.550101214217     0.033995210041     1.007825032070
           H         -2.543749944647     0.728530785783     0.907692210041     1.007825032070
           C          2.360630055353    -0.033381214217    -0.127774789959    12.000000000000
           H          2.412236055353     0.667808785783    -0.948190789959     1.007825032070
           H          3.098058055353    -0.810773214217    -0.253177789959     1.007825032070
           H          2.525897055353     0.493511785783     0.800956210041     1.007825032070

  Running in c1 symmetry.

  Rotational constants: A =      0.32618  B =      0.07196  C =      0.06100 [cm^-1]
  Rotational constants: A =   9778.69277  B =   2157.28261  C =   1828.69456 [MHz]
  Nuclear repulsion =  247.136422999658038

  Charge       = 0
  Multiplicity = 1
  Electrons    = 48
  Nalpha       = 24
  Nbeta        = 24

  ==> Algorithm <==

  SCF Algorithm Type is DF.
  DIIS enabled.
  MOM disabled.
  Fractional occupation disabled.
  Guess Type is CORE.
  Energy threshold   = 1.00e-08
  Density threshold  = 1.00e-08
  Integral threshold = 0.00e+00

  ==> Primary Basis <==

  Basis Set: 6-31G*
    Number of shells: 52
    Number of basis function: 106
    Number of Cartesian functions: 106
    Spherical Harmonics?: false
    Max angular momentum: 2

  ==> Pre-Iterations <==

   -------------------------------------------------------
    Irrep   Nso     Nmo     Nalpha   Nbeta   Ndocc  Nsocc
   -------------------------------------------------------
     A        106     106       0       0       0       0
   -------------------------------------------------------
    Total     106     106      24      24      24       0
   -------------------------------------------------------

 OEINTS: Overlap, kinetic, potential, dipole, and quadrupole integrals
         stored in file 35.

  ==> Integral Setup <==

  ==> DFJK: Density-Fitted J/K Matrices <==

    J tasked:                  Yes
    K tasked:                  Yes
    wK tasked:                  No
    OpenMP threads:              4
    Integrals threads:           4
    Memory (MB):              1430
    Algorithm:                Core
    Integral Cache:           NONE
    Schwarz Cutoff:          1E-12
    Fitting Condition:       1E-12

   => Auxiliary Basis Set <=

  Basis Set: 
    Number of shells: 216
    Number of basis function: 686
    Number of Cartesian functions: 686
    Spherical Harmonics?: false
    Max angular momentum: 3

  Minimum eigenvalue in the overlap matrix is 3.3235285881E-03.
  Using Symmetric Orthogonalization.
  SCF Guess: Core (One-Electron) Hamiltonian.

  ==> Iterations <==

                           Total Energy        Delta E     RMS |[F,P]|

   @DF-RHF iter   1:  -226.31867940931946   -2.26319e+02   8.49666e-02 
   @DF-RHF iter   2:  -204.48718105359305    2.18315e+01   6.83670e-02 DIIS
   @DF-RHF iter   3:  -277.92084878952380   -7.34337e+01   4.60617e-02 DIIS
   @DF-RHF iter   4:  -283.54317783447425   -5.62233e+00   4.92783e-02 DIIS
   @DF-RHF iter   5:  -302.55971591857167   -1.90165e+01   1.94042e-02 DIIS
   @DF-RHF iter   6:  -305.76467043353034   -3.20495e+00   3.82212e-03 DIIS
   @DF-RHF iter   7:  -305.85779166818452   -9.31212e-02   1.54211e-03 DIIS
   @DF-RHF iter   8:  -305.86943027424081   -1.16386e-02   6.21674e-04 DIIS
   @DF-RHF iter   9:  -305.87182868388606   -2.39841e-03   1.69003e-04 DIIS
   @DF-RHF iter  10:  -305.87209265341858   -2.63970e-04   7.15579e-05 DIIS
   @DF-RHF iter  11:  -305.87213749687419   -4.48435e-05   3.15381e-05 DIIS
   @DF-RHF iter  12:  -305.87214683711670   -9.34024e-06   8.72607e-06 DIIS
   @DF-RHF iter  13:  -305.87214764363716   -8.06520e-07   2.62855e-06 DIIS
   @DF-RHF iter  14:  -305.87214769802233   -5.43852e-08   6.04886e-07 DIIS
   @DF-RHF iter  15:  -305.87214770266507   -4.64274e-09   1.68886e-07 DIIS
   @DF-RHF iter  16:  -305.87214770305229   -3.87217e-10   6.26049e-08 DIIS
   @DF-RHF iter  17:  -305.87214770311959   -6.73026e-11   2.10006e-08 DIIS
   @DF-RHF iter  18:  -305.87214770312937   -9.77707e-12   8.61416e-09 DIIS

  ==> Post-Iterations <==

    Orbital Energies (a.u.)
    -----------------------

    Doubly Occupied:                                                      

       1A    -20.604613     2A    -20.546290     3A    -11.372926  
       4A    -11.281496     5A    -11.238722     6A    -11.216798  
       7A     -1.470261     8A     -1.363744     9A     -1.064479  
      10A     -0.980355    11A     -0.878415    12A     -0.768984  
      13A     -0.700730    14A     -0.682885    15A     -0.671746  
      16A     -0.621170    17A     -0.602605    18A     -0.544452  
      19A     -0.537469    20A     -0.521973    21A     -0.514271  
      22A     -0.496322    23A     -0.457337    24A     -0.439319  

    Virtual:                                                              

      25A      0.198485    26A      0.238852    27A      0.264722  
      28A      0.295479    29A      0.306187    30A      0.307358  
      31A      0.319384    32A      0.328490    33A      0.330714  
      34A      0.363172    35A      0.411152    36A      0.444500  
      37A      0.513910    38A      0.555883    39A      0.718756  
      40A      0.720594    41A      0.744211    42A      0.761877  
      43A      0.789184    44A      0.807842    45A      0.813777  
      46A      0.906582    47A      0.917062    48A      0.967741  
      49A      0.986107    50A      1.000935    51A      1.066771  
      52A      1.111783    53A      1.125452    54A      1.132486  
      55A      1.135363    56A      1.175399    57A      1.185240  
      58A      1.192764    59A      1.210479    60A      1.232569  
      61A      1.251013    62A      1.290936    63A      1.323379  
      64A      1.373839    65A      1.398236    66A      1.538127  
      67A      1.626306    68A      1.656000    69A      1.685080  
      70A      1.790554    71A      1.802855    72A      1.818525  
      73A      1.898838    74A      1.977181    75A      2.068347  
      76A      2.076336    77A      2.138218    78A      2.181332  
      79A      2.203050    80A      2.272203    81A      2.292900  
      82A      2.328711    83A      2.388017    84A      2.398796  
      85A      2.443715    86A      2.496737    87A      2.567032  
      88A      2.643284    89A      2.661398    90A      2.670912  
      91A      2.700491    92A      2.763827    93A      2.825370  
      94A      2.866810    95A      3.011781    96A      3.068594  
      97A      3.149193    98A      3.347528    99A      3.442027  
     100A      3.571790   101A      4.409046   102A      4.554969  
     103A      4.620030   104A      4.704171   105A      4.777572  
     106A      4.955429  

    Final Occupation by Irrep:
              A 
    DOCC [    24 ]

  Energy converged.

  @DF-RHF Final Energy:  -305.87214770312937

   => Energetics <=

    Nuclear Repulsion Energy =            247.1364229996580377
    One-Electron Energy =                -906.8624193410410044
    Two-Electron Energy =                 353.8538486382532824
    DFT Exchange-Correlation Energy =       0.0000000000000000
    Empirical Dispersion Energy =           0.0000000000000000
    PCM Polarization Energy =               0.0000000000000000
    EFP Energy =                            0.0000000000000000
    Total Energy =                       -305.8721477031296558

    Alert: EFP and PCM quantities not currently incorporated into SCF psivars.

Properties will be evaluated at   0.000000,   0.000000,   0.000000 Bohr
  ==> Properties <==


Properties computed using the SCF density matrix

  Nuclear Dipole Moment: (a.u.)
     X:    -2.6313      Y:    -1.4587      Z:    -0.2170

  Electronic Dipole Moment: (a.u.)
     X:     2.8293      Y:     0.7575      Z:     0.1399

  Dipole Moment: (a.u.)
     X:     0.1980      Y:    -0.7013      Z:    -0.0771     Total:     0.7327

  Dipole Moment: (Debye)
     X:     0.5032      Y:    -1.7824      Z:    -0.1960     Total:     1.8624


  Saving occupied orbitals to File 180.

*** tstop() called on cx1-1-3-2.cx1.hpc.ic.ac.uk at Fri Sep  2 12:05:21 2016
Module time:
	user time   =       9.21 seconds =       0.15 minutes
	system time =       0.14 seconds =       0.00 minutes
	total time  =          3 seconds =       0.05 minutes
Total time:
	user time   =       9.21 seconds =       0.15 minutes
	system time =       0.14 seconds =       0.00 minutes
	total time  =          3 seconds =       0.05 minutes

*** tstart() called on cx1-1-3-2.cx1.hpc.ic.ac.uk
*** at Fri Sep  2 12:05:21 2016


         ------------------------------------------------------------
                                   SCF GRAD                          
                          Rob Parrish, Justin Turney,                
                       Andy Simmonett, and Alex Sokolov              
         ------------------------------------------------------------

  ==> Geometry <==

    Molecular point group: c1
    Full point group: C1

    Geometry (in Angstrom), charge = 0, multiplicity = 1:

       Center              X                  Y                   Z               Mass       
    ------------   -----------------  -----------------  -----------------  -----------------
           O          0.079022055353     1.255576785783     0.146791210041    15.994914619560
           C          0.029718055353     0.073448785783     0.033157210041    12.000000000000
           C         -1.232533944647    -0.754411214217     0.033762210041    12.000000000000
           O          1.105522055353    -0.689151214217    -0.111713789959    15.994914619560
           C         -2.500461944647     0.090276785783     0.033560210041    12.000000000000
           H         -1.192738944647    -1.408245214217    -0.832350789959     1.007825032070
           H         -1.192447944647    -1.407383214217     0.900449210041     1.007825032070
           H         -2.544052944647     0.727723785783    -0.841078789959     1.007825032070
           H         -3.376098944647    -0.550101214217     0.033995210041     1.007825032070
           H         -2.543749944647     0.728530785783     0.907692210041     1.007825032070
           C          2.360630055353    -0.033381214217    -0.127774789959    12.000000000000
           H          2.412236055353     0.667808785783    -0.948190789959     1.007825032070
           H          3.098058055353    -0.810773214217    -0.253177789959     1.007825032070
           H          2.525897055353     0.493511785783     0.800956210041     1.007825032070

  Nuclear repulsion =  247.136422999658038

  ==> Basis Set <==

  Basis Set: 6-31G*
    Number of shells: 52
    Number of basis function: 106
    Number of Cartesian functions: 106
    Spherical Harmonics?: false
    Max angular momentum: 2

  ==> DFJKGrad: Density-Fitted SCF Gradients <==

    Gradient:                    1
    J tasked:                  Yes
    K tasked:                  Yes
    wK tasked:                  No
    OpenMP threads:              4
    Integrals threads:           4
    Memory (MB):              1430
    Schwarz Cutoff:          0E+00
    Fitting Condition:       1E-12

   => Auxiliary Basis Set <=

  Basis Set: 
    Number of shells: 216
    Number of basis function: 686
    Number of Cartesian functions: 686
    Spherical Harmonics?: false
    Max angular momentum: 3


  -Total Gradient:
     Atom            X                  Y                   Z
    ------   -----------------  -----------------  -----------------
       1        0.000030489558    -0.000004364373    -0.000069087947
       2        0.000011977454    -0.000052809172     0.000270550384
       3       -0.000071612074     0.000210428287     0.001730936073
       4       -0.000089133846    -0.000024925978    -0.000211276563
       5        0.000064750295    -0.000009322095    -0.001117988653
       6        0.000195094109    -0.000104733754    -0.000423983898
       7       -0.000104251821    -0.000018100661    -0.000443865332
       8        0.000039971592    -0.000044406957     0.000224523113
       9       -0.000034730743    -0.000033321079     0.000098607635
      10       -0.000046647920     0.000048111128     0.000163389752
      11        0.000011249837     0.000045154393    -0.000234234171
      12        0.000035669175     0.000000058507     0.000013426989
      13       -0.000008734685    -0.000001232303    -0.000004445456
      14       -0.000034090928    -0.000010535941     0.000003448074


*** tstop() called on cx1-1-3-2.cx1.hpc.ic.ac.uk at Fri Sep  2 12:05:25 2016
Module time:
	user time   =      12.22 seconds =       0.20 minutes
	system time =       0.14 seconds =       0.00 minutes
	total time  =          4 seconds =       0.07 minutes
Total time:
	user time   =      21.45 seconds =       0.36 minutes
	system time =       0.28 seconds =       0.00 minutes
	total time  =          7 seconds =       0.12 minutes
CURRENT ENERGY: -305.8721477031

			-----------------------------------------
			 OPTKING 2.0: for geometry optimizations 
			  - R.A. King,  Bethel University        
			-----------------------------------------

	Internal coordinates to be generated automatically.
	Detected frag with atoms:  1 2 3 4 5 6 7 8 9 10 11 12 13 14
	---Fragment 1 Bond Connectivity---
	 1 : 2
	 2 : 1 3 4
	 3 : 2 5 6 7
	 4 : 2 11
	 5 : 3 8 9 10
	 6 : 3
	 7 : 3
	 8 : 5
	 9 : 5
	 10 : 5
	 11 : 4 12 13 14
	 12 : 11
	 13 : 11
	 14 : 11

	Assuming in current code that numbering for constraints corresponds to unified fragment.
	Frozen dihedral atom list: 
	     4     2     3     6
	---Fragment 1 Geometry and Gradient---
	 O           0.1493300431        2.3726962639        0.2773951857
	 C           0.0561589858        0.1387980899        0.0626580463
	 C          -2.3291516049       -1.4256305864        0.0638013306
	 O           2.0891339185       -1.3023070590       -0.2111084683
	 C          -4.7251882811        0.1705984013        0.0634196059
	 H          -2.2539499534       -2.6611977828       -1.5729150395
	 H          -2.2534000431       -2.6595688389        1.7016024036
	 H          -4.8075633329        1.3751986555       -1.5894085692
	 H          -6.3799024029       -1.0395406402        0.0642416368
	 H          -4.8069907459        1.3767236645        1.7152896899
	 C           4.4609443057       -0.0630813529       -0.2414593597
	 H           4.5584655125        1.2619757143       -1.7918209147
	 H           5.8544812684       -1.5321393308       -0.4784366860
	 H           4.7732536745        0.9326021185        1.5135878814
	             0.0000304896       -0.0000043644       -0.0000690879
	             0.0000119775       -0.0000528092        0.0002705504
	            -0.0000716121        0.0002104283        0.0017309361
	            -0.0000891338       -0.0000249260       -0.0002112766
	             0.0000647503       -0.0000093221       -0.0011179887
	             0.0001950941       -0.0001047338       -0.0004239839
	            -0.0001042518       -0.0000181007       -0.0004438653
	             0.0000399716       -0.0000444070        0.0002245231
	            -0.0000347307       -0.0000333211        0.0000986076
	            -0.0000466479        0.0000481111        0.0001633898
	             0.0000112498        0.0000451544       -0.0002342342
	             0.0000356692        0.0000000585        0.0000134270
	            -0.0000087347       -0.0000012323       -0.0000044455
	            -0.0000340909       -0.0000105359        0.0000034481

	Previous optimization step data not found.  Starting new optimization.

	---Fragment 1 Intrafragment Coordinates---
	 - Coordinate -           - BOHR/RAD -       - ANG/DEG -
	 R(1,2)           =         2.246129	       1.188600
	 R(2,3)           =         2.852568	       1.509514
	 R(2,4)           =         2.506934	       1.326613
	 R(3,5)           =         2.879052	       1.523529
	 R(3,6)           =         2.052102	       1.085926
	 R(3,7)           =         2.052007	       1.085876
	 R(4,11)          =         2.676207	       1.416188
	 R(5,8)           =         2.046873	       1.083159
	 R(5,9)           =         2.050004	       1.084815
	 R(5,10)          =         2.046974	       1.083212
	 R(11,12)         =         2.041790	       1.080469
	 R(11,13)         =         2.038685	       1.078826
	 R(11,14)         =         2.041841	       1.080496
	 B(1,2,3)         =         2.189635	     125.456849
	 B(1,2,4)         =         2.151389	     123.265490
	 B(2,3,5)         =         1.973433	     113.069371
	 B(2,3,6)         =         1.874697	     107.412238
	 B(2,3,7)         =         1.874691	     107.411872
	 B(2,4,11)        =         2.041772	     116.984942
	 B(3,2,4)         =         1.942161	     111.277651
	 B(3,5,8)         =         1.938941	     111.093145
	 B(3,5,9)         =         1.922473	     110.149563
	 B(3,5,10)        =         1.938886	     111.089972
	 B(4,11,12)       =         1.929914	     110.575909
	 B(4,11,13)       =         1.847770	     105.869403
	 B(4,11,14)       =         1.930089	     110.585978
	 B(5,3,6)         =         1.943584	     111.359155
	 B(5,3,7)         =         1.943596	     111.359847
	 B(6,3,7)         =         1.847485	     105.853077
	 B(8,5,9)         =         1.891508	     108.375412
	 B(8,5,10)        =         1.878906	     107.653399
	 B(9,5,10)        =         1.891510	     108.375566
	 B(12,11,13)      =         1.924879	     110.287424
	 B(12,11,14)      =         1.905929	     109.201674
	 B(13,11,14)      =         1.924901	     110.288702
	 D(1,2,3,5)       =         0.118242	       6.774790
	 D(1,2,3,6)       =         2.269550	     130.035662
	 D(1,2,3,7)       =        -2.033076	    -116.486699
	 D(1,2,4,11)      =         0.000181	       0.010360
	 D(2,3,5,8)       =         1.045513	      59.903460
	 D(2,3,5,9)       =         3.141576	     179.999065
	 D(2,3,5,10)      =        -1.045578	     -59.907192
	 D(2,4,11,12)     =        -1.055844	     -60.495378
	 D(2,4,11,13)     =        -3.140736	    -179.950898
	 D(2,4,11,14)     =         1.057436	      60.586630
	 D(3,2,4,11)      =        -3.140805	    -179.954899
	 D(4,2,3,5)       =        -3.023973	    -173.260873
	*D(4,2,3,6)       =        -0.872665	     -50.000001
	 D(4,2,3,7)       =         1.107894	      63.477639
	 D(6,3,5,8)       =        -1.067228	     -61.147639
	 D(6,3,5,9)       =         1.028836	      58.947966
	 D(6,3,5,10)      =         3.124867	     179.041709
	 D(7,3,5,8)       =        -3.124932	    -179.045410
	 D(7,3,5,9)       =        -1.028868	     -58.949805
	 D(7,3,5,10)      =         1.067163	      61.143938

	Current energy   :      -305.8721477031

	Generating empirical Hessian (Schlegel '84) for each fragment.
	Taking RFO optimization step.
	Going to follow RFO solution 1.
	Using RFO vector 1.
	Norm of target step-size    0.05252
	Projected energy change by RFO approximation:        -0.0000354502

	Back-transformation to cartesian coordinates...
	Successfully converged to displaced geometry.

	Back-transformation to cartesian coordinates to adjust frozen coordinates...
	Successfully converged to displaced geometry.

	--- Internal Coordinate Step in ANG or DEG, aJ/ANG or AJ/DEG ---
	 ---------------------------------------------------------------------------
	   Coordinate                Previous        Force       Change         New 
	   ----------                --------       ------       ------       ------
	    1 R(1,2)          =      1.188600     0.000080     0.000005     1.188605
	    2 R(2,3)          =      1.509514     0.000512     0.000105     1.509619
	    3 R(2,4)          =      1.326613     0.000219     0.000023     1.326636
	    4 R(3,5)          =      1.523529     0.000337     0.000072     1.523601
	    5 R(3,6)          =      1.085926    -0.003364    -0.000612     1.085313
	    6 R(3,7)          =      1.085876     0.002861     0.000521     1.086396
	    7 R(4,11)         =      1.416188    -0.000178    -0.000027     1.416161
	    8 R(5,8)          =      1.083159     0.001722     0.000311     1.083469
	    9 R(5,9)          =      1.084815    -0.000393    -0.000071     1.084744
	   10 R(5,10)         =      1.083212    -0.001335    -0.000241     1.082972
	   11 R(11,12)        =      1.080469     0.000070     0.000012     1.080481
	   12 R(11,13)        =      1.078826     0.000038     0.000007     1.078832
	   13 R(11,14)        =      1.080496     0.000061     0.000011     1.080507
	   14 B(1,2,3)        =    125.456849    -0.000008    -0.028901   125.427947
	   15 B(1,2,4)        =    123.265490    -0.000002    -0.010736   123.254754
	   16 B(2,3,5)        =    113.069371    -0.000003     0.013407   113.082778
	   17 B(2,3,6)        =    107.412238     0.000017     0.352057   107.764295
	   18 B(2,3,7)        =    107.411872    -0.000017    -0.371401   107.040471
	   19 B(2,4,11)       =    116.984942    -0.000001    -0.002922   116.982020
	   20 B(3,2,4)        =    111.277651     0.000010     0.027057   111.304708
	   21 B(3,5,8)        =    111.093145    -0.000004    -0.035356   111.057789
	   22 B(3,5,9)        =    110.149563     0.000001     0.002735   110.152298
	   23 B(3,5,10)       =    111.089972     0.000001     0.025676   111.115648
	   24 B(4,11,12)      =    110.575909    -0.000005    -0.026296   110.549614
	   25 B(4,11,13)      =    105.869403     0.000001     0.004755   105.874158
	   26 B(4,11,14)      =    110.585978     0.000005     0.023512   110.609490
	   27 B(5,3,6)        =    111.359155     0.000020     0.386855   111.746010
	   28 B(5,3,7)        =    111.359847    -0.000013    -0.287640   111.072207
	   29 B(6,3,7)        =    105.853077    -0.000005    -0.110300   105.742777
	   30 B(8,5,9)        =    108.375412    -0.000004    -0.053175   108.322237
	   31 B(8,5,10)       =    107.653399     0.000002     0.010886   107.664285
	   32 B(9,5,10)       =    108.375566     0.000003     0.049420   108.424986
	   33 B(12,11,13)     =    110.287424     0.000001     0.002210   110.289634
	   34 B(12,11,14)     =    109.201674    -0.000000    -0.000727   109.200947
	   35 B(13,11,14)     =    110.288702    -0.000001    -0.003354   110.285349
	   36 D(1,2,3,5)      =      6.774790    -0.000004     0.468822     7.243612
	   37 D(1,2,3,6)      =    130.035662     0.000004     1.224951   131.260613
	   38 D(1,2,3,7)      =   -116.486699     0.000003     1.087044  -115.399655
	   39 D(1,2,4,11)     =      0.010360     0.000002     0.239386     0.249746
	   40 D(2,3,5,8)      =     59.903460     0.000006     0.964906    60.868366
	   41 D(2,3,5,9)      =    179.999065     0.000005     0.877267   180.876332
	   42 D(2,3,5,10)     =    -59.907192     0.000006     0.957624   -58.949568
	   43 D(2,4,11,12)    =    -60.495378    -0.000000     0.061346   -60.434033
	   44 D(2,4,11,13)    =   -179.950898     0.000000     0.070046  -179.880852
	   45 D(2,4,11,14)    =     60.586630    -0.000000     0.058571    60.645200
	   46 D(3,2,4,11)     =   -179.954899     0.000006     1.432999  -178.521899
	   47 D(4,2,3,5)      =   -173.260873    -0.000008    -0.756129  -174.017001
	   48 *D(4,2,3,6)     =    -50.000001    -0.000000     0.000000   -50.000001
	   49 D(4,2,3,7)      =     63.477639    -0.000001    -0.137907    63.339732
	   50 D(6,3,5,8)      =    -61.147639    -0.000002     0.209028   -60.938611
	   51 D(6,3,5,9)      =     58.947966    -0.000003     0.121389    59.069355
	   52 D(6,3,5,10)     =    179.041709    -0.000002     0.201746   179.243455
	   53 D(7,3,5,8)      =   -179.045410    -0.000002     0.284383  -178.761027
	   54 D(7,3,5,9)      =    -58.949805    -0.000003     0.196744   -58.753061
	   55 D(7,3,5,10)     =     61.143938    -0.000002     0.277101    61.421039
	 ---------------------------------------------------------------------------

  ==> Convergence Check <==

  Measures of convergence in internal coordinates in au.
  Criteria marked as inactive (o), active & met (*), and active & unmet ( ).
  --------------------------------------------------------------------------------------------- ~
   Step     Total Energy     Delta E     MAX Force     RMS Force      MAX Disp      RMS Disp    ~
  --------------------------------------------------------------------------------------------- ~
    Convergence Criteria    1.00e-06 *    3.00e-04 *             o    1.20e-03 *             o  ~
  --------------------------------------------------------------------------------------------- ~
      1    -305.87214770   -3.06e+02      4.64e-04      1.66e-04 o    2.50e-02      7.08e-03 o  ~
  ---------------------------------------------------------------------------------------------

	Writing optimization data to binary file.
	Structure for next step:
	Cartesian Geometry (in Angstrom)
	    O     0.0787376733   1.2560467834   0.1369441316
	    C     0.0289826817   0.0750090070   0.0126235774
	    C    -1.2328392515  -0.7536319952   0.0230593286
	    O     1.1052976287  -0.6876229554  -0.1284485459
	    C    -2.5014310349   0.0900681160   0.0373557860
	    H    -1.2006157125  -1.4167682718  -0.8354957770
	    H    -1.1828909345  -1.3986985284   0.8957855189
	    H    -2.5616235137   0.7175158259  -0.8438885092
	    H    -3.3762775305  -0.5508686190   0.0600158952
	    H    -2.5292789358   0.7380403777   0.9046410675
	    C     2.3614625352  -0.0337771628  -0.1214671888
	    H     2.4231589829   0.6778049017  -0.9321980997
	    H     3.0991927762  -0.8106133857  -0.2485831419
	    H     2.5171231836   0.4809267840   0.8157328808
			--------------------------
			 OPTKING Finished Execution 
			--------------------------

    Structure for next step:
    Molecular point group: c1
    Full point group: C1

    Geometry (in Angstrom), charge = 0, multiplicity = 1:

    O            0.078971241498     1.255490003431     0.144106735980
    C            0.029216253687     0.074452317226     0.019786191295
    C           -1.232605583180    -0.754188621765     0.030221941720
    O            1.105531118483    -0.688179587017    -0.121285921261
    C           -2.501197269655     0.089511425048     0.044518398042
    H           -1.200382046606    -1.417324847669    -0.828333098306
    H           -1.182657269926    -1.399255105681     0.902948065379
    H           -2.561389743892     0.716959086989    -0.836725829908
    H           -3.376043698484    -0.551425260997     0.067178505512
    H           -2.529045168446     0.737483637209     0.911803613305
    C            2.361695929101    -0.034333844258    -0.114304564667
    H            2.423392372075     0.677248165886    -0.925035413669
    H            3.099426113777    -0.811170007855    -0.241420508059
    H            2.517356565616     0.480370063199     0.822895433379

gradient() will perform analytic gradient computation.

*** tstart() called on cx1-1-3-2.cx1.hpc.ic.ac.uk
*** at Fri Sep  2 12:05:26 2016


         ---------------------------------------------------------
                                   SCF
            by Justin Turney, Rob Parrish, and Andy Simmonett
                              RHF Reference
                        4 Threads,   2000 MiB Core
         ---------------------------------------------------------

  ==> Geometry <==

    Molecular point group: c1
    Full point group: C1

    Geometry (in Angstrom), charge = 0, multiplicity = 1:

       Center              X                  Y                   Z               Mass       
    ------------   -----------------  -----------------  -----------------  -----------------
           O          0.078971241498     1.255490003431     0.144106735980    15.994914619560
           C          0.029216253687     0.074452317226     0.019786191295    12.000000000000
           C         -1.232605583180    -0.754188621765     0.030221941720    12.000000000000
           O          1.105531118483    -0.688179587017    -0.121285921261    15.994914619560
           C         -2.501197269655     0.089511425048     0.044518398042    12.000000000000
           H         -1.200382046606    -1.417324847669    -0.828333098306     1.007825032070
           H         -1.182657269926    -1.399255105681     0.902948065379     1.007825032070
           H         -2.561389743892     0.716959086989    -0.836725829908     1.007825032070
           H         -3.376043698484    -0.551425260997     0.067178505512     1.007825032070
           H         -2.529045168446     0.737483637209     0.911803613305     1.007825032070
           C          2.361695929101    -0.034333844258    -0.114304564667    12.000000000000
           H          2.423392372075     0.677248165886    -0.925035413669     1.007825032070
           H          3.099426113777    -0.811170007855    -0.241420508059     1.007825032070
           H          2.517356565616     0.480370063199     0.822895433379     1.007825032070

  Running in c1 symmetry.

  Rotational constants: A =      0.32655  B =      0.07193  C =      0.06097 [cm^-1]
  Rotational constants: A =   9789.61810  B =   2156.45661  C =   1827.84992 [MHz]
  Nuclear repulsion =  247.126080765131235

  Charge       = 0
  Multiplicity = 1
  Electrons    = 48
  Nalpha       = 24
  Nbeta        = 24

  ==> Algorithm <==

  SCF Algorithm Type is DF.
  DIIS enabled.
  MOM disabled.
  Fractional occupation disabled.
  Guess Type is READ.
  Energy threshold   = 1.00e-08
  Density threshold  = 1.00e-08
  Integral threshold = 0.00e+00

  ==> Primary Basis <==

  Basis Set: 6-31G*
    Number of shells: 52
    Number of basis function: 106
    Number of Cartesian functions: 106
    Spherical Harmonics?: false
    Max angular momentum: 2

  ==> Pre-Iterations <==

   -------------------------------------------------------
    Irrep   Nso     Nmo     Nalpha   Nbeta   Ndocc  Nsocc
   -------------------------------------------------------
     A        106     106       0       0       0       0
   -------------------------------------------------------
    Total     106     106      24      24      24       0
   -------------------------------------------------------

 OEINTS: Overlap, kinetic, potential, dipole, and quadrupole integrals
         stored in file 35.

  ==> Integral Setup <==

  ==> DFJK: Density-Fitted J/K Matrices <==

    J tasked:                  Yes
    K tasked:                  Yes
    wK tasked:                  No
    OpenMP threads:              4
    Integrals threads:           4
    Memory (MB):              1430
    Algorithm:                Core
    Integral Cache:           NONE
    Schwarz Cutoff:          1E-12
    Fitting Condition:       1E-12

   => Auxiliary Basis Set <=

  Basis Set: 
    Number of shells: 216
    Number of basis function: 686
    Number of Cartesian functions: 686
    Spherical Harmonics?: false
    Max angular momentum: 3

  Minimum eigenvalue in the overlap matrix is 3.3243103989E-03.
  Using Symmetric Orthogonalization.
  SCF Guess: Reading in previously saved MOs, projecting if necessary.

  Using orbitals from previous SCF, no projection.
  Recomputing DOCC and SOCC from number of alpha and beta electrons from previous calculation.
              A 
    DOCC [    24 ]

  ==> Iterations <==

                           Total Energy        Delta E     RMS |[F,P]|

   @DF-RHF iter   0:  -305.87139838751438   -3.05871e+02   3.25998e-04 
   @DF-RHF iter   1:  -305.87210479555182   -7.06408e-04   5.71382e-05 
   @DF-RHF iter   2:  -305.87214163004654   -3.68345e-05   2.01100e-05 DIIS
   @DF-RHF iter   3:  -305.87214751115329   -5.88111e-06   3.05540e-06 DIIS
   @DF-RHF iter   4:  -305.87214763440949   -1.23256e-07   1.37591e-06 DIIS
   @DF-RHF iter   5:  -305.87214766085111   -2.64416e-08   6.91830e-07 DIIS
   @DF-RHF iter   6:  -305.87214766647804   -5.62693e-09   2.38748e-07 DIIS
   @DF-RHF iter   7:  -305.87214766767460   -1.19655e-09   6.30216e-08 DIIS
   @DF-RHF iter   8:  -305.87214766776634   -9.17453e-11   2.44687e-08 DIIS
   @DF-RHF iter   9:  -305.87214766778055   -1.42109e-11   1.02401e-08 DIIS
   @DF-RHF iter  10:  -305.87214766778339   -2.84217e-12   3.01091e-09 DIIS

  ==> Post-Iterations <==

    Orbital Energies (a.u.)
    -----------------------

    Doubly Occupied:                                                      

       1A    -20.604619     2A    -20.546260     3A    -11.372942  
       4A    -11.281494     5A    -11.238759     6A    -11.216824  
       7A     -1.470258     8A     -1.363726     9A     -1.064438  
      10A     -0.980343    11A     -0.878472    12A     -0.768988  
      13A     -0.700764    14A     -0.682829    15A     -0.671750  
      16A     -0.621081    17A     -0.602594    18A     -0.544493  
      19A     -0.537494    20A     -0.522069    21A     -0.514238  
      22A     -0.496234    23A     -0.457347    24A     -0.439319  

    Virtual:                                                              

      25A      0.198312    26A      0.239116    27A      0.264728  
      28A      0.295489    29A      0.306304    30A      0.307149  
      31A      0.319413    32A      0.328621    33A      0.330622  
      34A      0.363209    35A      0.411210    36A      0.444391  
      37A      0.513880    38A      0.555728    39A      0.718838  
      40A      0.720498    41A      0.744070    42A      0.761814  
      43A      0.789248    44A      0.808306    45A      0.813210  
      46A      0.906817    47A      0.916694    48A      0.967917  
      49A      0.985362    50A      1.001822    51A      1.066958  
      52A      1.111706    53A      1.125437    54A      1.132527  
      55A      1.135339    56A      1.175402    57A      1.185313  
      58A      1.192831    59A      1.210444    60A      1.233048  
      61A      1.250984    62A      1.290797    63A      1.323702  
      64A      1.373807    65A      1.398378    66A      1.538832  
      67A      1.624472    68A      1.657025    69A      1.685580  
      70A      1.789556    71A      1.800919    72A      1.821024  
      73A      1.898504    74A      1.976077    75A      2.065793  
      76A      2.079150    77A      2.138232    78A      2.182544  
      79A      2.202292    80A      2.271866    81A      2.293938  
      82A      2.326991    83A      2.388383    84A      2.398861  
      85A      2.443586    86A      2.497121    87A      2.567010  
      88A      2.642989    89A      2.661861    90A      2.670836  
      91A      2.700620    92A      2.762002    93A      2.826675  
      94A      2.866855    95A      3.011059    96A      3.068807  
      97A      3.149539    98A      3.347501    99A      3.441867  
     100A      3.571737   101A      4.409157   102A      4.554834  
     103A      4.620595   104A      4.704780   105A      4.776697  
     106A      4.955126  

    Final Occupation by Irrep:
              A 
    DOCC [    24 ]

  Energy converged.

  @DF-RHF Final Energy:  -305.87214766778339

   => Energetics <=

    Nuclear Repulsion Energy =            247.1260807651312348
    One-Electron Energy =                -906.8417920799242893
    Two-Electron Energy =                 353.8435636470096597
    DFT Exchange-Correlation Energy =       0.0000000000000000
    Empirical Dispersion Energy =           0.0000000000000000
    PCM Polarization Energy =               0.0000000000000000
    EFP Energy =                            0.0000000000000000
    Total Energy =                       -305.8721476677833380

    Alert: EFP and PCM quantities not currently incorporated into SCF psivars.

Properties will be evaluated at   0.000000,   0.000000,   0.000000 Bohr
  ==> Properties <==


Properties computed using the SCF density matrix

  Nuclear Dipole Moment: (a.u.)
     X:    -2.6280      Y:    -1.4664      Z:    -0.1187

  Electronic Dipole Moment: (a.u.)
     X:     2.8260      Y:     0.7646      Z:     0.0486

  Dipole Moment: (a.u.)
     X:     0.1980      Y:    -0.7018      Z:    -0.0701     Total:     0.7325

  Dipole Moment: (Debye)
     X:     0.5033      Y:    -1.7837      Z:    -0.1781     Total:     1.8619


  Saving occupied orbitals to File 180.

*** tstop() called on cx1-1-3-2.cx1.hpc.ic.ac.uk at Fri Sep  2 12:05:29 2016
Module time:
	user time   =       9.72 seconds =       0.16 minutes
	system time =       0.13 seconds =       0.00 minutes
	total time  =          3 seconds =       0.05 minutes
Total time:
	user time   =      32.44 seconds =       0.54 minutes
	system time =       0.46 seconds =       0.01 minutes
	total time  =         11 seconds =       0.18 minutes

*** tstart() called on cx1-1-3-2.cx1.hpc.ic.ac.uk
*** at Fri Sep  2 12:05:29 2016


         ------------------------------------------------------------
                                   SCF GRAD                          
                          Rob Parrish, Justin Turney,                
                       Andy Simmonett, and Alex Sokolov              
         ------------------------------------------------------------

  ==> Geometry <==

    Molecular point group: c1
    Full point group: C1

    Geometry (in Angstrom), charge = 0, multiplicity = 1:

       Center              X                  Y                   Z               Mass       
    ------------   -----------------  -----------------  -----------------  -----------------
           O          0.078971241498     1.255490003431     0.144106735980    15.994914619560
           C          0.029216253687     0.074452317226     0.019786191295    12.000000000000
           C         -1.232605583180    -0.754188621765     0.030221941720    12.000000000000
           O          1.105531118483    -0.688179587017    -0.121285921261    15.994914619560
           C         -2.501197269655     0.089511425048     0.044518398042    12.000000000000
           H         -1.200382046606    -1.417324847669    -0.828333098306     1.007825032070
           H         -1.182657269926    -1.399255105681     0.902948065379     1.007825032070
           H         -2.561389743892     0.716959086989    -0.836725829908     1.007825032070
           H         -3.376043698484    -0.551425260997     0.067178505512     1.007825032070
           H         -2.529045168446     0.737483637209     0.911803613305     1.007825032070
           C          2.361695929101    -0.034333844258    -0.114304564667    12.000000000000
           H          2.423392372075     0.677248165886    -0.925035413669     1.007825032070
           H          3.099426113777    -0.811170007855    -0.241420508059     1.007825032070
           H          2.517356565616     0.480370063199     0.822895433379     1.007825032070

  Nuclear repulsion =  247.126080765131235

  ==> Basis Set <==

  Basis Set: 6-31G*
    Number of shells: 52
    Number of basis function: 106
    Number of Cartesian functions: 106
    Spherical Harmonics?: false
    Max angular momentum: 2

  ==> DFJKGrad: Density-Fitted SCF Gradients <==

    Gradient:                    1
    J tasked:                  Yes
    K tasked:                  Yes
    wK tasked:                  No
    OpenMP threads:              4
    Integrals threads:           4
    Memory (MB):              1430
    Schwarz Cutoff:          0E+00
    Fitting Condition:       1E-12

   => Auxiliary Basis Set <=

  Basis Set: 
    Number of shells: 216
    Number of basis function: 686
    Number of Cartesian functions: 686
    Spherical Harmonics?: false
    Max angular momentum: 3


  -Total Gradient:
     Atom            X                  Y                   Z
    ------   -----------------  -----------------  -----------------
       1        0.000102334273    -0.000133764665     0.000919145039
       2       -0.000134633320     0.000224573052    -0.002198461332
       3       -0.000202047488     0.000214299533     0.000515836390
       4        0.000052803370    -0.000007726991     0.000319772581
       5       -0.000002060545     0.000047824055     0.000138950715
       6        0.000419509433    -0.000331779312     0.000158505979
       7       -0.000234284460    -0.000018324428    -0.000192766334
       8        0.000120840944    -0.000084194837     0.000052420975
       9        0.000007389255    -0.000005330952     0.000064480728
      10       -0.000146909400     0.000115139290     0.000050607847
      11        0.000021963804    -0.000032341452     0.000250422368
      12       -0.000074245189     0.000000157453    -0.000032574248
      13        0.000002513233     0.000003164796    -0.000009682422
      14        0.000066826087     0.000008304457    -0.000036658286


*** tstop() called on cx1-1-3-2.cx1.hpc.ic.ac.uk at Fri Sep  2 12:05:33 2016
Module time:
	user time   =      12.00 seconds =       0.20 minutes
	system time =       0.15 seconds =       0.00 minutes
	total time  =          4 seconds =       0.07 minutes
Total time:
	user time   =      44.46 seconds =       0.74 minutes
	system time =       0.61 seconds =       0.01 minutes
	total time  =         15 seconds =       0.25 minutes
CURRENT ENERGY: -305.8721476678

			-----------------------------------------
			 OPTKING 2.0: for geometry optimizations 
			  - R.A. King,  Bethel University        
			-----------------------------------------

	Previous internal coordinate definitions found.
	---Fragment 1 Geometry and Gradient---
	 O           0.1492340188        2.3725322691        0.2723222649
	 C           0.0552107181        0.1406944895        0.0373904828
	 C          -2.3292869821       -1.4252099477        0.0571111931
	 O           2.0891510453       -1.3004709497       -0.2291971750
	 C          -4.7265778440        0.1691520791        0.0841275802
	 H          -2.2683933229       -2.6783558034       -1.5653227026
	 H          -2.2348983492       -2.6442089398        1.7063245558
	 H          -4.8403251355        1.3548563229       -1.5811826668
	 H          -6.3797980028       -1.0420427260        0.1269489774
	 H          -4.7792027461        1.3936421018        1.7230591161
	 C           4.4629585152       -0.0648815627       -0.2160043230
	 H           4.5795478957        1.2798135575       -1.7480635951
	 H           5.8570665242       -1.5328891621       -0.4562186431
	 H           4.7571144878        0.9077678619        1.5550470051
	             0.0001023343       -0.0001337647        0.0009191450
	            -0.0001346333        0.0002245731       -0.0021984613
	            -0.0002020475        0.0002142995        0.0005158364
	             0.0000528034       -0.0000077270        0.0003197726
	            -0.0000020605        0.0000478241        0.0001389507
	             0.0004195094       -0.0003317793        0.0001585060
	            -0.0002342845       -0.0000183244       -0.0001927663
	             0.0001208409       -0.0000841948        0.0000524210
	             0.0000073893       -0.0000053310        0.0000644807
	            -0.0001469094        0.0001151393        0.0000506078
	             0.0000219638       -0.0000323415        0.0002504224
	            -0.0000742452        0.0000001575       -0.0000325742
	             0.0000025132        0.0000031648       -0.0000096824
	             0.0000668261        0.0000083045       -0.0000366583

	---Fragment 1 Intrafragment Coordinates---
	 - Coordinate -           - BOHR/RAD -       - ANG/DEG -
	 R(1,2)           =         2.246137	       1.188605
	 R(2,3)           =         2.852766	       1.509619
	 R(2,4)           =         2.506978	       1.326636
	 R(3,5)           =         2.879188	       1.523601
	 R(3,6)           =         2.050945	       1.085313
	 R(3,7)           =         2.052991	       1.086396
	 R(4,11)          =         2.676157	       1.416161
	 R(5,8)           =         2.047460	       1.083469
	 R(5,9)           =         2.049869	       1.084744
	 R(5,10)          =         2.046519	       1.082972
	 R(11,12)         =         2.041814	       1.080481
	 R(11,13)         =         2.038697	       1.078832
	 R(11,14)         =         2.041861	       1.080507
	 B(1,2,3)         =         2.189131	     125.427947
	 B(1,2,4)         =         2.151201	     123.254754
	 B(2,3,5)         =         1.973667	     113.082778
	 B(2,3,6)         =         1.880842	     107.764295
	 B(2,3,7)         =         1.868209	     107.040471
	 B(2,4,11)        =         2.041721	     116.982020
	 B(3,2,4)         =         1.942634	     111.304708
	 B(3,5,8)         =         1.938324	     111.057789
	 B(3,5,9)         =         1.922520	     110.152298
	 B(3,5,10)        =         1.939334	     111.115648
	 B(4,11,12)       =         1.929455	     110.549614
	 B(4,11,13)       =         1.847853	     105.874158
	 B(4,11,14)       =         1.930500	     110.609490
	 B(5,3,6)         =         1.950336	     111.746010
	 B(5,3,7)         =         1.938576	     111.072207
	 B(6,3,7)         =         1.845560	     105.742777
	 B(8,5,9)         =         1.890580	     108.322237
	 B(8,5,10)        =         1.879096	     107.664285
	 B(9,5,10)        =         1.892373	     108.424986
	 B(12,11,13)      =         1.924917	     110.289634
	 B(12,11,14)      =         1.905916	     109.200947
	 B(13,11,14)      =         1.924842	     110.285349
	 D(1,2,3,5)       =         0.126425	       7.243612
	 D(1,2,3,6)       =         2.290930	     131.260613
	 D(1,2,3,7)       =        -2.014104	    -115.399655
	 D(1,2,4,11)      =         0.004359	       0.249746
	 D(2,3,5,8)       =         1.062353	      60.868366
	 D(2,3,5,9)       =        -3.126298	    -179.123668
	 D(2,3,5,10)      =        -1.028864	     -58.949568
	 D(2,4,11,12)     =        -1.054773	     -60.434033
	 D(2,4,11,13)     =        -3.139513	    -179.880852
	 D(2,4,11,14)     =         1.058458	      60.645200
	 D(3,2,4,11)      =        -3.115795	    -178.521899
	 D(4,2,3,5)       =        -3.037170	    -174.017001
	*D(4,2,3,6)       =        -0.872665	     -50.000001
	 D(4,2,3,7)       =         1.105487	      63.339732
	 D(6,3,5,8)       =        -1.063579	     -60.938611
	 D(6,3,5,9)       =         1.030955	      59.069355
	 D(6,3,5,10)      =         3.128388	     179.243455
	 D(7,3,5,8)       =        -3.119969	    -178.761027
	 D(7,3,5,9)       =        -1.025434	     -58.753061
	 D(7,3,5,10)      =         1.071999	      61.421039

	Current energy   :      -305.8721476678

	Energy change for the previous step:
		Projected    :        -0.0000354502
		Actual       :         0.0000000353

	Performing BFGS update.
	Previous computed or guess Hessian on step 1.
	Steps to be used in Hessian update: 1
	Taking RFO optimization step.
	Going to follow RFO solution 1.
	Using RFO vector 1.
	Norm of target step-size    0.07070
	Projected energy change by RFO approximation:         0.0000053639

	Back-transformation to cartesian coordinates...
	Successfully converged to displaced geometry.

	Back-transformation to cartesian coordinates to adjust frozen coordinates...
	Successfully converged to displaced geometry.

	--- Internal Coordinate Step in ANG or DEG, aJ/ANG or AJ/DEG ---
	 ---------------------------------------------------------------------------
	   Coordinate                Previous        Force       Change         New 
	   ----------                --------       ------       ------       ------
	    1 R(1,2)          =      1.188605     0.000268     0.000012     1.188617
	    2 R(2,3)          =      1.509619    -0.000586     0.000033     1.509652
	    3 R(2,4)          =      1.326636    -0.000171     0.000012     1.326647
	    4 R(3,5)          =      1.523601    -0.000501     0.000011     1.523611
	    5 R(3,6)          =      1.085313    -0.000740    -0.000612     1.084701
	    6 R(3,7)          =      1.086396     0.001275     0.000579     1.086975
	    7 R(4,11)         =      1.416161    -0.000053    -0.000028     1.416134
	    8 R(5,8)          =      1.083469     0.000808     0.000349     1.083818
	    9 R(5,9)          =      1.084744     0.000012    -0.000062     1.084682
	   10 R(5,10)         =      1.082972    -0.000933    -0.000298     1.082673
	   11 R(11,12)        =      1.080481    -0.000167    -0.000004     1.080478
	   12 R(11,13)        =      1.078832    -0.000005     0.000006     1.078838
	   13 R(11,14)        =      1.080507     0.000150     0.000023     1.080530
	   14 B(1,2,3)        =    125.427947    -0.000001    -0.021023   125.406925
	   15 B(1,2,4)        =    123.254754     0.000004     0.003771   123.258525
	   16 B(2,3,5)        =    113.082778     0.000001    -0.012345   113.070433
	   17 B(2,3,6)        =    107.764295     0.000021     0.355055   108.119350
	   18 B(2,3,7)        =    107.040471    -0.000014    -0.356661   106.683809
	   19 B(2,4,11)       =    116.982020    -0.000000    -0.002770   116.979250
	   20 B(3,2,4)        =    111.304708    -0.000002     0.027450   111.332158
	   21 B(3,5,8)        =    111.057789     0.000016     0.008324   111.066113
	   22 B(3,5,9)        =    110.152298     0.000002     0.006599   110.158897
	   23 B(3,5,10)       =    111.115648    -0.000019    -0.026006   111.089642
	   24 B(4,11,12)      =    110.549614     0.000011     0.005227   110.554841
	   25 B(4,11,13)      =    105.874158    -0.000001     0.002835   105.876993
	   26 B(4,11,14)      =    110.609490    -0.000011    -0.006249   110.603241
	   27 B(5,3,6)        =    111.746010    -0.000034     0.209477   111.955487
	   28 B(5,3,7)        =    111.072207     0.000012    -0.218529   110.853678
	   29 B(6,3,7)        =    105.742777     0.000016     0.012558   105.755334
	   30 B(8,5,9)        =    108.322237    -0.000007    -0.058390   108.263847
	   31 B(8,5,10)       =    107.664285     0.000002     0.012884   107.677170
	   32 B(9,5,10)       =    108.424986     0.000008     0.056958   108.481944
	   33 B(12,11,13)     =    110.289634    -0.000002     0.002060   110.291693
	   34 B(12,11,14)     =    109.200947    -0.000000    -0.000576   109.200371
	   35 B(13,11,14)     =    110.285349     0.000002    -0.003228   110.282120
	   36 D(1,2,3,5)      =      7.243612    -0.000006    -2.331927     4.911685
	   37 D(1,2,3,6)      =    131.260613    -0.000012    -1.810084   129.450528
	   38 D(1,2,3,7)      =   -115.399655    -0.000007    -1.801234  -117.200889
	   39 D(1,2,4,11)     =      0.249746     0.000004     1.433706     1.683452
	   40 D(2,3,5,8)      =     60.868366     0.000001     0.739964    61.608330
	   41 D(2,3,5,9)      =   -179.123668     0.000001     0.676616  -178.447052
	   42 D(2,3,5,10)     =    -58.949568     0.000001     0.735467   -58.214101
	   43 D(2,4,11,12)    =    -60.434033    -0.000000    -0.108677   -60.542710
	   44 D(2,4,11,13)    =   -179.880852    -0.000001    -0.115630  -179.996482
	   45 D(2,4,11,14)    =     60.645200     0.000000    -0.110078    60.535123
	   46 D(3,2,4,11)     =   -178.521899    -0.000008    -0.330224  -178.852123
	   47 D(4,2,3,5)      =   -174.017001     0.000006    -0.521842  -174.538844
	   48 *D(4,2,3,6)     =    -50.000001     0.000000     0.000000   -50.000001
	   49 D(4,2,3,7)      =     63.339732     0.000005     0.008850    63.348582
	   50 D(6,3,5,8)      =    -60.938611    -0.000000     0.123954   -60.814657
	   51 D(6,3,5,9)      =     59.069355     0.000000     0.060606    59.129961
	   52 D(6,3,5,10)     =    179.243455     0.000000     0.119457   179.362912
	   53 D(7,3,5,8)      =   -178.761027    -0.000001     0.116379  -178.644648
	   54 D(7,3,5,9)      =    -58.753061    -0.000001     0.053031   -58.700030
	   55 D(7,3,5,10)     =     61.421039    -0.000001     0.111882    61.532921
	 ---------------------------------------------------------------------------

  ==> Convergence Check <==

  Measures of convergence in internal coordinates in au.
  Criteria marked as inactive (o), active & met (*), and active & unmet ( ).
  ---------------------------------------------------------------------------------------------
   Step     Total Energy     Delta E     MAX Force     RMS Force      MAX Disp      RMS Disp   
  ---------------------------------------------------------------------------------------------
    Convergence Criteria    1.00e-06 *    3.00e-04 *             o    1.20e-03 *             o
  ---------------------------------------------------------------------------------------------
      2    -305.87214767    3.53e-08 *    7.03e-04      1.85e-04 o    4.07e-02      9.53e-03 o  ~
  ---------------------------------------------------------------------------------------------

	Writing optimization data to binary file.
	Structure for next step:
	Cartesian Geometry (in Angstrom)
	    O     0.0767829179   1.2567297148   0.1211838318
	    C     0.0293849593   0.0732349808   0.0216686253
	    C    -1.2329383789  -0.7547674513   0.0229789224
	    O     1.1062649381  -0.6888350949  -0.1182321650
	    C    -2.5008555534   0.0897022622   0.0484439451
	    H    -1.2033974129  -1.4162160910  -0.8362008667
	    H    -1.1811026830  -1.4013742528   0.8951761249
	    H    -2.5677606293   0.7186647321  -0.8316650843
	    H    -3.3759517532  -0.5505961128   0.0759964925
	    H    -2.5210503078   0.7360793966   0.9167583989
	    C     2.3620098810  -0.0342564130  -0.1100737909
	    H     2.4249078110   0.6759163293  -0.9219421536
	    H     3.1004780901  -0.8108711722  -0.2342713126
	    H     2.5154967083   0.4822264718   0.8265325716
			--------------------------
			 OPTKING Finished Execution 
			--------------------------

    Structure for next step:
    Molecular point group: c1
    Full point group: C1

    Geometry (in Angstrom), charge = 0, multiplicity = 1:

    O            0.076969113521     1.256820922759     0.124216668738
    C            0.029571158618     0.073326279102     0.024701469887
    C           -1.232752083188    -0.754676089721     0.026011766810
    O            1.106451055156    -0.688743738348    -0.115199309805
    C           -2.500669160940     0.089793559254     0.051476787564
    H           -1.203211119517    -1.416124678940    -0.833167956662
    H           -1.180916391249    -1.401282841854     0.898208902737
    H           -2.567574231685     0.718755981115    -0.828632174551
    H           -3.375765293853    -0.550504766806     0.079029332853
    H           -2.520863913742     0.736170644345     0.919791175044
    C            2.362195902184    -0.034165106519    -0.107040936298
    H            2.425093827354     0.676007581593    -0.918909236982
    H            3.100664054847    -0.810779806323    -0.231238448504
    H            2.515682717709     0.482317738867     0.829565354645

gradient() will perform analytic gradient computation.

*** tstart() called on cx1-1-3-2.cx1.hpc.ic.ac.uk
*** at Fri Sep  2 12:05:33 2016


         ---------------------------------------------------------
                                   SCF
            by Justin Turney, Rob Parrish, and Andy Simmonett
                              RHF Reference
                        4 Threads,   2000 MiB Core
         ---------------------------------------------------------

  ==> Geometry <==

    Molecular point group: c1
    Full point group: C1

    Geometry (in Angstrom), charge = 0, multiplicity = 1:

       Center              X                  Y                   Z               Mass       
    ------------   -----------------  -----------------  -----------------  -----------------
           O          0.076969113521     1.256820922759     0.124216668738    15.994914619560
           C          0.029571158618     0.073326279102     0.024701469887    12.000000000000
           C         -1.232752083188    -0.754676089721     0.026011766810    12.000000000000
           O          1.106451055156    -0.688743738348    -0.115199309805    15.994914619560
           C         -2.500669160940     0.089793559254     0.051476787564    12.000000000000
           H         -1.203211119517    -1.416124678940    -0.833167956662     1.007825032070
           H         -1.180916391249    -1.401282841854     0.898208902737     1.007825032070
           H         -2.567574231685     0.718755981115    -0.828632174551     1.007825032070
           H         -3.375765293853    -0.550504766806     0.079029332853     1.007825032070
           H         -2.520863913742     0.736170644345     0.919791175044     1.007825032070
           C          2.362195902184    -0.034165106519    -0.107040936298    12.000000000000
           H          2.425093827354     0.676007581593    -0.918909236982     1.007825032070
           H          3.100664054847    -0.810779806323    -0.231238448504     1.007825032070
           H          2.515682717709     0.482317738867     0.829565354645     1.007825032070

  Running in c1 symmetry.

  Rotational constants: A =      0.32678  B =      0.07194  C =      0.06097 [cm^-1]
  Rotational constants: A =   9796.74110  B =   2156.65925  C =   1827.72645 [MHz]
  Nuclear repulsion =  247.133010928752611

  Charge       = 0
  Multiplicity = 1
  Electrons    = 48
  Nalpha       = 24
  Nbeta        = 24

  ==> Algorithm <==

  SCF Algorithm Type is DF.
  DIIS enabled.
  MOM disabled.
  Fractional occupation disabled.
  Guess Type is READ.
  Energy threshold   = 1.00e-08
  Density threshold  = 1.00e-08
  Integral threshold = 0.00e+00

  ==> Primary Basis <==

  Basis Set: 6-31G*
    Number of shells: 52
    Number of basis function: 106
    Number of Cartesian functions: 106
    Spherical Harmonics?: false
    Max angular momentum: 2

  ==> Pre-Iterations <==

   -------------------------------------------------------
    Irrep   Nso     Nmo     Nalpha   Nbeta   Ndocc  Nsocc
   -------------------------------------------------------
     A        106     106       0       0       0       0
   -------------------------------------------------------
    Total     106     106      24      24      24       0
   -------------------------------------------------------

 OEINTS: Overlap, kinetic, potential, dipole, and quadrupole integrals
         stored in file 35.

  ==> Integral Setup <==

  ==> DFJK: Density-Fitted J/K Matrices <==

    J tasked:                  Yes
    K tasked:                  Yes
    wK tasked:                  No
    OpenMP threads:              4
    Integrals threads:           4
    Memory (MB):              1430
    Algorithm:                Core
    Integral Cache:           NONE
    Schwarz Cutoff:          1E-12
    Fitting Condition:       1E-12

   => Auxiliary Basis Set <=

  Basis Set: 
    Number of shells: 216
    Number of basis function: 686
    Number of Cartesian functions: 686
    Spherical Harmonics?: false
    Max angular momentum: 3

  Minimum eigenvalue in the overlap matrix is 3.3312504688E-03.
  Using Symmetric Orthogonalization.
  SCF Guess: Reading in previously saved MOs, projecting if necessary.

  Using orbitals from previous SCF, no projection.
  Recomputing DOCC and SOCC from number of alpha and beta electrons from previous calculation.
              A 
    DOCC [    24 ]

  ==> Iterations <==

                           Total Energy        Delta E     RMS |[F,P]|

   @DF-RHF iter   0:  -305.87137843040068   -3.05871e+02   4.13720e-04 
   @DF-RHF iter   1:  -305.87209072892006   -7.12299e-04   5.29211e-05 
   @DF-RHF iter   2:  -305.87212014939723   -2.94205e-05   1.84126e-05 DIIS
   @DF-RHF iter   3:  -305.87212481860706   -4.66921e-06   6.01052e-06 DIIS
   @DF-RHF iter   4:  -305.87212512689416   -3.08287e-07   2.68173e-06 DIIS
   @DF-RHF iter   5:  -305.87212522334141   -9.64473e-08   1.02472e-06 DIIS
   @DF-RHF iter   6:  -305.87212523916173   -1.58203e-08   2.35876e-07 DIIS
   @DF-RHF iter   7:  -305.87212523987455   -7.12816e-10   6.19948e-08 DIIS
   @DF-RHF iter   8:  -305.87212523991775   -4.32010e-11   2.29410e-08 DIIS
   @DF-RHF iter   9:  -305.87212523992514   -7.38964e-12   1.00241e-08 DIIS
   @DF-RHF iter  10:  -305.87212523992696   -1.81899e-12   4.32351e-09 DIIS

  ==> Post-Iterations <==

    Orbital Energies (a.u.)
    -----------------------

    Doubly Occupied:                                                      

       1A    -20.604614     2A    -20.546261     3A    -11.372953  
       4A    -11.281500     5A    -11.238759     6A    -11.216767  
       7A     -1.470249     8A     -1.363737     9A     -1.064412  
      10A     -0.980336    11A     -0.878453    12A     -0.768968  
      13A     -0.700781    14A     -0.682840    15A     -0.671761  
      16A     -0.621137    17A     -0.602568    18A     -0.544363  
      19A     -0.537461    20A     -0.522098    21A     -0.514215  
      22A     -0.496214    23A     -0.457340    24A     -0.439334  

    Virtual:                                                              

      25A      0.198651    26A      0.238753    27A      0.264748  
      28A      0.295504    29A      0.306054    30A      0.307441  
      31A      0.319396    32A      0.328660    33A      0.330617  
      34A      0.363220    35A      0.410965    36A      0.444527  
      37A      0.514065    38A      0.555814    39A      0.718736  
      40A      0.720661    41A      0.744088    42A      0.762024  
      43A      0.789276    44A      0.808543    45A      0.813142  
      46A      0.906805    47A      0.916626    48A      0.967703  
      49A      0.986509    50A      1.000995    51A      1.066835  
      52A      1.112592    53A      1.124873    54A      1.132512  
      55A      1.135243    56A      1.175953    57A      1.184596  
      58A      1.192660    59A      1.210449    60A      1.232899  
      61A      1.251066    62A      1.290690    63A      1.323529  
      64A      1.373857    65A      1.398385    66A      1.538997  
      67A      1.624783    68A      1.657420    69A      1.685108  
      70A      1.788651    71A      1.803696    72A      1.819318  
      73A      1.898631    74A      1.977541    75A      2.065813  
      76A      2.078742    77A      2.138693    78A      2.183056  
      79A      2.201031    80A      2.272011    81A      2.294297  
      82A      2.328061    83A      2.387768    84A      2.398861  
      85A      2.443397    86A      2.496497    87A      2.566639  
      88A      2.644004    89A      2.660309    90A      2.670884  
      91A      2.700512    92A      2.764744    93A      2.824538  
      94A      2.867257    95A      3.011000    96A      3.069067  
      97A      3.149324    98A      3.347533    99A      3.442112  
     100A      3.571903   101A      4.409119   102A      4.554636  
     103A      4.619979   104A      4.704391   105A      4.777774  
     106A      4.955256  

    Final Occupation by Irrep:
              A 
    DOCC [    24 ]

  Energy converged.

  @DF-RHF Final Energy:  -305.87212523992696

   => Energetics <=

    Nuclear Repulsion Energy =            247.1330109287526113
    One-Electron Energy =                -906.8560286782760613
    Two-Electron Energy =                 353.8508925095964059
    DFT Exchange-Correlation Energy =       0.0000000000000000
    Empirical Dispersion Energy =           0.0000000000000000
    PCM Polarization Energy =               0.0000000000000000
    EFP Energy =                            0.0000000000000000
    Total Energy =                       -305.8721252399270725

    Alert: EFP and PCM quantities not currently incorporated into SCF psivars.

Properties will be evaluated at   0.000000,   0.000000,   0.000000 Bohr
  ==> Properties <==


Properties computed using the SCF density matrix

  Nuclear Dipole Moment: (a.u.)
     X:    -2.6257      Y:    -1.4648      Z:    -0.0800

  Electronic Dipole Moment: (a.u.)
     X:     2.8254      Y:     0.7616      Z:     0.0284

  Dipole Moment: (a.u.)
     X:     0.1998      Y:    -0.7032      Z:    -0.0516     Total:     0.7328

  Dipole Moment: (Debye)
     X:     0.5077      Y:    -1.7874      Z:    -0.1312     Total:     1.8627


  Saving occupied orbitals to File 180.

*** tstop() called on cx1-1-3-2.cx1.hpc.ic.ac.uk at Fri Sep  2 12:05:36 2016
Module time:
	user time   =       9.07 seconds =       0.15 minutes
	system time =       0.10 seconds =       0.00 minutes
	total time  =          3 seconds =       0.05 minutes
Total time:
	user time   =      54.09 seconds =       0.90 minutes
	system time =       0.74 seconds =       0.01 minutes
	total time  =         18 seconds =       0.30 minutes

*** tstart() called on cx1-1-3-2.cx1.hpc.ic.ac.uk
*** at Fri Sep  2 12:05:36 2016


         ------------------------------------------------------------
                                   SCF GRAD                          
                          Rob Parrish, Justin Turney,                
                       Andy Simmonett, and Alex Sokolov              
         ------------------------------------------------------------

  ==> Geometry <==

    Molecular point group: c1
    Full point group: C1

    Geometry (in Angstrom), charge = 0, multiplicity = 1:

       Center              X                  Y                   Z               Mass       
    ------------   -----------------  -----------------  -----------------  -----------------
           O          0.076969113521     1.256820922759     0.124216668738    15.994914619560
           C          0.029571158618     0.073326279102     0.024701469887    12.000000000000
           C         -1.232752083188    -0.754676089721     0.026011766810    12.000000000000
           O          1.106451055156    -0.688743738348    -0.115199309805    15.994914619560
           C         -2.500669160940     0.089793559254     0.051476787564    12.000000000000
           H         -1.203211119517    -1.416124678940    -0.833167956662     1.007825032070
           H         -1.180916391249    -1.401282841854     0.898208902737     1.007825032070
           H         -2.567574231685     0.718755981115    -0.828632174551     1.007825032070
           H         -3.375765293853    -0.550504766806     0.079029332853     1.007825032070
           H         -2.520863913742     0.736170644345     0.919791175044     1.007825032070
           C          2.362195902184    -0.034165106519    -0.107040936298    12.000000000000
           H          2.425093827354     0.676007581593    -0.918909236982     1.007825032070
           H          3.100664054847    -0.810779806323    -0.231238448504     1.007825032070
           H          2.515682717709     0.482317738867     0.829565354645     1.007825032070

  Nuclear repulsion =  247.133010928752611

  ==> Basis Set <==

  Basis Set: 6-31G*
    Number of shells: 52
    Number of basis function: 106
    Number of Cartesian functions: 106
    Spherical Harmonics?: false
    Max angular momentum: 2

  ==> DFJKGrad: Density-Fitted SCF Gradients <==

    Gradient:                    1
    J tasked:                  Yes
    K tasked:                  Yes
    wK tasked:                  No
    OpenMP threads:              4
    Integrals threads:           4
    Memory (MB):              1430
    Schwarz Cutoff:          0E+00
    Fitting Condition:       1E-12

   => Auxiliary Basis Set <=

  Basis Set: 
    Number of shells: 216
    Number of basis function: 686
    Number of Cartesian functions: 686
    Spherical Harmonics?: false
    Max angular momentum: 3


  -Total Gradient:
     Atom            X                  Y                   Z
    ------   -----------------  -----------------  -----------------
       1       -0.000116036873     0.000100285628    -0.001319273743
       2        0.000311140815    -0.000395244064     0.004274435893
       3       -0.000368545980     0.000289918253    -0.003454028351
       4        0.000008473817     0.000195462409    -0.001535989806
       5       -0.000040484161     0.000011533341     0.001184082187
       6       -0.000043130856    -0.000616814795     0.000626228307
       7        0.000241593670     0.000410867947     0.000268204735
       8        0.000046132819    -0.000034058268    -0.000199766696
       9        0.000026743402     0.000042016645    -0.000044101299
      10       -0.000066711547     0.000042614075    -0.000113902210
      11        0.000009086118    -0.000072043185     0.000445800238
      12       -0.000046834746     0.000023327819    -0.000047674473
      13        0.000006237388     0.000005295425    -0.000040219846
      14        0.000032336130    -0.000003161231    -0.000043794936


*** tstop() called on cx1-1-3-2.cx1.hpc.ic.ac.uk at Fri Sep  2 12:05:40 2016
Module time:
	user time   =      12.20 seconds =       0.20 minutes
	system time =       0.14 seconds =       0.00 minutes
	total time  =          4 seconds =       0.07 minutes
Total time:
	user time   =      66.31 seconds =       1.11 minutes
	system time =       0.88 seconds =       0.01 minutes
	total time  =         22 seconds =       0.37 minutes
CURRENT ENERGY: -305.8721252399

			-----------------------------------------
			 OPTKING 2.0: for geometry optimizations 
			  - R.A. King,  Bethel University        
			-----------------------------------------

	Previous internal coordinate definitions found.
	---Fragment 1 Geometry and Gradient---
	 O           0.1454505452        2.3750473421        0.2347354851
	 C           0.0558813912        0.1385665858        0.0466790132
	 C          -2.3295638270       -1.4261311286        0.0491551155
	 O           2.0908894737       -1.3015370412       -0.2176951462
	 C          -4.7255798631        0.1696852355        0.0972770307
	 H          -2.2737394959       -2.6760878132       -1.5744592608
	 H          -2.2316085653       -2.6480408058        1.6973688363
	 H          -4.8520121237        1.3582519607       -1.5658878748
	 H          -6.3792718943       -1.0403032441        0.1493437956
	 H          -4.7637424152        1.3911609049        1.7381534203
	 C           4.4639033274       -0.0645626946       -0.2022780546
	 H           4.5827631803        1.2774691930       -1.7364867989
	 H           5.8594058937       -1.5321517880       -0.4369773391
	 H           4.7539513737        0.9114484355        1.5676513296
	            -0.0001160369        0.0001002856       -0.0013192737
	             0.0003111408       -0.0003952441        0.0042744359
	            -0.0003685460        0.0002899183       -0.0034540284
	             0.0000084738        0.0001954624       -0.0015359898
	            -0.0000404842        0.0000115333        0.0011840822
	            -0.0000431309       -0.0006168148        0.0006262283
	             0.0002415937        0.0004108679        0.0002682047
	             0.0000461328       -0.0000340583       -0.0001997667
	             0.0000267434        0.0000420166       -0.0000441013
	            -0.0000667115        0.0000426141       -0.0001139022
	             0.0000090861       -0.0000720432        0.0004458002
	            -0.0000468347        0.0000233278       -0.0000476745
	             0.0000062374        0.0000052954       -0.0000402198
	             0.0000323361       -0.0000031612       -0.0000437949

	---Fragment 1 Intrafragment Coordinates---
	 - Coordinate -           - BOHR/RAD -       - ANG/DEG -
	 R(1,2)           =         2.246160	       1.188617
	 R(2,3)           =         2.852829	       1.509652
	 R(2,4)           =         2.507000	       1.326647
	 R(3,5)           =         2.879208	       1.523611
	 R(3,6)           =         2.049788	       1.084701
	 R(3,7)           =         2.054085	       1.086975
	 R(4,11)          =         2.676105	       1.416134
	 R(5,8)           =         2.048119	       1.083818
	 R(5,9)           =         2.049751	       1.084682
	 R(5,10)          =         2.045956	       1.082673
	 R(11,12)         =         2.041806	       1.080478
	 R(11,13)         =         2.038708	       1.078838
	 R(11,14)         =         2.041905	       1.080530
	 B(1,2,3)         =         2.188764	     125.406925
	 B(1,2,4)         =         2.151267	     123.258525
	 B(2,3,5)         =         1.973451	     113.070433
	 B(2,3,6)         =         1.887039	     108.119350
	 B(2,3,7)         =         1.861984	     106.683809
	 B(2,4,11)        =         2.041673	     116.979250
	 B(3,2,4)         =         1.943113	     111.332158
	 B(3,5,8)         =         1.938469	     111.066113
	 B(3,5,9)         =         1.922635	     110.158897
	 B(3,5,10)        =         1.938880	     111.089642
	 B(4,11,12)       =         1.929546	     110.554841
	 B(4,11,13)       =         1.847902	     105.876993
	 B(4,11,14)       =         1.930391	     110.603241
	 B(5,3,6)         =         1.953992	     111.955487
	 B(5,3,7)         =         1.934762	     110.853678
	 B(6,3,7)         =         1.845779	     105.755334
	 B(8,5,9)         =         1.889561	     108.263847
	 B(8,5,10)        =         1.879321	     107.677170
	 B(9,5,10)        =         1.893367	     108.481944
	 B(12,11,13)      =         1.924953	     110.291693
	 B(12,11,14)      =         1.905906	     109.200371
	 B(13,11,14)      =         1.924786	     110.282120
	 D(1,2,3,5)       =         0.085725	       4.911685
	 D(1,2,3,6)       =         2.259338	     129.450528
	 D(1,2,3,7)       =        -2.045541	    -117.200889
	 D(1,2,4,11)      =         0.029382	       1.683452
	 D(2,3,5,8)       =         1.075268	      61.608330
	 D(2,3,5,9)       =        -3.114489	    -178.447052
	 D(2,3,5,10)      =        -1.016028	     -58.214101
	 D(2,4,11,12)     =        -1.056670	     -60.542710
	 D(2,4,11,13)     =        -3.141531	    -179.996482
	 D(2,4,11,14)     =         1.056537	      60.535123
	 D(3,2,4,11)      =        -3.121558	    -178.852123
	 D(4,2,3,5)       =        -3.046277	    -174.538844
	*D(4,2,3,6)       =        -0.872665	     -50.000001
	 D(4,2,3,7)       =         1.105641	      63.348582
	 D(6,3,5,8)       =        -1.061416	     -60.814657
	 D(6,3,5,9)       =         1.032013	      59.129961
	 D(6,3,5,10)      =         3.130473	     179.362912
	 D(7,3,5,8)       =        -3.117937	    -178.644648
	 D(7,3,5,9)       =        -1.024509	     -58.700030
	 D(7,3,5,10)      =         1.073952	      61.532921

	Current energy   :      -305.8721252399

	Energy change for the previous step:
		Projected    :         0.0000053639
		Actual       :         0.0000224279

	Performing BFGS update.
	Previous computed or guess Hessian on step 1.
	Steps to be used in Hessian update: 2 1
	Taking RFO optimization step.
	Going to follow RFO solution 1.
	Using RFO vector 1.
	Norm of target step-size    0.05373
	Projected energy change by RFO approximation:        -0.0000804391

	Back-transformation to cartesian coordinates...
	Successfully converged to displaced geometry.

	Back-transformation to cartesian coordinates to adjust frozen coordinates...
	Successfully converged to displaced geometry.

	--- Internal Coordinate Step in ANG or DEG, aJ/ANG or AJ/DEG ---
	 ---------------------------------------------------------------------------
	   Coordinate                Previous        Force       Change         New 
	   ----------                --------       ------       ------       ------
	    1 R(1,2)          =      1.188617     0.000125    -0.000003     1.188613
	    2 R(2,3)          =      1.509652    -0.000736    -0.000090     1.509562
	    3 R(2,4)          =      1.326647    -0.000419    -0.000023     1.326624
	    4 R(3,5)          =      1.523611    -0.000633    -0.000066     1.523546
	    5 R(3,6)          =      1.084701     0.000997     0.000470     1.085171
	    6 R(3,7)          =      1.086975     0.000146    -0.000375     1.086600
	    7 R(4,11)         =      1.416134     0.000156     0.000024     1.416158
	    8 R(5,8)          =      1.083818    -0.001150    -0.000268     1.083550
	    9 R(5,9)          =      1.084682     0.000391     0.000063     1.084745
	   10 R(5,10)         =      1.082673     0.000533     0.000201     1.082874
	   11 R(11,12)        =      1.080478    -0.000399    -0.000020     1.080458
	   12 R(11,13)        =      1.078838    -0.000042    -0.000006     1.078832
	   13 R(11,14)        =      1.080530     0.000287    -0.000000     1.080530
	   14 B(1,2,3)        =    125.406925     0.000010     0.023327   125.430251
	   15 B(1,2,4)        =    123.258525     0.000003     0.005550   123.264075
	   16 B(2,3,5)        =    113.070433     0.000012     0.011371   113.081804
	   17 B(2,3,6)        =    108.119350    -0.000043    -0.348735   107.770615
	   18 B(2,3,7)        =    106.683809     0.000025     0.351153   107.034963
	   19 B(2,4,11)       =    116.979250     0.000001     0.002854   116.982103
[...]
           H         -1.198491487366    -1.413455467677    -0.831397848394     1.007825032070
           H         -1.185611396680    -1.402864823761     0.900596182604     1.007825032070
           H         -2.556507375745     0.722949949015    -0.835597503904     1.007825032070
           H         -3.376079198795    -0.550682017526     0.056204325204     1.007825032070
           H         -2.532217738757     0.732308954905     0.913168667753     1.007825032070
           C          2.361422677802    -0.033887070490    -0.117845403955    12.000000000000
           H          2.420113850726     0.671856635400    -0.933870881436     1.007825032070
           H          3.099337010494    -0.811085647998    -0.241631565042     1.007825032070
           H          2.519582949274     0.487688228583     0.815138275587     1.007825032070

  Nuclear repulsion =  247.134068461479188

  ==> Basis Set <==

  Basis Set: 6-31G*
    Number of shells: 52
    Number of basis function: 106
    Number of Cartesian functions: 106
    Spherical Harmonics?: false
    Max angular momentum: 2

  ==> DFJKGrad: Density-Fitted SCF Gradients <==

    Gradient:                    1
    J tasked:                  Yes
    K tasked:                  Yes
    wK tasked:                  No
    OpenMP threads:              4
    Integrals threads:           4
    Memory (MB):              1430
    Schwarz Cutoff:          0E+00
    Fitting Condition:       1E-12

   => Auxiliary Basis Set <=

  Basis Set: 
    Number of shells: 216
    Number of basis function: 686
    Number of Cartesian functions: 686
    Spherical Harmonics?: false
    Max angular momentum: 3


  -Total Gradient:
     Atom            X                  Y                   Z
    ------   -----------------  -----------------  -----------------
       1       -0.000001124430    -0.000003990679    -0.000008986350
       2        0.000057274030    -0.000081901517     0.000423038503
       3       -0.000198023771     0.000304706809    -0.000305818181
       4       -0.000021416423     0.000025751124    -0.000313308664
       5        0.000002606368    -0.000000263793    -0.000010427573
       6        0.000158466009    -0.000234515017     0.000188514805
       7        0.000000170282    -0.000006287304     0.000002754390
       8       -0.000001461040     0.000001210284     0.000000739450
       9        0.000000630395    -0.000000667300    -0.000001473500
      10        0.000002888141    -0.000002382907     0.000000748774
      11        0.000001132854    -0.000004546300     0.000050299145
      12       -0.000011458907     0.000000109945    -0.000008464846
      13       -0.000000413390     0.000000755820    -0.000007966279
      14        0.000010729884     0.000002020837    -0.000009649672


*** tstop() called on cx1-1-3-2.cx1.hpc.ic.ac.uk at Fri Sep  2 12:05:54 2016
Module time:
	user time   =      12.15 seconds =       0.20 minutes
	system time =       0.13 seconds =       0.00 minutes
	total time  =          4 seconds =       0.07 minutes
Total time:
	user time   =     110.66 seconds =       1.84 minutes
	system time =       1.45 seconds =       0.02 minutes
	total time  =         36 seconds =       0.60 minutes
CURRENT ENERGY: -305.8721632971

			-----------------------------------------
			 OPTKING 2.0: for geometry optimizations 
			  - R.A. King,  Bethel University        
			-----------------------------------------

	Previous internal coordinate definitions found.
	---Fragment 1 Geometry and Gradient---
	 O           0.1482273082        2.3731783275        0.2655968539
	 C           0.0557743392        0.1393616155        0.0494169862
	 C          -2.3292936347       -1.4254806207        0.0566241391
	 O           2.0896039162       -1.3015362567       -0.2189051786
	 C          -4.7257960268        0.1698622966        0.0793979684
	 H          -2.2648206837       -2.6710437349       -1.5711142409
	 H          -2.2404808398       -2.6510303184        1.7018801414
	 H          -4.8310987969        1.3661774114       -1.5790504397
	 H          -6.3798650887       -1.0406381994        0.1062107821
	 H          -4.7851980351        1.3838633694        1.7256386952
	 C           4.4624421450       -0.0640372827       -0.2226955395
	 H           4.5733523883        1.2696250415       -1.7647602094
	 H           5.8568981433       -1.5327297450       -0.4566174830
	 H           4.7613217432        0.9215971903        1.5403881013
	            -0.0000011244       -0.0000039907       -0.0000089864
	             0.0000572740       -0.0000819015        0.0004230385
	            -0.0001980238        0.0003047068       -0.0003058182
	            -0.0000214164        0.0000257511       -0.0003133087
	             0.0000026064       -0.0000002638       -0.0000104276
	             0.0001584660       -0.0002345150        0.0001885148
	             0.0000001703       -0.0000062873        0.0000027544
	            -0.0000014610        0.0000012103        0.0000007394
	             0.0000006304       -0.0000006673       -0.0000014735
	             0.0000028881       -0.0000023829        0.0000007488
	             0.0000011329       -0.0000045463        0.0000502991
	            -0.0000114589        0.0000001099       -0.0000084648
	            -0.0000004134        0.0000007558       -0.0000079663
	             0.0000107299        0.0000020208       -0.0000096497

	---Fragment 1 Intrafragment Coordinates---
	 - Coordinate -           - BOHR/RAD -       - ANG/DEG -
	 R(1,2)           =         2.246156	       1.188615
	 R(2,3)           =         2.852601	       1.509532
	 R(2,4)           =         2.506920	       1.326605
	 R(3,5)           =         2.879038	       1.523522
	 R(3,6)           =         2.050638	       1.085151
	 R(3,7)           =         2.053467	       1.086648
	 R(4,11)          =         2.676150	       1.416158
	 R(5,8)           =         2.047611	       1.083549
	 R(5,9)           =         2.049872	       1.084746
	 R(5,10)          =         2.046322	       1.082867
	 R(11,12)         =         2.041793	       1.080471
	 R(11,13)         =         2.038697	       1.078832
	 R(11,14)         =         2.041879	       1.080516
	 B(1,2,3)         =         2.189187	     125.431163
	 B(1,2,4)         =         2.151388	     123.265469
	 B(2,3,5)         =         1.973618	     113.079975
	 B(2,3,6)         =         1.880638	     107.752632
	 B(2,3,7)         =         1.868429	     107.053120
	 B(2,4,11)        =         2.041714	     116.981619
	 B(3,2,4)         =         1.942594	     111.302412
	 B(3,5,8)         =         1.939222	     111.109240
	 B(3,5,9)         =         1.922558	     110.154441
	 B(3,5,10)        =         1.938278	     111.055145
	 B(4,11,12)       =         1.929730	     110.565378
	 B(4,11,13)       =         1.847830	     105.872889
	 B(4,11,14)       =         1.930263	     110.595941
	 B(5,3,6)         =         1.948757	     111.655559
	 B(5,3,7)         =         1.939467	     111.123255
	 B(6,3,7)         =         1.846378	     105.789693
	 B(8,5,9)         =         1.890316	     108.307141
	 B(8,5,10)        =         1.879144	     107.667017
	 B(9,5,10)        =         1.892716	     108.444642
	 B(12,11,13)      =         1.924894	     110.288321
	 B(12,11,14)      =         1.905915	     109.200883
	 B(13,11,14)      =         1.924850	     110.285760
	 D(1,2,3,5)       =         0.112684	       6.456299
	 D(1,2,3,6)       =         2.274989	     130.347264
	 D(1,2,3,7)       =        -2.029092	    -116.258404
	 D(1,2,4,11)      =         0.008069	       0.462291
	 D(2,3,5,8)       =         1.058438	      60.644043
	 D(2,3,5,9)       =        -3.129938	    -179.332210
	 D(2,3,5,10)      =        -1.032734	     -59.171315
	 D(2,4,11,12)     =        -1.057247	     -60.575766
	 D(2,4,11,13)     =         3.141091	     179.971250
	 D(2,4,11,14)     =         1.056009	      60.504866
	 D(3,2,4,11)      =        -3.127618	    -179.199301
	 D(4,2,3,5)       =        -3.034970	    -173.890966
	*D(4,2,3,6)       =        -0.872665	     -50.000001
	 D(4,2,3,7)       =         1.106440	      63.394330
	 D(6,3,5,8)       =        -1.066012	     -61.077975
	 D(6,3,5,9)       =         1.028798	      58.945772
	 D(6,3,5,10)      =         3.126001	     179.106667
	 D(7,3,5,8)       =        -3.122991	    -178.934195
	 D(7,3,5,9)       =        -1.028181	     -58.910448
	 D(7,3,5,10)      =         1.069022	      61.250447

	Current energy   :      -305.8721632971

	Energy change for the previous step:
		Projected    :        -0.0000009260
		Actual       :        -0.0000001589
	Energy ratio indicates iffy step: Trust radius decreased to 1.250e-01.


	Performing BFGS update.
	Previous computed or guess Hessian on step 1.
	Steps to be used in Hessian update: 4 3
	Taking RFO optimization step.
	Going to follow RFO solution 1.
	Using RFO vector 1.
	Norm of target step-size    0.00228
	Projected energy change by RFO approximation:        -0.0000000653

	Back-transformation to cartesian coordinates...
	Successfully converged to displaced geometry.

	Back-transformation to cartesian coordinates to adjust frozen coordinates...
	Successfully converged to displaced geometry.

	--- Internal Coordinate Step in ANG or DEG, aJ/ANG or AJ/DEG ---
	 ---------------------------------------------------------------------------
	   Coordinate                Previous        Force       Change         New 
	   ----------                --------       ------       ------       ------
	    1 R(1,2)          =      1.188615     0.000040     0.000002     1.188617
	    2 R(2,3)          =      1.509532     0.000043     0.000005     1.509537
	    3 R(2,4)          =      1.326605     0.000002    -0.000001     1.326604
	    4 R(3,5)          =      1.523522     0.000042     0.000006     1.523528
	    5 R(3,6)          =      1.085151     0.000018    -0.000000     1.085151
	    6 R(3,7)          =      1.086648    -0.000049    -0.000003     1.086645
	    7 R(4,11)         =      1.416158     0.000007     0.000001     1.416159
	    8 R(5,8)          =      1.083549    -0.000002     0.000001     1.083550
	    9 R(5,9)          =      1.084746     0.000001     0.000000     1.084746
	   10 R(5,10)         =      1.082867     0.000007    -0.000000     1.082867
	   11 R(11,12)        =      1.080471    -0.000048    -0.000006     1.080464
	   12 R(11,13)        =      1.078832    -0.000001    -0.000000     1.078832
	   13 R(11,14)        =      1.080516     0.000048     0.000006     1.080522
	   14 B(1,2,3)        =    125.431163    -0.000000    -0.000386   125.430777
	   15 B(1,2,4)        =    123.265469    -0.000000    -0.000431   123.265038
	   16 B(2,3,5)        =    113.079975     0.000000     0.000305   113.080281
	   17 B(2,3,6)        =    107.752632     0.000000     0.004047   107.756679
	   18 B(2,3,7)        =    107.053120    -0.000000    -0.004017   107.049103
	   19 B(2,4,11)       =    116.981619     0.000000     0.000625   116.982244
	   20 B(3,2,4)        =    111.302412     0.000000     0.000810   111.303223
	   21 B(3,5,8)        =    111.109240    -0.000000    -0.001032   111.108208
	   22 B(3,5,9)        =    110.154441     0.000000     0.000298   110.154739
	   23 B(3,5,10)       =    111.055145     0.000000     0.001398   111.056543
	   24 B(4,11,12)      =    110.565378     0.000002     0.008247   110.573625
	   25 B(4,11,13)      =    105.872889     0.000000     0.000061   105.872949
	   26 B(4,11,14)      =    110.595941    -0.000002    -0.008390   110.587551
	   27 B(5,3,6)        =    111.655559     0.000000     0.003097   111.658656
	   28 B(5,3,7)        =    111.123255    -0.000000    -0.003394   111.119861
	   29 B(6,3,7)        =    105.789693    -0.000000    -0.000158   105.789535
	   30 B(8,5,9)        =    108.307141     0.000000    -0.000460   108.306681
	   31 B(8,5,10)       =    107.667017    -0.000000    -0.000276   107.666741
	   32 B(9,5,10)       =    108.444642    -0.000000     0.000039   108.444681
	   33 B(12,11,13)     =    110.288321     0.000000     0.001777   110.290098
	   34 B(12,11,14)     =    109.200883     0.000000     0.000044   109.200927
	   35 B(13,11,14)     =    110.285760    -0.000000    -0.001739   110.284021
	   36 D(1,2,3,5)      =      6.456299    -0.000000    -0.005883     6.450417
	   37 D(1,2,3,6)      =    130.347264     0.000000     0.001229   130.348494
	   38 D(1,2,3,7)      =   -116.258404     0.000000     0.001026  -116.257379
	   39 D(1,2,4,11)     =      0.462291    -0.000000    -0.027637     0.434654
	   40 D(2,3,5,8)      =     60.644043     0.000000     0.018005    60.662048
	   41 D(2,3,5,9)      =   -179.332210     0.000000     0.016958  -179.315252
	   42 D(2,3,5,10)     =    -59.171315     0.000000     0.018109   -59.153206
	   43 D(2,4,11,12)    =    -60.575766     0.000000    -0.065371   -60.641136
	   44 D(2,4,11,13)    =    179.971250    -0.000000    -0.071974   179.899276
	   45 D(2,4,11,14)    =     60.504866     0.000000    -0.065408    60.439458
	   46 D(3,2,4,11)     =   -179.199301    -0.000000    -0.026439  -179.225740
	   47 D(4,2,3,5)      =   -173.890966    -0.000000    -0.007112  -173.898078
	   48 *D(4,2,3,6)     =    -50.000001    -0.000000     0.000000   -50.000001
	   49 D(4,2,3,7)      =     63.394330    -0.000000    -0.000204    63.394127
	   50 D(6,3,5,8)      =    -61.077975    -0.000000     0.010170   -61.067805
	   51 D(6,3,5,9)      =     58.945772    -0.000000     0.009123    58.954895
	   52 D(6,3,5,10)     =    179.106667    -0.000000     0.010274   179.116941
	   53 D(7,3,5,8)      =   -178.934195    -0.000000     0.010582  -178.923612
	   54 D(7,3,5,9)      =    -58.910448    -0.000000     0.009535   -58.900913
	   55 D(7,3,5,10)     =     61.250447    -0.000000     0.010686    61.261133
	 ---------------------------------------------------------------------------

  ==> Convergence Check <==

  Measures of convergence in internal coordinates in au.
  Criteria marked as inactive (o), active & met (*), and active & unmet ( ).
  ---------------------------------------------------------------------------------------------
   Step     Total Energy     Delta E     MAX Force     RMS Force      MAX Disp      RMS Disp   
  ---------------------------------------------------------------------------------------------
    Convergence Criteria    1.00e-06 *    3.00e-04 *             o    1.20e-03 *             o
  ---------------------------------------------------------------------------------------------
      5    -305.87216330   -1.59e-07 *    2.74e-05 *    6.47e-06 o    1.26e-03      3.07e-04 o  ~
  ---------------------------------------------------------------------------------------------


  **** Optimization is complete! (in 5 steps) ****

  ==> Optimization Summary <==

  Measures of convergence in internal coordinates in au.
  --------------------------------------------------------------------------------------------------------------- ~
   Step         Total Energy             Delta E       MAX Force       RMS Force        MAX Disp        RMS Disp  ~
  --------------------------------------------------------------------------------------------------------------- ~
      1    -305.872147703129   -305.872147703129      0.00046389      0.00016592      0.02501056      0.00708188  ~
      2    -305.872147667783      0.000000035346      0.00070350      0.00018544      0.04069980      0.00953242  ~
      3    -305.872125239927      0.000022427856      0.00083329      0.00024290      0.02786294      0.00724539  ~
      4    -305.872163138276     -0.000037898349      0.00006973      0.00001998      0.00180311      0.00070762  ~
      5    -305.872163297128     -0.000000158851      0.00002741      0.00000647      0.00125618      0.00030717  ~
  --------------------------------------------------------------------------------------------------------------- ~

	Writing optimization data to binary file.
	Final energy is   -305.8721632971277
	Final (previous) structure:
	Cartesian Geometry (in Angstrom)
	    O     0.0784385192   1.2558319787   0.1405478125
	    C     0.0295145114   0.0737469963   0.0261503448
	    C    -1.2326091977  -0.7543319134   0.0299642061
	    O     1.1057708519  -0.6887433758  -0.1158396402
	    C    -2.5007837408   0.0898872628   0.0420155985
	    H    -1.1984915789  -1.4134555756  -0.8313979119
	    H    -1.1856114872  -1.4028649309   0.9005962514
	    H    -2.5565075710   0.7229500042  -0.8355975677
	    H    -3.3760794566  -0.5506820596   0.0562043295
	    H    -2.5322179321   0.7323090108   0.9131687375
	    C     2.3614228581  -0.0338870731  -0.1178454130
	    H     2.4201140355   0.6718566867  -0.9338709528
	    H     3.0993372472  -0.8110857099  -0.2416315835
	    H     2.5195831417   0.4876882658   0.8151383378
	Saving final (previous) structure.
			--------------------------
			 OPTKING Finished Execution 
			--------------------------

    Final optimized geometry and variables:
    Molecular point group: c1
    Full point group: C1

    Geometry (in Angstrom), charge = 0, multiplicity = 1:

    O            0.078438513165     1.255831882821     0.140547801772
    C            0.029514509126     0.073746990697     0.026150342807
    C           -1.232609103619    -0.754331855778     0.029964203848
    O            1.105770767423    -0.688743323174    -0.115839631338
    C           -2.500783549849     0.089887255963     0.042015595271
    H           -1.198491487366    -1.413455467677    -0.831397848394
    H           -1.185611396680    -1.402864823761     0.900596182604
    H           -2.556507375745     0.722949949015    -0.835597503904
    H           -3.376079198795    -0.550682017526     0.056204325204
    H           -2.532217738757     0.732308954905     0.913168667753
    C            2.361422677802    -0.033887070490    -0.117845403955
    H            2.420113850726     0.671856635400    -0.933870881436
    H            3.099337010494    -0.811085647998    -0.241631565042
    H            2.519582949274     0.487688228583     0.815138275587

	Cleaning optimization helper files.


Properties will be evaluated at   0.000000,   0.000000,   0.000000 Bohr

Properties computed using the  density matrix

  Nuclear Dipole Moment: (a.u.)
     X:    -2.6285      Y:    -1.4628      Z:    -0.1474

  Electronic Dipole Moment: (a.u.)
     X:     2.8270      Y:     0.7609      Z:     0.0786

  Dipole Moment: (a.u.)
     X:     0.1986      Y:    -0.7019      Z:    -0.0688     Total:     0.7327

  Dipole Moment: (Debye)
     X:     0.5047      Y:    -1.7842      Z:    -0.1749     Total:     1.8624

  Quadrupole Moment: (Debye Ang)
    XX:   -30.3592     YY:   -41.3418     ZZ:   -35.4860
    XY:     1.5859     XZ:    -0.1761     YZ:    -0.7151

  Traceless Quadrupole Moment: (Debye Ang)
    XX:     5.3698     YY:    -5.6128     ZZ:     0.2430
    XY:     1.5859     XZ:    -0.1761     YZ:    -0.7151

  Mulliken Charges: (a.u.)
   Center  Symbol    Alpha    Beta     Spin     Total
       1     O     4.28527  4.28527  0.00000 -0.57053
       2     C     2.60814  2.60814  0.00000  0.78372
       3     C     3.20527  3.20527  0.00000 -0.41054
       4     O     4.30592  4.30592  0.00000 -0.61183
       5     C     3.23913  3.23913  0.00000 -0.47826
       6     H     0.40030  0.40030  0.00000  0.19940
       7     H     0.40005  0.40005  0.00000  0.19990
       8     H     0.41121  0.41121  0.00000  0.17759
       9     H     0.41781  0.41781  0.00000  0.16438
      10     H     0.40835  0.40835  0.00000  0.18329
      11     C     3.09237  3.09237  0.00000 -0.18473
      12     H     0.40876  0.40876  0.00000  0.18248
      13     H     0.40837  0.40837  0.00000  0.18325
      14     H     0.40906  0.40906  0.00000  0.18188

   Total alpha = 24.00000, Total beta = 24.00000, Total charge = -0.00000


*** PSI4 exiting successfully. Buy a developer a beer!
