    -----------------------------------------------------------------------
          Psi4: An Open-Source Ab Initio Electronic Structure Package
                              Psi4 (no tag) Driver

                          Git: Rev {detached?}  

    J. M. Turney, A. C. Simmonett, R. M. Parrish, E. G. Hohenstein,
    F. A. Evangelista, J. T. Fermann, B. J. Mintz, L. A. Burns, J. J. Wilke,
    M. L. Abrams, N. J. Russ, M. L. Leininger, C. L. Janssen, E. T. Seidl,
    W. D. Allen, H. F. Schaefer, R. A. King, E. F. Valeev, C. D. Sherrill,
    and T. D. Crawford, WIREs Comput. Mol. Sci. 2, 556-565 (2012)
    (doi: 10.1002/wcms.93)

                         Additional Contributions by
    A. E. DePrince, M. Saitow, U. Bozkaya, A. Yu. Sokolov
    -----------------------------------------------------------------------


    Psi4 started on: Fri Sep  2 13:29:23 2016

    Process ID:  17853
    PSI4DATADIR: /export131/home/mjharvey/miniconda3/share
    Memory level set to 256.000 MB

  ==> Input File <==

--------------------------------------------------------------------------
set {
	reference rhf
	basis 6-31G*
}


set_num_threads( 4 )
memory 2 gb

molecule MOL {
0 1

O	 0.625848	 1.349995	 -0.000749
C	 0.486307	 0.169203	 0.000779
C	 1.608116	 -0.841643	 0.000302
O	 -0.698257	 -0.426125	 0.001050
C	 2.990107	 -0.200498	 -0.000684
H	 1.468623	 -1.481519	 -0.865924
H	 1.469683	 -1.481289	 0.866878
H	 3.129736	 0.423364	 -0.875135
H	 3.757882	 -0.966877	 -0.001197
H	 3.130964	 0.423383	 0.873533
C	 -1.480346	 -0.335460	 -1.185338
C	 -2.770724	 -1.087441	 -0.936819
H	 -0.922400	 -0.760190	 -2.008675
H	 -1.661777	 0.706905	 -1.409277
H	 -2.571613	 -2.128321	 -0.708604
H	 -3.399772	 -1.043691	 -1.820014
H	 -3.315155	 -0.653233	 -0.105968

	symmetry c1
}
set optking {
	frozen_dihedral = ("
		11 4 2 3
	")
}

ee = optimize('scf')
oeprop('DIPOLE', 'QUADRUPOLE', 'MULLIKEN_CHARGES')
f=open( 'psi4out.xyz', 'w' )
f.write( "17  " )
f.write( str(ee) + "\n" )
f.write( MOL.save_string_xyz() )
f.close()
--------------------------------------------------------------------------

  Memory set to   2.000 GiB by Python script.
gradient() will perform analytic gradient computation.

*** tstart() called on cx1-1-4-3.cx1.hpc.ic.ac.uk
*** at Fri Sep  2 13:29:23 2016


         ---------------------------------------------------------
                                   SCF
            by Justin Turney, Rob Parrish, and Andy Simmonett
                              RHF Reference
                        4 Threads,   2000 MiB Core
         ---------------------------------------------------------

  ==> Geometry <==

    Molecular point group: c1
    Full point group: C1

    Geometry (in Angstrom), charge = 0, multiplicity = 1:

       Center              X                  Y                   Z               Mass       
    ------------   -----------------  -----------------  -----------------  -----------------
           O          0.528481471766     1.543873321471     0.308437421533    15.994914619560
           C          0.388940471766     0.363081321471     0.309965421533    12.000000000000
           C          1.510749471766    -0.647764678529     0.309488421533    12.000000000000
           O         -0.795623528234    -0.232246678529     0.310236421533    15.994914619560
           C          2.892740471766    -0.006619678529     0.308502421533    12.000000000000
           H          1.371256471766    -1.287640678529    -0.556737578467     1.007825032070
           H          1.372316471766    -1.287410678529     1.176064421533     1.007825032070
           H          3.032369471766     0.617242321471    -0.565948578467     1.007825032070
           H          3.660515471766    -0.772998678529     0.307989421533     1.007825032070
           H          3.033597471766     0.617261321471     1.182719421533     1.007825032070
           C         -1.577712528234    -0.141581678529    -0.876151578467    12.000000000000
           C         -2.868090528234    -0.893562678529    -0.627632578467    12.000000000000
           H         -1.019766528234    -0.566311678529    -1.699488578467     1.007825032070
           H         -1.759143528234     0.900783321471    -1.100090578467     1.007825032070
           H         -2.668979528234    -1.934442678529    -0.399417578467     1.007825032070
           H         -3.497138528234    -0.849812678529    -1.510827578467     1.007825032070
           H         -3.412521528234    -0.459354678529     0.203218421533     1.007825032070

  Running in c1 symmetry.

  Rotational constants: A =      0.22465  B =      0.04419  C =      0.03969 [cm^-1]
  Rotational constants: A =   6734.89413  B =   1324.79911  C =   1189.76363 [MHz]
  Nuclear repulsion =  315.048761054923261

  Charge       = 0
  Multiplicity = 1
  Electrons    = 56
  Nalpha       = 28
  Nbeta        = 28

  ==> Algorithm <==

  SCF Algorithm Type is DF.
  DIIS enabled.
  MOM disabled.
  Fractional occupation disabled.
  Guess Type is CORE.
  Energy threshold   = 1.00e-08
  Density threshold  = 1.00e-08
  Integral threshold = 0.00e+00

  ==> Primary Basis <==

  Basis Set: 6-31G*
    Number of shells: 62
    Number of basis function: 125
    Number of Cartesian functions: 125
    Spherical Harmonics?: false
    Max angular momentum: 2

  ==> Pre-Iterations <==

   -------------------------------------------------------
    Irrep   Nso     Nmo     Nalpha   Nbeta   Ndocc  Nsocc
   -------------------------------------------------------
     A        125     125       0       0       0       0
   -------------------------------------------------------
    Total     125     125      28      28      28       0
   -------------------------------------------------------

 OEINTS: Overlap, kinetic, potential, dipole, and quadrupole integrals
         stored in file 35.

  ==> Integral Setup <==

  ==> DFJK: Density-Fitted J/K Matrices <==

    J tasked:                  Yes
    K tasked:                  Yes
    wK tasked:                  No
    OpenMP threads:              4
    Integrals threads:           4
    Memory (MB):              1430
    Algorithm:                Core
    Integral Cache:           NONE
    Schwarz Cutoff:          1E-12
    Fitting Condition:       1E-12

   => Auxiliary Basis Set <=

  Basis Set: 
    Number of shells: 258
    Number of basis function: 817
    Number of Cartesian functions: 817
    Spherical Harmonics?: false
    Max angular momentum: 3

  Minimum eigenvalue in the overlap matrix is 3.5301532569E-03.
  Using Symmetric Orthogonalization.
  SCF Guess: Core (One-Electron) Hamiltonian.

  ==> Iterations <==

                           Total Energy        Delta E     RMS |[F,P]|

   @DF-RHF iter   1:  -236.98453310169612   -2.36985e+02   8.02691e-02 
   @DF-RHF iter   2:  -216.23886874027539    2.07457e+01   6.52863e-02 DIIS
   @DF-RHF iter   3:  -310.82368823202967   -9.45848e+01   4.24637e-02 DIIS
   @DF-RHF iter   4:  -343.82408772017357   -3.30004e+01   1.12802e-02 DIIS
   @DF-RHF iter   5:  -344.56566086550413   -7.41573e-01   6.79973e-03 DIIS
   @DF-RHF iter   6:  -344.84584172521545   -2.80181e-01   2.33231e-03 DIIS
   @DF-RHF iter   7:  -344.88524829600260   -3.94066e-02   9.70484e-04 DIIS
   @DF-RHF iter   8:  -344.89363733593927   -8.38904e-03   3.29544e-04 DIIS
   @DF-RHF iter   9:  -344.89471392920404   -1.07659e-03   8.18136e-05 DIIS
   @DF-RHF iter  10:  -344.89478913850803   -7.52093e-05   2.58129e-05 DIIS
   @DF-RHF iter  11:  -344.89479703099846   -7.89249e-06   9.79476e-06 DIIS
   @DF-RHF iter  12:  -344.89479805287488   -1.02188e-06   2.35143e-06 DIIS
   @DF-RHF iter  13:  -344.89479814510855   -9.22337e-08   7.56574e-07 DIIS
   @DF-RHF iter  14:  -344.89479815771597   -1.26074e-08   2.57434e-07 DIIS
   @DF-RHF iter  15:  -344.89479815909885   -1.38289e-09   9.02486e-08 DIIS
   @DF-RHF iter  16:  -344.89479815927859   -1.79739e-10   3.71817e-08 DIIS
   @DF-RHF iter  17:  -344.89479815931020   -3.16049e-11   1.18964e-08 DIIS
   @DF-RHF iter  18:  -344.89479815931463   -4.43379e-12   3.92928e-09 DIIS

  ==> Post-Iterations <==

    Orbital Energies (a.u.)
    -----------------------

    Doubly Occupied:                                                      

       1A    -20.585370     2A    -20.552053     3A    -11.372156  
       4A    -11.295738     5A    -11.238175     6A    -11.226019  
       7A    -11.215717     8A     -1.462769     9A     -1.364565  
      10A     -1.067166    11A     -1.036714    12A     -0.906620  
      13A     -0.861213    14A     -0.773246    15A     -0.699979  
      16A     -0.684590    17A     -0.659559    18A     -0.632612  
      19A     -0.601966    20A     -0.563703    21A     -0.556948  
      22A     -0.529209    23A     -0.523999    24A     -0.519232  
      25A     -0.504489    26A     -0.488386    27A     -0.451116  
      28A     -0.433127  

    Virtual:                                                              

      29A      0.181314    30A      0.224164    31A      0.248413  
      32A      0.276463    33A      0.297242    34A      0.299500  
      35A      0.306083    36A      0.320943    37A      0.327755  
      38A      0.338017    39A      0.353411    40A      0.364822  
      41A      0.400289    42A      0.417424    43A      0.440444  
      44A      0.524626    45A      0.561679    46A      0.708169  
      47A      0.728792    48A      0.734323    49A      0.742536  
      50A      0.751226    51A      0.789525    52A      0.806793  
      53A      0.840299    54A      0.877399    55A      0.890126  
      56A      0.926036    57A      0.938871    58A      0.973415  
      59A      0.997479    60A      1.048140    61A      1.075022  
      62A      1.108113    63A      1.113440    64A      1.136725  
      65A      1.157852    66A      1.173988    67A      1.179022  
      68A      1.191683    69A      1.197844    70A      1.225694  
      71A      1.233850    72A      1.252686    73A      1.280612  
      74A      1.302863    75A      1.309973    76A      1.397232  
      77A      1.411813    78A      1.476657    79A      1.605498  
      80A      1.629676    81A      1.674269    82A      1.707803  
      83A      1.740192    84A      1.810523    85A      1.859683  
      86A      1.938418    87A      1.996498    88A      2.045551  
      89A      2.065903    90A      2.090411    91A      2.135224  
      92A      2.156615    93A      2.201664    94A      2.234528  
      95A      2.274877    96A      2.283365    97A      2.302584  
      98A      2.324068    99A      2.376300   100A      2.430595  
     101A      2.479696   102A      2.496473   103A      2.590598  
     104A      2.635291   105A      2.662042   106A      2.676255  
     107A      2.685228   108A      2.698704   109A      2.782201  
     110A      2.830850   111A      2.914108   112A      2.929846  
     113A      2.986857   114A      3.223681   115A      3.245159  
     116A      3.367498   117A      3.399499   118A      3.534228  
     119A      4.391077   120A      4.562778   121A      4.588744  
     122A      4.688328   123A      4.768759   124A      4.846532  
     125A      4.963756  

    Final Occupation by Irrep:
              A 
    DOCC [    28 ]

  Energy converged.

  @DF-RHF Final Energy:  -344.89479815931463

   => Energetics <=

    Nuclear Repulsion Energy =            315.0487610549232613
    One-Electron Energy =               -1094.2742458797129075
    Two-Electron Energy =                 434.3306866654752412
    DFT Exchange-Correlation Energy =       0.0000000000000000
    Empirical Dispersion Energy =           0.0000000000000000
    PCM Polarization Energy =               0.0000000000000000
    EFP Energy =                            0.0000000000000000
    Total Energy =                       -344.8947981593144050

    Alert: EFP and PCM quantities not currently incorporated into SCF psivars.

Properties will be evaluated at   0.000000,   0.000000,   0.000000 Bohr
  ==> Properties <==


Properties computed using the SCF density matrix

  Nuclear Dipole Moment: (a.u.)
     X:     0.1042      Y:    -4.7023      Z:    -2.7743

  Electronic Dipole Moment: (a.u.)
     X:    -0.2988      Y:     3.6757      Z:     2.1856

  Dipole Moment: (a.u.)
     X:    -0.1946      Y:    -1.0266      Z:    -0.5887     Total:     1.1993

  Dipole Moment: (Debye)
     X:    -0.4947      Y:    -2.6094      Z:    -1.4964     Total:     3.0484


  Saving occupied orbitals to File 180.

*** tstop() called on cx1-1-4-3.cx1.hpc.ic.ac.uk at Fri Sep  2 13:29:28 2016
Module time:
	user time   =      13.93 seconds =       0.23 minutes
	system time =       0.16 seconds =       0.00 minutes
	total time  =          5 seconds =       0.08 minutes
Total time:
	user time   =      13.93 seconds =       0.23 minutes
	system time =       0.16 seconds =       0.00 minutes
	total time  =          5 seconds =       0.08 minutes

*** tstart() called on cx1-1-4-3.cx1.hpc.ic.ac.uk
*** at Fri Sep  2 13:29:28 2016


         ------------------------------------------------------------
                                   SCF GRAD                          
                          Rob Parrish, Justin Turney,                
                       Andy Simmonett, and Alex Sokolov              
         ------------------------------------------------------------

  ==> Geometry <==

    Molecular point group: c1
    Full point group: C1

    Geometry (in Angstrom), charge = 0, multiplicity = 1:

       Center              X                  Y                   Z               Mass       
    ------------   -----------------  -----------------  -----------------  -----------------
           O          0.528481471766     1.543873321471     0.308437421533    15.994914619560
           C          0.388940471766     0.363081321471     0.309965421533    12.000000000000
           C          1.510749471766    -0.647764678529     0.309488421533    12.000000000000
           O         -0.795623528234    -0.232246678529     0.310236421533    15.994914619560
           C          2.892740471766    -0.006619678529     0.308502421533    12.000000000000
           H          1.371256471766    -1.287640678529    -0.556737578467     1.007825032070
           H          1.372316471766    -1.287410678529     1.176064421533     1.007825032070
           H          3.032369471766     0.617242321471    -0.565948578467     1.007825032070
           H          3.660515471766    -0.772998678529     0.307989421533     1.007825032070
           H          3.033597471766     0.617261321471     1.182719421533     1.007825032070
           C         -1.577712528234    -0.141581678529    -0.876151578467    12.000000000000
           C         -2.868090528234    -0.893562678529    -0.627632578467    12.000000000000
           H         -1.019766528234    -0.566311678529    -1.699488578467     1.007825032070
           H         -1.759143528234     0.900783321471    -1.100090578467     1.007825032070
           H         -2.668979528234    -1.934442678529    -0.399417578467     1.007825032070
           H         -3.497138528234    -0.849812678529    -1.510827578467     1.007825032070
           H         -3.412521528234    -0.459354678529     0.203218421533     1.007825032070

  Nuclear repulsion =  315.048761054923261

  ==> Basis Set <==

  Basis Set: 6-31G*
    Number of shells: 62
    Number of basis function: 125
    Number of Cartesian functions: 125
    Spherical Harmonics?: false
    Max angular momentum: 2

  ==> DFJKGrad: Density-Fitted SCF Gradients <==

    Gradient:                    1
    J tasked:                  Yes
    K tasked:                  Yes
    wK tasked:                  No
    OpenMP threads:              4
    Integrals threads:           4
    Memory (MB):              1430
    Schwarz Cutoff:          0E+00
    Fitting Condition:       1E-12

   => Auxiliary Basis Set <=

  Basis Set: 
    Number of shells: 258
    Number of basis function: 817
    Number of Cartesian functions: 817
    Spherical Harmonics?: false
    Max angular momentum: 3


  -Total Gradient:
     Atom            X                  Y                   Z
    ------   -----------------  -----------------  -----------------
       1        0.002005021286     0.009343113015     0.002254879351
       2       -0.016435318558    -0.012139052057     0.001603227966
       3       -0.004776488197    -0.005901972084    -0.004713384624
       4        0.016278305519     0.011429091090     0.002575180480
       5       -0.000937406714     0.001798547061    -0.000013895426
       6        0.000719957470     0.000151474816     0.000578957326
       7        0.000384598531     0.000455107369     0.000065213506
       8       -0.000011046006    -0.000084989149     0.000082139665
       9       -0.000552776198    -0.000258331751    -0.000011346840
      10        0.000181997066     0.000046327822    -0.000028932414
      11        0.003710845107    -0.006827205841    -0.006428401455
      12        0.000587482505     0.000340656088     0.001974540397
      13       -0.000838394747     0.002906825558     0.001969234650
      14        0.001010948556    -0.000632241502    -0.000313607658
      15       -0.000427209940    -0.000267684766     0.000005299136
      16        0.000204692041     0.000108700777     0.000118593008
      17       -0.001105207719    -0.000468366444     0.000282302928


*** tstop() called on cx1-1-4-3.cx1.hpc.ic.ac.uk at Fri Sep  2 13:29:33 2016
Module time:
	user time   =      17.69 seconds =       0.29 minutes
	system time =       0.17 seconds =       0.00 minutes
	total time  =          5 seconds =       0.08 minutes
Total time:
	user time   =      31.64 seconds =       0.53 minutes
	system time =       0.33 seconds =       0.01 minutes
	total time  =         10 seconds =       0.17 minutes
CURRENT ENERGY: -344.8947981593

			-----------------------------------------
			 OPTKING 2.0: for geometry optimizations 
			  - R.A. King,  Bethel University        
			-----------------------------------------

	Internal coordinates to be generated automatically.
	Detected frag with atoms:  1 2 3 4 5 6 7 8 9 10 11 12 13 14 15 16 17
	---Fragment 1 Bond Connectivity---
	 1 : 2
	 2 : 1 3 4
	 3 : 2 5 6 7
	 4 : 2 11
	 5 : 3 8 9 10
	 6 : 3
	 7 : 3
	 8 : 5
	 9 : 5
	 10 : 5
	 11 : 4 12 13 14
	 12 : 11 15 16 17
	 13 : 11
	 14 : 11
	 15 : 12
	 16 : 12
	 17 : 12

	Assuming in current code that numbering for constraints corresponds to unified fragment.
	Frozen dihedral atom list: 
	    11     4     2     3
	---Fragment 1 Geometry and Gradient---
	 O           0.9986852479        2.9174977614        0.5828622558
	 C           0.7349909736        0.6861242615        0.5857497574
	 C           2.8549027570       -1.2240978410        0.5848483580
	 O          -1.5035105732       -0.4388826177        0.5862618731
	 C           5.4664872652       -0.0125093795        0.5829850880
	 H           2.5912991896       -2.4332882400       -1.0520815512
	 H           2.5933022993       -2.4328536030        2.2224396713
	 H           5.7303478354        1.1664189452       -1.0694878186
	 H           6.9173717468       -1.4607558035        0.5820156585
	 H           5.7326684191        1.1664548500        2.2350157987
	 C          -2.9814445948       -0.2675505979       -1.6556865342
	 C          -5.4199056227       -1.6885887450       -1.1860536854
	 H          -1.9270794578       -1.0701739783       -3.2115679793
	 H          -3.3242994968        1.7022337827       -2.0788699147
	 H          -5.0436403626       -3.6555668822       -0.7547898360
	 H          -6.6086340671       -1.6059132267       -2.8550503573
	 H          -6.4487311109       -0.8680545403        0.3840271619
	             0.0020050213        0.0093431130        0.0022548794
	            -0.0164353186       -0.0121390521        0.0016032280
	            -0.0047764882       -0.0059019721       -0.0047133846
	             0.0162783055        0.0114290911        0.0025751805
	            -0.0009374067        0.0017985471       -0.0000138954
	             0.0007199575        0.0001514748        0.0005789573
	             0.0003845985        0.0004551074        0.0000652135
	            -0.0000110460       -0.0000849891        0.0000821397
	            -0.0005527762       -0.0002583318       -0.0000113468
	             0.0001819971        0.0000463278       -0.0000289324
	             0.0037108451       -0.0068272058       -0.0064284015
	             0.0005874825        0.0003406561        0.0019745404
	            -0.0008383947        0.0029068256        0.0019692346
	             0.0010109486       -0.0006322415       -0.0003136077
	            -0.0004272099       -0.0002676848        0.0000052991
	             0.0002046920        0.0001087008        0.0001185930
	            -0.0011052077       -0.0004683664        0.0002823029

	Previous optimization step data not found.  Starting new optimization.

	---Fragment 1 Intrafragment Coordinates---
	 - Coordinate -           - BOHR/RAD -       - ANG/DEG -
	 R(1,2)           =         2.246902	       1.189010
	 R(2,3)           =         2.853590	       1.510055
	 R(2,4)           =         2.505300	       1.325748
	 R(3,5)           =         2.878945	       1.523472
	 R(3,6)           =         2.052113	       1.085932
	 R(3,7)           =         2.052128	       1.085940
	 R(4,11)          =         2.690720	       1.423868
	 R(5,8)           =         2.046988	       1.083220
	 R(5,9)           =         2.049996	       1.084811
	 R(5,10)          =         2.046952	       1.083201
	 R(11,12)         =         2.861118	       1.514039
	 R(11,13)         =         2.043687	       1.081473
	 R(11,14)         =         2.043694	       1.081476
	 R(12,15)         =         2.048552	       1.084047
	 R(12,16)         =         2.050722	       1.085195
	 R(12,17)         =         2.048637	       1.084092
	 B(1,2,3)         =         2.186580	     125.281782
	 B(1,2,4)         =         2.154129	     123.422495
	 B(2,3,5)         =         1.973802	     113.090517
	 B(2,3,6)         =         1.874722	     107.413656
	 B(2,3,7)         =         1.874803	     107.418285
	 B(2,4,11)        =         2.051060	     117.517090
	 B(3,2,4)         =         1.942475	     111.295647
	 B(3,5,8)         =         1.938884	     111.089871
	 B(3,5,9)         =         1.922728	     110.164219
	 B(3,5,10)        =         1.938881	     111.089702
	 B(4,11,12)       =         1.875214	     107.441859
	 B(4,11,13)       =         1.902815	     109.023280
	 B(4,11,14)       =         1.902920	     109.029285
	 B(5,3,6)         =         1.943343	     111.345337
	 B(5,3,7)         =         1.943402	     111.348746
	 B(6,3,7)         =         1.847403	     105.848380
	 B(8,5,9)         =         1.891531	     108.376716
	 B(8,5,10)        =         1.878683	     107.640611
	 B(9,5,10)        =         1.891508	     108.375446
	 B(11,12,15)      =         1.933614	     110.787903
	 B(11,12,16)      =         1.918160	     109.902479
	 B(11,12,17)      =         1.933584	     110.786210
	 B(12,11,13)      =         1.949380	     111.691231
	 B(12,11,14)      =         1.949503	     111.698311
	 B(13,11,14)      =         1.883295	     107.904883
	 B(15,12,16)      =         1.892848	     108.452196
	 B(15,12,17)      =         1.891753	     108.389471
	 B(16,12,17)      =         1.892822	     108.450711
	 D(1,2,3,5)       =         0.001229	       0.070409
	 D(1,2,3,6)       =        -2.150032	    -123.187784
	 D(1,2,3,7)       =         2.152624	     123.336242
	 D(1,2,4,11)      =         1.220066	      69.904651
	 D(2,3,5,8)       =        -1.045170	     -59.883849
	 D(2,3,5,9)       =        -3.141394	    -179.988619
	 D(2,3,5,10)      =         1.045597	      59.908312
	 D(2,4,11,12)     =         3.140266	     179.924002
	 D(2,4,11,13)     =         1.024815	      58.717580
	 D(2,4,11,14)     =        -1.027259	     -58.857587
	*D(3,2,4,11)      =        -1.919862	    -109.999999
	 D(4,2,3,5)       =         3.141120	     179.972920
	 D(4,2,3,6)       =         0.989859	      56.714727
	 D(4,2,3,7)       =        -0.990671	     -56.761247
	 D(4,11,12,15)    =        -1.049969	     -60.158776
	 D(4,11,12,16)    =        -3.141477	    -179.993386
	 D(4,11,12,17)    =         1.050251	      60.174926
	 D(6,3,5,8)       =         1.067688	      61.174042
	 D(6,3,5,9)       =        -1.028535	     -58.930727
	 D(6,3,5,10)      =        -3.124729	    -179.033797
	 D(7,3,5,8)       =         3.125008	     179.049742
	 D(7,3,5,9)       =         1.028784	      58.944972
	 D(7,3,5,10)      =        -1.067410	     -61.158097
	 D(13,11,12,15)   =         1.035985	      59.357547
	 D(13,11,12,16)   =        -1.055524	     -60.477063
	 D(13,11,12,17)   =         3.136204	     179.691249
	 D(14,11,12,15)   =        -3.136123	    -179.686610
	 D(14,11,12,16)   =         1.055554	      60.478780
	 D(14,11,12,17)   =        -1.035904	     -59.352908

	Current energy   :      -344.8947981593

	Generating empirical Hessian (Schlegel '84) for each fragment.
	Taking RFO optimization step.
	Going to follow RFO solution 1.
	Using RFO vector 1.
	Norm of target step-size    0.25929
	Projected energy change by RFO approximation:        -0.0014687107

	Back-transformation to cartesian coordinates...
	Successfully converged to displaced geometry.

	Back-transformation to cartesian coordinates to adjust frozen coordinates...
	Successfully converged to displaced geometry.

	--- Internal Coordinate Step in ANG or DEG, aJ/ANG or AJ/DEG ---
	 ---------------------------------------------------------------------------
	   Coordinate                Previous        Force       Change         New 
	   ----------                --------       ------       ------       ------
	    1 R(1,2)          =      1.189010    -0.078358    -0.004544     1.184465
	    2 R(2,3)          =      1.510055     0.009615     0.001957     1.512012
	    3 R(2,4)          =      1.325748     0.167347     0.017700     1.343448
	    4 R(3,5)          =      1.523472     0.004653     0.000988     1.524460
	    5 R(3,6)          =      1.085932     0.005302     0.000959     1.086891
	    6 R(3,7)          =      1.085940     0.002184     0.000395     1.086335
	    7 R(4,11)         =      1.423868     0.000342     0.000052     1.423920
	    8 R(5,8)          =      1.083220     0.000961     0.000172     1.083392
	    9 R(5,9)          =      1.084811     0.001720     0.000310     1.085121
	   10 R(5,10)         =      1.083201    -0.000222    -0.000040     1.083161
	   11 R(11,12)        =      1.514039    -0.009590    -0.001977     1.512061
	   12 R(11,13)        =      1.081473     0.025320     0.004515     1.085987
	   13 R(11,14)        =      1.081476     0.005883     0.001049     1.082525
	   14 R(12,15)        =      1.084047    -0.001480    -0.000266     1.083781
	   15 R(12,16)        =      1.085195     0.001737     0.000313     1.085509
	   16 R(12,17)        =      1.084092    -0.004810    -0.000865     1.083227
	   17 B(1,2,3)        =    125.281782    -0.000260    -0.975217   124.306566
	   18 B(1,2,4)        =    123.422495    -0.000413    -1.428152   121.994343
	   19 B(2,3,5)        =    113.090517     0.000248     0.929305   114.019823
	   20 B(2,3,6)        =    107.413656    -0.000126    -0.592349   106.821307
	   21 B(2,3,7)        =    107.418285    -0.000083    -0.173592   107.244693
	   22 B(2,4,11)       =    117.517090    -0.000018    -0.054416   117.462673
	   23 B(3,2,4)        =    111.295647     0.000673     1.816279   113.111927
	   24 B(3,5,8)        =    111.089871    -0.000007    -0.046371   111.043500
	   25 B(3,5,9)        =    110.164219     0.000069     0.367910   110.532129
	   26 B(3,5,10)       =    111.089702    -0.000033    -0.187519   110.902184
	   27 B(4,11,12)      =    107.441859     0.000164     0.508260   107.950119
	   28 B(4,11,13)      =    109.023280    -0.000028    -0.152247   108.871034
	   29 B(4,11,14)      =    109.029285    -0.000020     0.228547   109.257832
	   30 B(5,3,6)        =    111.345337    -0.000027    -0.008705   111.336631
	   31 B(5,3,7)        =    111.348746    -0.000051    -0.002540   111.346206
	   32 B(6,3,7)        =    105.848380     0.000019    -0.256894   105.591487
	   33 B(8,5,9)        =    108.376716    -0.000023    -0.042815   108.333901
	   34 B(8,5,10)       =    107.640611     0.000008    -0.051592   107.589019
	   35 B(9,5,10)       =    108.375446    -0.000016    -0.047681   108.327765
	   36 B(11,12,15)     =    110.787903    -0.000035    -0.176258   110.611645
	   37 B(11,12,16)     =    109.902479     0.000048     0.295585   110.198064
	   38 B(11,12,17)     =    110.786210    -0.000118    -0.609214   110.176996
	   39 B(12,11,13)     =    111.691231    -0.000146    -0.895386   110.795845
	   40 B(12,11,14)     =    111.698311    -0.000074    -0.273045   111.425266
	   41 B(13,11,14)     =    107.904883     0.000105     0.593476   108.498359
	   42 B(15,12,16)     =    108.452196     0.000011     0.167259   108.619455
	   43 B(15,12,17)     =    108.389471     0.000060     0.141816   108.531287
	   44 B(16,12,17)     =    108.450711     0.000038     0.198648   108.649359
	   45 D(1,2,3,5)      =      0.070409     0.000016     5.752555     5.822964
	   46 D(1,2,3,6)      =   -123.187784     0.000007     5.583621  -117.604163
	   47 D(1,2,3,7)      =    123.336242     0.000025     6.238753   129.574995
	   48 D(1,2,4,11)     =     69.904651    -0.000026    -8.338521    61.566130
	   49 D(2,3,5,8)      =    -59.883849     0.000005     0.293316   -59.590533
	   50 D(2,3,5,9)      =   -179.988619     0.000002     0.134019  -179.854599
	   51 D(2,3,5,10)     =     59.908312     0.000001     0.073522    59.981834
	   52 D(2,4,11,12)    =    179.924002    -0.000005     1.471353   181.395355
	   53 D(2,4,11,13)    =     58.717580     0.000017     2.337330    61.054910
	   54 D(2,4,11,14)    =    -58.857587    -0.000006     1.579655   -57.277933
	   55 *D(3,2,4,11)    =   -109.999999     0.000000    -0.000000  -109.999999
	   56 D(4,2,3,5)      =    179.972920    -0.000010    -2.810839   177.162081
	   57 D(4,2,3,6)      =     56.714727    -0.000019    -2.979772    53.734954
	   58 D(4,2,3,7)      =    -56.761247    -0.000001    -2.324640   -59.085888
	   59 D(4,11,12,15)   =    -60.158776     0.000008     0.630310   -59.528466
	   60 D(4,11,12,16)   =   -179.993386     0.000003     0.343486  -179.649901
	   61 D(4,11,12,17)   =     60.174926     0.000002     0.294487    60.469413
	   62 D(6,3,5,8)      =     61.174042     0.000004     0.180351    61.354394
	   63 D(6,3,5,9)      =    -58.930727     0.000001     0.021054   -58.909673
	   64 D(6,3,5,10)     =   -179.033797    -0.000000    -0.039443  -179.073240
	   65 D(7,3,5,8)      =    179.049742    -0.000002    -0.148897   178.900845
	   66 D(7,3,5,9)      =     58.944972    -0.000005    -0.308194    58.636779
	   67 D(7,3,5,10)     =    -61.158097    -0.000006    -0.368691   -61.526788
	   68 D(13,11,12,15)  =     59.357547     0.000004     0.238834    59.596381
	   69 D(13,11,12,16)  =    -60.477063    -0.000001    -0.047990   -60.525054
	   70 D(13,11,12,17)  =    179.691249    -0.000002    -0.096989   179.594260
	   71 D(14,11,12,15)  =   -179.686610    -0.000000     0.187623  -179.498987
	   72 D(14,11,12,16)  =     60.478780    -0.000006    -0.099201    60.379579
	   73 D(14,11,12,17)  =    -59.352908    -0.000006    -0.148200   -59.501108
	 ---------------------------------------------------------------------------

  ==> Convergence Check <==

  Measures of convergence in internal coordinates in au.
  Criteria marked as inactive (o), active & met (*), and active & unmet ( ).
  --------------------------------------------------------------------------------------------- ~
   Step     Total Energy     Delta E     MAX Force     RMS Force      MAX Disp      RMS Disp    ~
  --------------------------------------------------------------------------------------------- ~
    Convergence Criteria    1.00e-06 *    3.00e-04 *             o    1.20e-03 *             o  ~
  --------------------------------------------------------------------------------------------- ~
      1    -344.89479816   -3.45e+02      2.03e-02      3.05e-03 o    1.46e-01      3.03e-02 o  ~
  ---------------------------------------------------------------------------------------------

	Writing optimization data to binary file.
	Structure for next step:
	Cartesian Geometry (in Angstrom)
	    O     0.5000449643   1.4966933799   0.2498849876
	    C     0.3847115268   0.3229003409   0.3588171911
	    C     1.5398419610  -0.6525026434   0.3377659564
	    O    -0.8153769597  -0.2802204972   0.3290783907
	    C     2.9118118088   0.0111209515   0.3019588380
	    H     1.3904002287  -1.2984635196  -0.5234736869
	    H     1.4342045771  -1.2955814631   1.2069113142
	    H     3.0188579372   0.6360639302  -0.5765203668
	    H     3.6966471378  -0.7380478751   0.2855889387
	    H     3.0595752356   0.6402658557   1.1711998803
	    C    -1.5858055495  -0.1512491585  -0.8614487682
	    C    -2.8961708949  -0.8752998622  -0.6492624756
	    H    -1.0325909133  -0.5891772990  -1.6870036927
	    H    -1.7438249884   0.8986821563  -1.0724813630
	    H    -2.7223876322  -1.9224460560  -0.4304799352
	    H    -3.5118273148  -0.8049794575  -1.5405266079
	    H    -3.4361200898  -0.4352647027   0.1803183425
			--------------------------
			 OPTKING Finished Execution 
			--------------------------

    Structure for next step:
    Molecular point group: c1
    Full point group: C1

    Geometry (in Angstrom), charge = 0, multiplicity = 1:

    O            0.506284988389     1.512666384332     0.248860139657
    C            0.390951559739     0.338873434985     0.357792334771
    C            1.546081905761    -0.636529474858     0.336741101667
    O           -0.809136835146    -0.264247357154     0.328053536688
    C            2.918051648783     0.027094069335     0.300933986059
    H            1.396640184838    -1.282490301768    -0.524498475867
    H            1.440444529869    -1.279608245469     1.205886393123
    H            3.025097768982     0.652037000364    -0.577545151725
    H            3.702886917770    -0.722074700002     0.284564087984
    H            3.065815064281     0.656238925549     1.170174961947
    C           -1.579565366120    -0.135276028272    -0.862473531315
    C           -2.889930611461    -0.859326676688    -0.650287254949
    H           -1.026350772190    -0.573204135362    -1.688028392786
    H           -1.737584792967     0.914655206410    -1.073506110032
    H           -2.716147361959    -1.906472790542    -0.431504731261
    H           -3.505586984286    -0.789006277306    -1.541551319149
    H           -3.429879765150    -0.419291550730     0.179293499823

gradient() will perform analytic gradient computation.

*** tstart() called on cx1-1-4-3.cx1.hpc.ic.ac.uk
*** at Fri Sep  2 13:29:34 2016


         ---------------------------------------------------------
                                   SCF
            by Justin Turney, Rob Parrish, and Andy Simmonett
                              RHF Reference
                        4 Threads,   2000 MiB Core
         ---------------------------------------------------------

  ==> Geometry <==

    Molecular point group: c1
    Full point group: C1

    Geometry (in Angstrom), charge = 0, multiplicity = 1:

       Center              X                  Y                   Z               Mass       
    ------------   -----------------  -----------------  -----------------  -----------------
           O          0.506284988389     1.512666384332     0.248860139657    15.994914619560
           C          0.390951559739     0.338873434985     0.357792334771    12.000000000000
           C          1.546081905761    -0.636529474858     0.336741101667    12.000000000000
           O         -0.809136835146    -0.264247357154     0.328053536688    15.994914619560
           C          2.918051648783     0.027094069335     0.300933986059    12.000000000000
           H          1.396640184838    -1.282490301768    -0.524498475867     1.007825032070
           H          1.440444529869    -1.279608245469     1.205886393123     1.007825032070
           H          3.025097768982     0.652037000364    -0.577545151725     1.007825032070
           H          3.702886917770    -0.722074700002     0.284564087984     1.007825032070
           H          3.065815064281     0.656238925549     1.170174961947     1.007825032070
           C         -1.579565366120    -0.135276028272    -0.862473531315    12.000000000000
           C         -2.889930611461    -0.859326676688    -0.650287254949    12.000000000000
           H         -1.026350772190    -0.573204135362    -1.688028392786     1.007825032070
           H         -1.737584792967     0.914655206410    -1.073506110032     1.007825032070
           H         -2.716147361959    -1.906472790542    -0.431504731261     1.007825032070
           H         -3.505586984286    -0.789006277306    -1.541551319149     1.007825032070
           H         -3.429879765150    -0.419291550730     0.179293499823     1.007825032070

  Running in c1 symmetry.

  Rotational constants: A =      0.23077  B =      0.04352  C =      0.03942 [cm^-1]
  Rotational constants: A =   6918.32132  B =   1304.57430  C =   1181.71675 [MHz]
  Nuclear repulsion =  314.432577246363110

  Charge       = 0
  Multiplicity = 1
  Electrons    = 56
  Nalpha       = 28
  Nbeta        = 28

  ==> Algorithm <==

  SCF Algorithm Type is DF.
  DIIS enabled.
  MOM disabled.
  Fractional occupation disabled.
  Guess Type is READ.
  Energy threshold   = 1.00e-08
  Density threshold  = 1.00e-08
  Integral threshold = 0.00e+00

  ==> Primary Basis <==

  Basis Set: 6-31G*
    Number of shells: 62
    Number of basis function: 125
    Number of Cartesian functions: 125
    Spherical Harmonics?: false
    Max angular momentum: 2

  ==> Pre-Iterations <==

   -------------------------------------------------------
    Irrep   Nso     Nmo     Nalpha   Nbeta   Ndocc  Nsocc
   -------------------------------------------------------
     A        125     125       0       0       0       0
   -------------------------------------------------------
    Total     125     125      28      28      28       0
   -------------------------------------------------------

 OEINTS: Overlap, kinetic, potential, dipole, and quadrupole integrals
         stored in file 35.

  ==> Integral Setup <==

  ==> DFJK: Density-Fitted J/K Matrices <==

    J tasked:                  Yes
    K tasked:                  Yes
    wK tasked:                  No
    OpenMP threads:              4
    Integrals threads:           4
    Memory (MB):              1430
    Algorithm:                Core
    Integral Cache:           NONE
    Schwarz Cutoff:          1E-12
    Fitting Condition:       1E-12

   => Auxiliary Basis Set <=

  Basis Set: 
    Number of shells: 258
    Number of basis function: 817
    Number of Cartesian functions: 817
    Spherical Harmonics?: false
    Max angular momentum: 3

  Minimum eigenvalue in the overlap matrix is 3.6424641610E-03.
  Using Symmetric Orthogonalization.
  SCF Guess: Reading in previously saved MOs, projecting if necessary.

  Using orbitals from previous SCF, no projection.
  Recomputing DOCC and SOCC from number of alpha and beta electrons from previous calculation.
              A 
    DOCC [    28 ]

  ==> Iterations <==

                           Total Energy        Delta E     RMS |[F,P]|

   @DF-RHF iter   0:  -344.86483045874360   -3.44865e+02   1.63688e-03 
   @DF-RHF iter   1:  -344.89384315514639   -2.90127e-02   2.39234e-04 
   @DF-RHF iter   2:  -344.89461892092521   -7.75766e-04   8.89646e-05 DIIS
   @DF-RHF iter   3:  -344.89474017597553   -1.21255e-04   3.86064e-05 DIIS
   @DF-RHF iter   4:  -344.89476699336450   -2.68174e-05   1.36135e-05 DIIS
   @DF-RHF iter   5:  -344.89477093819443   -3.94483e-06   7.25088e-06 DIIS
   @DF-RHF iter   6:  -344.89477219010286   -1.25191e-06   1.88814e-06 DIIS
   @DF-RHF iter   7:  -344.89477227003221   -7.99294e-08   7.48439e-07 DIIS
   @DF-RHF iter   8:  -344.89477228298409   -1.29519e-08   3.37101e-07 DIIS
   @DF-RHF iter   9:  -344.89477228709546   -4.11137e-09   1.52760e-07 DIIS
   @DF-RHF iter  10:  -344.89477228800939   -9.13928e-10   5.01121e-08 DIIS
   @DF-RHF iter  11:  -344.89477228808624   -7.68523e-11   1.02534e-08 DIIS
   @DF-RHF iter  12:  -344.89477228808886   -2.61480e-12   2.38841e-09 DIIS

  ==> Post-Iterations <==

    Orbital Energies (a.u.)
    -----------------------

    Doubly Occupied:                                                      

       1A    -20.583709     2A    -20.553006     3A    -11.373702  
       4A    -11.292647     5A    -11.241225     6A    -11.223719  
       7A    -11.218164     8A     -1.459195     9A     -1.362944  
      10A     -1.065897    11A     -1.035282    12A     -0.906369  
      13A     -0.858475    14A     -0.769200    15A     -0.700190  
      16A     -0.682035    17A     -0.658012    18A     -0.632724  
      19A     -0.600915    20A     -0.563823    21A     -0.556792  
      22A     -0.527284    23A     -0.523722    24A     -0.520090  
      25A     -0.504495    26A     -0.489363    27A     -0.449707  
      28A     -0.433444  

    Virtual:                                                              

      29A      0.178689    30A      0.225366    31A      0.249224  
      32A      0.277344    33A      0.297131    34A      0.301260  
      35A      0.306856    36A      0.319831    37A      0.327536  
      38A      0.339069    39A      0.353453    40A      0.367424  
      41A      0.398219    42A      0.416991    43A      0.438531  
      44A      0.524645    45A      0.551708    46A      0.708894  
      47A      0.728338    48A      0.736334    49A      0.742541  
      50A      0.748109    51A      0.792266    52A      0.802675  
      53A      0.841442    54A      0.878434    55A      0.886895  
      56A      0.924496    57A      0.934249    58A      0.968780  
      59A      0.997120    60A      1.046089    61A      1.077816  
      62A      1.103552    63A      1.113563    64A      1.136611  
      65A      1.160291    66A      1.172047    67A      1.178898  
      68A      1.192201    69A      1.198328    70A      1.225005  
      71A      1.234568    72A      1.251311    73A      1.281864  
      74A      1.303697    75A      1.315171    76A      1.395747  
      77A      1.414356    78A      1.475568    79A      1.600608  
      80A      1.624647    81A      1.677729    82A      1.708336  
      83A      1.737530    84A      1.801156    85A      1.849573  
      86A      1.929523    87A      1.991508    88A      2.038476  
      89A      2.069651    90A      2.082145    91A      2.132698  
      92A      2.162939    93A      2.204245    94A      2.235540  
      95A      2.272902    96A      2.280973    97A      2.299298  
      98A      2.325361    99A      2.379411   100A      2.441432  
     101A      2.471374   102A      2.502889   103A      2.588988  
     104A      2.628734   105A      2.659659   106A      2.678232  
     107A      2.679828   108A      2.696572   109A      2.778699  
     110A      2.835326   111A      2.896548   112A      2.926973  
     113A      2.990663   114A      3.183792   115A      3.240479  
     116A      3.359933   117A      3.399614   118A      3.526337  
     119A      4.385794   120A      4.553035   121A      4.585305  
     122A      4.664299   123A      4.753816   124A      4.844824  
     125A      4.958192  

    Final Occupation by Irrep:
              A 
    DOCC [    28 ]

  Energy converged.

  @DF-RHF Final Energy:  -344.89477228808886

   => Energetics <=

    Nuclear Repulsion Energy =            314.4325772463631097
    One-Electron Energy =               -1093.0824438562394789
    Two-Electron Energy =                 433.7550943217875101
    DFT Exchange-Correlation Energy =       0.0000000000000000
    Empirical Dispersion Energy =           0.0000000000000000
    PCM Polarization Energy =               0.0000000000000000
    EFP Energy =                            0.0000000000000000
    Total Energy =                       -344.8947722880889160

    Alert: EFP and PCM quantities not currently incorporated into SCF psivars.

Properties will be evaluated at   0.000000,   0.000000,   0.000000 Bohr
  ==> Properties <==


Properties computed using the SCF density matrix

  Nuclear Dipole Moment: (a.u.)
     X:     0.2004      Y:    -4.4462      Z:    -2.8066

  Electronic Dipole Moment: (a.u.)
     X:    -0.2989      Y:     3.4738      Z:     2.3040

  Dipole Moment: (a.u.)
     X:    -0.0985      Y:    -0.9725      Z:    -0.5025     Total:     1.0991

  Dipole Moment: (Debye)
     X:    -0.2503      Y:    -2.4718      Z:    -1.2773     Total:     2.7936


  Saving occupied orbitals to File 180.

*** tstop() called on cx1-1-4-3.cx1.hpc.ic.ac.uk at Fri Sep  2 13:29:39 2016
Module time:
	user time   =      13.84 seconds =       0.23 minutes
	system time =       0.14 seconds =       0.00 minutes
	total time  =          5 seconds =       0.08 minutes
Total time:
	user time   =      46.85 seconds =       0.78 minutes
	system time =       0.51 seconds =       0.01 minutes
	total time  =         16 seconds =       0.27 minutes

*** tstart() called on cx1-1-4-3.cx1.hpc.ic.ac.uk
*** at Fri Sep  2 13:29:39 2016


         ------------------------------------------------------------
                                   SCF GRAD                          
                          Rob Parrish, Justin Turney,                
                       Andy Simmonett, and Alex Sokolov              
         ------------------------------------------------------------

  ==> Geometry <==

    Molecular point group: c1
    Full point group: C1

    Geometry (in Angstrom), charge = 0, multiplicity = 1:

       Center              X                  Y                   Z               Mass       
    ------------   -----------------  -----------------  -----------------  -----------------
           O          0.506284988389     1.512666384332     0.248860139657    15.994914619560
           C          0.390951559739     0.338873434985     0.357792334771    12.000000000000
           C          1.546081905761    -0.636529474858     0.336741101667    12.000000000000
           O         -0.809136835146    -0.264247357154     0.328053536688    15.994914619560
           C          2.918051648783     0.027094069335     0.300933986059    12.000000000000
           H          1.396640184838    -1.282490301768    -0.524498475867     1.007825032070
           H          1.440444529869    -1.279608245469     1.205886393123     1.007825032070
           H          3.025097768982     0.652037000364    -0.577545151725     1.007825032070
           H          3.702886917770    -0.722074700002     0.284564087984     1.007825032070
           H          3.065815064281     0.656238925549     1.170174961947     1.007825032070
           C         -1.579565366120    -0.135276028272    -0.862473531315    12.000000000000
           C         -2.889930611461    -0.859326676688    -0.650287254949    12.000000000000
           H         -1.026350772190    -0.573204135362    -1.688028392786     1.007825032070
           H         -1.737584792967     0.914655206410    -1.073506110032     1.007825032070
           H         -2.716147361959    -1.906472790542    -0.431504731261     1.007825032070
           H         -3.505586984286    -0.789006277306    -1.541551319149     1.007825032070
           H         -3.429879765150    -0.419291550730     0.179293499823     1.007825032070

  Nuclear repulsion =  314.432577246363110

  ==> Basis Set <==

  Basis Set: 6-31G*
    Number of shells: 62
    Number of basis function: 125
    Number of Cartesian functions: 125
    Spherical Harmonics?: false
    Max angular momentum: 2

  ==> DFJKGrad: Density-Fitted SCF Gradients <==

    Gradient:                    1
    J tasked:                  Yes
    K tasked:                  Yes
    wK tasked:                  No
    OpenMP threads:              4
    Integrals threads:           4
    Memory (MB):              1430
    Schwarz Cutoff:          0E+00
    Fitting Condition:       1E-12

   => Auxiliary Basis Set <=

  Basis Set: 
    Number of shells: 258
    Number of basis function: 817
    Number of Cartesian functions: 817
    Spherical Harmonics?: false
    Max angular momentum: 3


  -Total Gradient:
     Atom            X                  Y                   Z
    ------   -----------------  -----------------  -----------------
       1       -0.000761781335    -0.001167295080    -0.006545951095
       2       -0.001743414238    -0.005686721161     0.027516017940
       3        0.001063114068     0.001073433089    -0.012343546433
       4       -0.000369424465     0.011481070887    -0.005361986556
       5        0.001237672954    -0.001032347152    -0.000123338050
       6        0.001127632748    -0.000885856109     0.000185636909
       7       -0.001273136628     0.001691655572     0.000274569672
       8        0.000113199115     0.000049059633    -0.000088723256
       9        0.000741791330     0.000269834921    -0.000132175722
      10       -0.000247890889    -0.000131743243    -0.000152932821
      11        0.000205198712    -0.006357640624    -0.001778503500
      12        0.000153834699     0.000274962687    -0.000950736210
      13       -0.000253875973    -0.000226540610    -0.000086824347
      14       -0.000275032159     0.000558090959    -0.000129938674
      15        0.000191058944     0.000062076688    -0.000048277205
      16       -0.000388008470    -0.000164580762    -0.000056236561
      17        0.000479061588     0.000192540303    -0.000177054093


*** tstop() called on cx1-1-4-3.cx1.hpc.ic.ac.uk at Fri Sep  2 13:29:44 2016
Module time:
	user time   =      17.96 seconds =       0.30 minutes
	system time =       0.18 seconds =       0.00 minutes
	total time  =          5 seconds =       0.08 minutes
Total time:
	user time   =      64.82 seconds =       1.08 minutes
	system time =       0.70 seconds =       0.01 minutes
	total time  =         21 seconds =       0.35 minutes
CURRENT ENERGY: -344.8947722881

			-----------------------------------------
			 OPTKING 2.0: for geometry optimizations 
			  - R.A. King,  Bethel University        
			-----------------------------------------

	Previous internal coordinate definitions found.
	---Fragment 1 Geometry and Gradient---
	 O           0.9567399732        2.8585251968        0.4702775093
	 C           0.7387913791        0.6403779858        0.6761295252
	 C           2.9216713809       -1.2028663830        0.6363484598
	 O          -1.5290470225       -0.4993551364        0.6199313413
	 C           5.5143184578        0.0512003709        0.5686828177
	 H           2.6392674555       -2.4235554384       -0.9911584765
	 H           2.7220456711       -2.4181091413        2.2787950304
	 H           5.7166063086        1.2321713592       -1.0914021661
	 H           6.9974421756       -1.3645234305        0.5377481935
	 H           5.7935508456        1.2401118470        2.2113102056
	 C          -2.9849459510       -0.2556346458       -1.6298387710
	 C          -5.4611773987       -1.6238920776       -1.2288648196
	 H          -1.9395218757       -1.0831988341       -3.1899113669
	 H          -3.2835593914        1.7284478461       -2.0286325499
	 H          -5.1327746507       -3.6027114539       -0.8154257671
	 H          -6.6245993353       -1.4910057812       -2.9131098130
	 H          -6.4815334249       -0.7923462007        0.3388156121
	            -0.0007617813       -0.0011672951       -0.0065459511
	            -0.0017434142       -0.0056867212        0.0275160179
	             0.0010631141        0.0010734331       -0.0123435464
	            -0.0003694245        0.0114810709       -0.0053619866
	             0.0012376730       -0.0010323472       -0.0001233381
	             0.0011276327       -0.0008858561        0.0001856369
	            -0.0012731366        0.0016916556        0.0002745697
	             0.0001131991        0.0000490596       -0.0000887233
	             0.0007417913        0.0002698349       -0.0001321757
	            -0.0002478909       -0.0001317432       -0.0001529328
	             0.0002051987       -0.0063576406       -0.0017785035
	             0.0001538347        0.0002749627       -0.0009507362
	            -0.0002538760       -0.0002265406       -0.0000868243
	            -0.0002750322        0.0005580910       -0.0001299387
	             0.0001910589        0.0000620767       -0.0000482772
	            -0.0003880085       -0.0001645808       -0.0000562366
	             0.0004790616        0.0001925403       -0.0001770541

	---Fragment 1 Intrafragment Coordinates---
	 - Coordinate -           - BOHR/RAD -       - ANG/DEG -
	 R(1,2)           =         2.238315	       1.184465
	 R(2,3)           =         2.857288	       1.512012
	 R(2,4)           =         2.538748	       1.343448
	 R(3,5)           =         2.880813	       1.524460
	 R(3,6)           =         2.053926	       1.086891
	 R(3,7)           =         2.052875	       1.086335
	 R(4,11)          =         2.690819	       1.423920
	 R(5,8)           =         2.047314	       1.083392
	 R(5,9)           =         2.050582	       1.085121
	 R(5,10)          =         2.046877	       1.083161
	 R(11,12)         =         2.857382	       1.512061
	 R(11,13)         =         2.052218	       1.085987
	 R(11,14)         =         2.045676	       1.082525
	 R(12,15)         =         2.048049	       1.083781
	 R(12,16)         =         2.051314	       1.085509
	 R(12,17)         =         2.047002	       1.083227
	 B(1,2,3)         =         2.169559	     124.306566
	 B(1,2,4)         =         2.129203	     121.994343
	 B(2,3,5)         =         1.990021	     114.019823
	 B(2,3,6)         =         1.864384	     106.821307
	 B(2,3,7)         =         1.871773	     107.244693
	 B(2,4,11)        =         2.050110	     117.462673
	 B(3,2,4)         =         1.974176	     113.111927
	 B(3,5,8)         =         1.938075	     111.043500
	 B(3,5,9)         =         1.929150	     110.532129
	 B(3,5,10)        =         1.935608	     110.902184
	 B(4,11,12)       =         1.884085	     107.950119
	 B(4,11,13)       =         1.900158	     108.871034
	 B(4,11,14)       =         1.906909	     109.257832
	 B(5,3,6)         =         1.943191	     111.336631
	 B(5,3,7)         =         1.943358	     111.346206
	 B(6,3,7)         =         1.842919	     105.591487
	 B(8,5,9)         =         1.890783	     108.333901
	 B(8,5,10)        =         1.877783	     107.589019
	 B(9,5,10)        =         1.890676	     108.327765
	 B(11,12,15)      =         1.930537	     110.611645
	 B(11,12,16)      =         1.923319	     110.198064
	 B(11,12,17)      =         1.922951	     110.176996
	 B(12,11,13)      =         1.933752	     110.795845
	 B(12,11,14)      =         1.944738	     111.425266
	 B(13,11,14)      =         1.893654	     108.498359
	 B(15,12,16)      =         1.895767	     108.619455
	 B(15,12,17)      =         1.894228	     108.531287
	 B(16,12,17)      =         1.896289	     108.649359
	 D(1,2,3,5)       =         0.101630	       5.822964
	 D(1,2,3,6)       =        -2.052580	    -117.604163
	 D(1,2,3,7)       =         2.261510	     129.574995
	 D(1,2,4,11)      =         1.074532	      61.566130
	 D(2,3,5,8)       =        -1.040051	     -59.590533
	 D(2,3,5,9)       =        -3.139055	    -179.854599
	 D(2,3,5,10)      =         1.046880	      59.981834
	 D(2,4,11,12)     =        -3.117239	    -178.604645
	 D(2,4,11,13)     =         1.065609	      61.054910
	 D(2,4,11,14)     =        -0.999689	     -57.277933
	*D(3,2,4,11)      =        -1.919862	    -109.999999
	 D(4,2,3,5)       =         3.092062	     177.162081
	 D(4,2,3,6)       =         0.937852	      53.734954
	 D(4,2,3,7)       =        -1.031243	     -59.085888
	 D(4,11,12,15)    =        -1.038968	     -59.528466
	 D(4,11,12,16)    =        -3.135482	    -179.649901
	 D(4,11,12,17)    =         1.055390	      60.469413
	 D(6,3,5,8)       =         1.070836	      61.354394
	 D(6,3,5,9)       =        -1.028168	     -58.909673
	 D(6,3,5,10)      =        -3.125418	    -179.073240
	 D(7,3,5,8)       =         3.122409	     178.900845
	 D(7,3,5,9)       =         1.023405	      58.636779
	 D(7,3,5,10)      =        -1.073845	     -61.526788
	 D(13,11,12,15)   =         1.040153	      59.596381
	 D(13,11,12,16)   =        -1.056361	     -60.525054
	 D(13,11,12,17)   =         3.134511	     179.594260
	 D(14,11,12,15)   =        -3.132848	    -179.498987
	 D(14,11,12,16)   =         1.053822	      60.379579
	 D(14,11,12,17)   =        -1.038490	     -59.501108

	Current energy   :      -344.8947722881

	Energy change for the previous step:
		Projected    :        -0.0014687107
		Actual       :         0.0000258712

	Performing BFGS update.
	Previous computed or guess Hessian on step 1.
	Steps to be used in Hessian update: 1
	Taking RFO optimization step.
	Going to follow RFO solution 1.
	Using RFO vector 1.
	Norm of target step-size    0.30041
	Projected energy change by RFO approximation:        -0.0033659619

	Back-transformation to cartesian coordinates...
	Successfully converged to displaced geometry.

	Back-transformation to cartesian coordinates to adjust frozen coordinates...
	Successfully converged to displaced geometry.

	--- Internal Coordinate Step in ANG or DEG, aJ/ANG or AJ/DEG ---
	 ---------------------------------------------------------------------------
	   Coordinate                Previous        Force       Change         New 
	   ----------                --------       ------       ------       ------
	    1 R(1,2)          =      1.184465     0.005182    -0.003255     1.181210
	    2 R(2,3)          =      1.512012    -0.013311     0.000038     1.512050
	    3 R(2,4)          =      1.343448     0.018067     0.014294     1.357742
	    4 R(3,5)          =      1.524460    -0.010743    -0.000463     1.523998
	    5 R(3,6)          =      1.086891    -0.001848     0.000543     1.087434
	    6 R(3,7)          =      1.086335     0.005421     0.000814     1.087148
	    7 R(4,11)         =      1.423920    -0.017508    -0.001370     1.422550
	    8 R(5,8)          =      1.083392    -0.000918     0.000042     1.083434
	    9 R(5,9)          =      1.085121    -0.002902    -0.000043     1.085078
	   10 R(5,10)         =      1.083161     0.001920     0.000152     1.083312
	   11 R(11,12)        =      1.512061     0.005977    -0.000832     1.511230
	   12 R(11,13)        =      1.085987    -0.000231     0.003363     1.089350
	   13 R(11,14)        =      1.082525    -0.004999     0.000316     1.082841
	   14 R(12,15)        =      1.083781     0.000322    -0.000169     1.083612
	   15 R(12,16)        =      1.085509    -0.002106     0.000035     1.085543
	   16 R(12,17)        =      1.083227     0.002440    -0.000417     1.082810
	   17 B(1,2,3)        =    124.306566     0.000087    -0.283472   124.023093
	   18 B(1,2,4)        =    121.994343     0.000184    -0.469206   121.525137
	   19 B(2,3,5)        =    114.019823    -0.000169     0.381555   114.401378
	   20 B(2,3,6)        =    106.821307    -0.000061    -0.917019   105.904287
	   21 B(2,3,7)        =    107.244693     0.000192     0.586631   107.831324
	   22 B(2,4,11)       =    117.462673    -0.000259    -0.449046   117.013628
	   23 B(3,2,4)        =    113.111927    -0.000217     1.328745   114.440672
	   24 B(3,5,8)        =    111.043500     0.000002    -0.016160   111.027340
	   25 B(3,5,9)        =    110.532129    -0.000083     0.043402   110.575531
	   26 B(3,5,10)       =    110.902184     0.000038    -0.034404   110.867779
	   27 B(4,11,12)      =    107.950119    -0.000081     0.223543   108.173661
	   28 B(4,11,13)      =    108.871034     0.000012    -0.122655   108.748378
	   29 B(4,11,14)      =    109.257832     0.000019     0.153826   109.411658
	   30 B(5,3,6)        =    111.336631     0.000121     0.112513   111.449144
	   31 B(5,3,7)        =    111.346206    -0.000038    -0.003600   111.342605
	   32 B(6,3,7)        =    105.591487    -0.000035    -0.226762   105.364725
	   33 B(8,5,9)        =    108.333901     0.000036     0.030996   108.364897
	   34 B(8,5,10)       =    107.589019    -0.000006    -0.000329   107.588690
	   35 B(9,5,10)       =    108.327765     0.000016    -0.023553   108.304211
	   36 B(11,12,15)     =    110.611645     0.000021    -0.077530   110.534115
	   37 B(11,12,16)     =    110.198064    -0.000051     0.074042   110.272106
	   38 B(11,12,17)     =    110.176996     0.000055    -0.304543   109.872453
	   39 B(12,11,13)     =    110.795845     0.000046    -0.535672   110.260173
	   40 B(12,11,14)     =    111.425266     0.000025    -0.151433   111.273833
	   41 B(13,11,14)     =    108.498359    -0.000020     0.433140   108.931499
	   42 B(15,12,16)     =    108.619455     0.000007     0.109688   108.729143
	   43 B(15,12,17)     =    108.531287    -0.000028     0.076039   108.607326
	   44 B(16,12,17)     =    108.649359    -0.000004     0.130849   108.780208
	   45 D(1,2,3,5)      =      5.822964    -0.000040    -2.589658     3.233306
	   46 D(1,2,3,6)      =   -117.604163    -0.000039    -2.309482  -119.913646
	   47 D(1,2,3,7)      =    129.574995    -0.000044    -1.888434   127.686561
	   48 D(1,2,4,11)     =     61.566130     0.000090     9.599301    71.165431
	   49 D(2,3,5,8)      =    -59.590533     0.000014     0.660471   -58.930062
	   50 D(2,3,5,9)      =   -179.854599     0.000016     0.603294  -179.251305
	   51 D(2,3,5,10)     =     59.981834     0.000018     0.626791    60.608625
	   52 D(2,4,11,12)    =   -178.604645     0.000002     1.088020  -177.516625
	   53 D(2,4,11,13)    =     61.054910    -0.000001     1.672242    62.727151
	   54 D(2,4,11,14)    =    -57.277933     0.000001     1.131799   -56.146134
	   55 *D(3,2,4,11)    =   -109.999999     0.000000     0.000000  -109.999999
	   56 D(4,2,3,5)      =    177.162081     0.000054     7.269843   184.431924
	   57 D(4,2,3,6)      =     53.734954     0.000054     7.550018    61.284972
	   58 D(4,2,3,7)      =    -59.085888     0.000050     7.971067   -51.114821
	   59 D(4,11,12,15)   =    -59.528466    -0.000002     0.381816   -59.146650
	   60 D(4,11,12,16)   =   -179.649901     0.000000     0.246926  -179.402975
	   61 D(4,11,12,17)   =     60.469413     0.000001     0.231244    60.700657
	   62 D(6,3,5,8)      =     61.354394    -0.000011    -0.182942    61.171452
	   63 D(6,3,5,9)      =    -58.909673    -0.000009    -0.240119   -59.149791
	   64 D(6,3,5,10)     =   -179.073240    -0.000007    -0.216621  -179.289861
	   65 D(7,3,5,8)      =    178.900845    -0.000009    -0.396772   178.504073
	   66 D(7,3,5,9)      =     58.636779    -0.000007    -0.453949    58.182830
	   67 D(7,3,5,10)     =    -61.526788    -0.000005    -0.430451   -61.957240
	   68 D(13,11,12,15)  =     59.596381    -0.000004     0.058110    59.654491
	   69 D(13,11,12,16)  =    -60.525054    -0.000002    -0.076780   -60.601834
	   70 D(13,11,12,17)  =    179.594260    -0.000001    -0.092462   179.501798
	   71 D(14,11,12,15)  =   -179.498987     0.000001     0.140504  -179.358483
	   72 D(14,11,12,16)  =     60.379579     0.000003     0.005613    60.385192
	   73 D(14,11,12,17)  =    -59.501108     0.000004    -0.010068   -59.511176
	 ---------------------------------------------------------------------------

  ==> Convergence Check <==

  Measures of convergence in internal coordinates in au.
  Criteria marked as inactive (o), active & met (*), and active & unmet ( ).
  ---------------------------------------------------------------------------------------------
   Step     Total Energy     Delta E     MAX Force     RMS Force      MAX Disp      RMS Disp   
  ---------------------------------------------------------------------------------------------
    Convergence Criteria    1.00e-06 *    3.00e-04 *             o    1.20e-03 *             o
  ---------------------------------------------------------------------------------------------
      2    -344.89477229    2.59e-05      5.13e-03      1.37e-03 o    1.68e-01      3.51e-02 o  ~
  ---------------------------------------------------------------------------------------------

	Writing optimization data to binary file.
	Structure for next step:
	Cartesian Geometry (in Angstrom)
	    O     0.5206925816   1.5110536040   0.2749805173
	    C     0.4079336864   0.3352383566   0.2739368909
	    C     1.5746531204  -0.6265618100   0.2729198604
	    O    -0.8116135296  -0.2610145948   0.2994150920
	    C     2.9418769250   0.0420744147   0.3516224707
	    H     1.4727239034  -1.2177212938  -0.6340825272
	    H     1.4291819640  -1.3272487063   1.0913131291
	    H     3.0917948649   0.7195326547  -0.4804864064
	    H     3.7317284381  -0.7017002681   0.3335161142
	    H     3.0377982682   0.6180763419   1.2640844363
	    C    -1.5984139102  -0.1735429885  -0.8825082711
	    C    -2.9262932345  -0.8437947078  -0.6154611390
	    H    -1.0744689848  -0.6829195151  -1.6904074026
	    H    -1.7305396895   0.8672117948  -1.1506832569
	    H    -2.7795271570  -1.8808096545  -0.3374773983
	    H    -3.5518284119  -0.8057033229  -1.5018354195
	    H    -3.4376267328  -0.3381331858   0.1940581605
			--------------------------
			 OPTKING Finished Execution 
			--------------------------

    Structure for next step:
    Molecular point group: c1
    Full point group: C1

    Geometry (in Angstrom), charge = 0, multiplicity = 1:

    O            0.517414920281     1.510968771389     0.284202385601
    C            0.404656033700     0.335153613788     0.283158759199
    C            1.571375378602    -0.626646479316     0.282141728804
    O           -0.814891089215    -0.261099292049     0.308636958352
    C            2.938599078723     0.041989694285     0.360844333079
    H            1.469446169374    -1.217805918015    -0.624860589530
    H            1.425904233248    -1.327333322167     1.100534934981
    H            3.088517007235     0.719447882530    -0.471264480465
    H            3.728450531521    -0.701784931661     0.342737978014
    H            3.034520414669     0.617991577499     1.273306229065
    C           -1.601691409697    -0.173627692446    -0.873286314422
    C           -2.929570632588    -0.843879360571    -0.606239202780
    H           -1.077746524383    -0.683004180138    -1.681185384213
    H           -1.733817178945     0.867127011411    -1.141461279811
    H           -2.782804566296    -1.880894228062    -0.328255483262
    H           -3.555105762272    -0.805787978567    -1.492613415604
    H           -3.440904091905    -0.338217877122     0.203280034933

gradient() will perform analytic gradient computation.

*** tstart() called on cx1-1-4-3.cx1.hpc.ic.ac.uk
*** at Fri Sep  2 13:29:44 2016


         ---------------------------------------------------------
                                   SCF
            by Justin Turney, Rob Parrish, and Andy Simmonett
                              RHF Reference
                        4 Threads,   2000 MiB Core
         ---------------------------------------------------------

  ==> Geometry <==

    Molecular point group: c1
    Full point group: C1

    Geometry (in Angstrom), charge = 0, multiplicity = 1:

       Center              X                  Y                   Z               Mass       
    ------------   -----------------  -----------------  -----------------  -----------------
           O          0.517414920281     1.510968771389     0.284202385601    15.994914619560
           C          0.404656033700     0.335153613788     0.283158759199    12.000000000000
           C          1.571375378602    -0.626646479316     0.282141728804    12.000000000000
           O         -0.814891089215    -0.261099292049     0.308636958352    15.994914619560
           C          2.938599078723     0.041989694285     0.360844333079    12.000000000000
           H          1.469446169374    -1.217805918015    -0.624860589530     1.007825032070
           H          1.425904233248    -1.327333322167     1.100534934981     1.007825032070
           H          3.088517007235     0.719447882530    -0.471264480465     1.007825032070
           H          3.728450531521    -0.701784931661     0.342737978014     1.007825032070
           H          3.034520414669     0.617991577499     1.273306229065     1.007825032070
           C         -1.601691409697    -0.173627692446    -0.873286314422    12.000000000000
           C         -2.929570632588    -0.843879360571    -0.606239202780    12.000000000000
           H         -1.077746524383    -0.683004180138    -1.681185384213     1.007825032070
           H         -1.733817178945     0.867127011411    -1.141461279811     1.007825032070
           H         -2.782804566296    -1.880894228062    -0.328255483262     1.007825032070
           H         -3.555105762272    -0.805787978567    -1.492613415604     1.007825032070
           H         -3.440904091905    -0.338217877122     0.203280034933     1.007825032070

  Running in c1 symmetry.

  Rotational constants: A =      0.23659  B =      0.04272  C =      0.03873 [cm^-1]
  Rotational constants: A =   7092.88994  B =   1280.71897  C =   1161.20432 [MHz]
  Nuclear repulsion =  313.378482073384703

  Charge       = 0
  Multiplicity = 1
  Electrons    = 56
  Nalpha       = 28
  Nbeta        = 28

  ==> Algorithm <==

  SCF Algorithm Type is DF.
  DIIS enabled.
  MOM disabled.
  Fractional occupation disabled.
  Guess Type is READ.
  Energy threshold   = 1.00e-08
  Density threshold  = 1.00e-08
  Integral threshold = 0.00e+00

  ==> Primary Basis <==

  Basis Set: 6-31G*
    Number of shells: 62
    Number of basis function: 125
    Number of Cartesian functions: 125
    Spherical Harmonics?: false
    Max angular momentum: 2

  ==> Pre-Iterations <==

   -------------------------------------------------------
    Irrep   Nso     Nmo     Nalpha   Nbeta   Ndocc  Nsocc
   -------------------------------------------------------
     A        125     125       0       0       0       0
   -------------------------------------------------------
    Total     125     125      28      28      28       0
   -------------------------------------------------------

 OEINTS: Overlap, kinetic, potential, dipole, and quadrupole integrals
         stored in file 35.

  ==> Integral Setup <==

  ==> DFJK: Density-Fitted J/K Matrices <==

    J tasked:                  Yes
    K tasked:                  Yes
    wK tasked:                  No
    OpenMP threads:              4
    Integrals threads:           4
    Memory (MB):              1430
    Algorithm:                Core
    Integral Cache:           NONE
    Schwarz Cutoff:          1E-12
    Fitting Condition:       1E-12

   => Auxiliary Basis Set <=

  Basis Set: 
    Number of shells: 258
    Number of basis function: 817
    Number of Cartesian functions: 817
    Spherical Harmonics?: false
    Max angular momentum: 3

  Minimum eigenvalue in the overlap matrix is 3.6022500287E-03.
  Using Symmetric Orthogonalization.
  SCF Guess: Reading in previously saved MOs, projecting if necessary.

  Using orbitals from previous SCF, no projection.
  Recomputing DOCC and SOCC from number of alpha and beta electrons from previous calculation.
              A 
    DOCC [    28 ]

  ==> Iterations <==

                           Total Energy        Delta E     RMS |[F,P]|

   @DF-RHF iter   0:  -344.85906054354609   -3.44859e+02   1.83847e-03 
   @DF-RHF iter   1:  -344.89352451669288   -3.44640e-02   2.94935e-04 
   @DF-RHF iter   2:  -344.89479685785307   -1.27234e-03   1.02529e-04 DIIS
   @DF-RHF iter   3:  -344.89499443742318   -1.97580e-04   3.26461e-05 DIIS
   @DF-RHF iter   4:  -344.89501312742163   -1.86900e-05   1.15548e-05 DIIS
   @DF-RHF iter   5:  -344.89501747792406   -4.35050e-06   4.07903e-06 DIIS
   @DF-RHF iter   6:  -344.89501789501787   -4.17094e-07   1.77874e-06 DIIS
   @DF-RHF iter   7:  -344.89501795602780   -6.10099e-08   6.20664e-07 DIIS
   @DF-RHF iter   8:  -344.89501796768195   -1.16542e-08   2.94475e-07 DIIS
   @DF-RHF iter   9:  -344.89501797042794   -2.74599e-09   1.32602e-07 DIIS
   @DF-RHF iter  10:  -344.89501797108016   -6.52221e-10   3.77293e-08 DIIS
   @DF-RHF iter  11:  -344.89501797111666   -3.64935e-11   1.20560e-08 DIIS
   @DF-RHF iter  12:  -344.89501797111916   -2.50111e-12   3.06046e-09 DIIS

  ==> Post-Iterations <==

    Orbital Energies (a.u.)
    -----------------------

    Doubly Occupied:                                                      

       1A    -20.583445     2A    -20.554577     3A    -11.374274  
       4A    -11.292647     5A    -11.242177     6A    -11.223207  
       7A    -11.219153     8A     -1.456412     9A     -1.363600  
      10A     -1.065214    11A     -1.034910    12A     -0.905844  
      13A     -0.858170    14A     -0.767839    15A     -0.700346  
      16A     -0.681209    17A     -0.656203    18A     -0.633964  
      19A     -0.601045    20A     -0.564178    21A     -0.556982  
      22A     -0.528251    23A     -0.524891    24A     -0.519447  
      25A     -0.504271    26A     -0.491030    27A     -0.449035  
      28A     -0.433836  

    Virtual:                                                              

      29A      0.182006    30A      0.225243    31A      0.247742  
      32A      0.274388    33A      0.298665    34A      0.299822  
      35A      0.306322    36A      0.319531    37A      0.326147  
      38A      0.338415    39A      0.352696    40A      0.361628  
      41A      0.399171    42A      0.418619    43A      0.435054  
      44A      0.527693    45A      0.545739    46A      0.705615  
      47A      0.726764    48A      0.735264    49A      0.742809  
      50A      0.752455    51A      0.790692    52A      0.806059  
      53A      0.843139    54A      0.871024    55A      0.887164  
      56A      0.923184    57A      0.947108    58A      0.971077  
      59A      1.007354    60A      1.049557    61A      1.072884  
      62A      1.102948    63A      1.111290    64A      1.136922  
      65A      1.160705    66A      1.172723    67A      1.177682  
      68A      1.192834    69A      1.196734    70A      1.222826  
      71A      1.234211    72A      1.250674    73A      1.280763  
      74A      1.298651    75A      1.308332    76A      1.392282  
      77A      1.413738    78A      1.468598    79A      1.615612  
      80A      1.627904    81A      1.669307    82A      1.702453  
      83A      1.736467    84A      1.804237    85A      1.853437  
      86A      1.924110    87A      1.983552    88A      2.050095  
      89A      2.067052    90A      2.088301    91A      2.133159  
      92A      2.157930    93A      2.211560    94A      2.234883  
      95A      2.271255    96A      2.280257    97A      2.298696  
      98A      2.310766    99A      2.380158   100A      2.435132  
     101A      2.481900   102A      2.494721   103A      2.586582  
     104A      2.631603   105A      2.663898   106A      2.673186  
     107A      2.680137   108A      2.695106   109A      2.773179  
     110A      2.827389   111A      2.894194   112A      2.938619  
     113A      2.990013   114A      3.201953   115A      3.232259  
     116A      3.353861   117A      3.398641   118A      3.512785  
     119A      4.373259   120A      4.551879   121A      4.590032  
     122A      4.672140   123A      4.761114   124A      4.847051  
     125A      4.958097  

    Final Occupation by Irrep:
              A 
    DOCC [    28 ]

  Energy converged.

  @DF-RHF Final Energy:  -344.89501797111916

   => Energetics <=

    Nuclear Repulsion Energy =            313.3784820733847027
    One-Electron Energy =               -1090.9746895500106803
    Two-Electron Energy =                 432.7011895055066475
    DFT Exchange-Correlation Energy =       0.0000000000000000
    Empirical Dispersion Energy =           0.0000000000000000
    PCM Polarization Energy =               0.0000000000000000
    EFP Energy =                            0.0000000000000000
    Total Energy =                       -344.8950179711193300

    Alert: EFP and PCM quantities not currently incorporated into SCF psivars.

Properties will be evaluated at   0.000000,   0.000000,   0.000000 Bohr
  ==> Properties <==


Properties computed using the SCF density matrix

  Nuclear Dipole Moment: (a.u.)
     X:     0.1452      Y:    -4.4472      Z:    -2.6406

  Electronic Dipole Moment: (a.u.)
     X:    -0.2148      Y:     3.4675      Z:     2.0620

  Dipole Moment: (a.u.)
     X:    -0.0695      Y:    -0.9798      Z:    -0.5786     Total:     1.1400

  Dipole Moment: (Debye)
     X:    -0.1767      Y:    -2.4903      Z:    -1.4707     Total:     2.8975


  Saving occupied orbitals to File 180.

*** tstop() called on cx1-1-4-3.cx1.hpc.ic.ac.uk at Fri Sep  2 13:29:49 2016
Module time:
	user time   =      13.97 seconds =       0.23 minutes
	system time =       0.16 seconds =       0.00 minutes
	total time  =          5 seconds =       0.08 minutes
Total time:
	user time   =      79.44 seconds =       1.32 minutes
	system time =       0.88 seconds =       0.01 minutes
	total time  =         26 seconds =       0.43 minutes

*** tstart() called on cx1-1-4-3.cx1.hpc.ic.ac.uk
*** at Fri Sep  2 13:29:49 2016


         ------------------------------------------------------------
                                   SCF GRAD                          
                          Rob Parrish, Justin Turney,                
                       Andy Simmonett, and Alex Sokolov              
         ------------------------------------------------------------

  ==> Geometry <==

    Molecular point group: c1
    Full point group: C1

    Geometry (in Angstrom), charge = 0, multiplicity = 1:

       Center              X                  Y                   Z               Mass       
    ------------   -----------------  -----------------  -----------------  -----------------
           O          0.517414920281     1.510968771389     0.284202385601    15.994914619560
           C          0.404656033700     0.335153613788     0.283158759199    12.000000000000
           C          1.571375378602    -0.626646479316     0.282141728804    12.000000000000
           O         -0.814891089215    -0.261099292049     0.308636958352    15.994914619560
           C          2.938599078723     0.041989694285     0.360844333079    12.000000000000
           H          1.469446169374    -1.217805918015    -0.624860589530     1.007825032070
           H          1.425904233248    -1.327333322167     1.100534934981     1.007825032070
           H          3.088517007235     0.719447882530    -0.471264480465     1.007825032070
           H          3.728450531521    -0.701784931661     0.342737978014     1.007825032070
           H          3.034520414669     0.617991577499     1.273306229065     1.007825032070
           C         -1.601691409697    -0.173627692446    -0.873286314422    12.000000000000
           C         -2.929570632588    -0.843879360571    -0.606239202780    12.000000000000
           H         -1.077746524383    -0.683004180138    -1.681185384213     1.007825032070
           H         -1.733817178945     0.867127011411    -1.141461279811     1.007825032070
           H         -2.782804566296    -1.880894228062    -0.328255483262     1.007825032070
           H         -3.555105762272    -0.805787978567    -1.492613415604     1.007825032070
[...]
	 C           5.5144667784        0.0555033972        0.6830201775
	 H           2.7263930005       -2.3060877611       -1.1737731241
	 H           2.6382686089       -2.5123626318        2.0894241048
	 H           5.8013268945        1.3341592178       -0.8892382016
	 H           6.9917782119       -1.3650210235        0.6409587470
	 H           5.7134883702        1.1393747428        2.4087957731
	 C          -2.9979121375       -0.3241472042       -1.6359216684
	 C          -5.4977066076       -1.6176676140       -1.1288349285
	 H          -1.9976873625       -1.2457284848       -3.1732969008
	 H          -3.2639777214        1.6442032311       -2.1234442447
	 H          -5.2053386091       -3.5809570171       -0.6239361607
	 H          -6.6811247698       -1.5417907761       -2.8020970269
	 H          -6.4798232184       -0.6906877831        0.4102224146
	            -0.0000158470        0.0000649184        0.0001454946
	             0.0012257994       -0.0022803182        0.0059184881
	             0.0000278320       -0.0000163733       -0.0049658932
	            -0.0034820944        0.0069104602        0.0007182328
	            -0.0000234883       -0.0000046326        0.0000346640
	             0.0000226428        0.0000105121        0.0000172629
	            -0.0000144216       -0.0000350446        0.0000193614
	             0.0000071490        0.0000107778       -0.0000132247
	            -0.0000147305       -0.0000051130       -0.0000066679
	            -0.0000052673       -0.0000009199       -0.0000056984
	             0.0022259087       -0.0046290995       -0.0018934355
	             0.0000034721        0.0000021303       -0.0000006647
	             0.0000371565       -0.0000353907        0.0000096987
	            -0.0000072201        0.0000077564        0.0000266589
	            -0.0000019964       -0.0000007889       -0.0000023472
	             0.0000067273       -0.0000023427       -0.0000004958
	             0.0000083778        0.0000034681       -0.0000014341

	---Fragment 1 Intrafragment Coordinates---
	 - Coordinate -           - BOHR/RAD -       - ANG/DEG -
	 R(1,2)           =         2.236100	       1.183293
	 R(2,3)           =         2.850956	       1.508661
	 R(2,4)           =         2.548952	       1.348848
	 R(3,5)           =         2.878172	       1.523063
	 R(3,6)           =         2.055627	       1.087791
	 R(3,7)           =         2.052171	       1.085962
	 R(4,11)          =         2.686231	       1.421493
	 R(5,8)           =         2.046765	       1.083101
	 R(5,9)           =         2.049904	       1.084763
	 R(5,10)          =         2.047605	       1.083546
	 R(11,12)         =         2.859948	       1.513420
	 R(11,13)         =         2.052629	       1.086204
	 R(11,14)         =         2.045207	       1.082277
	 R(12,15)         =         2.048147	       1.083833
	 R(12,16)         =         2.050864	       1.085270
	 R(12,17)         =         2.047570	       1.083527
	 B(1,2,3)         =         2.181177	     124.972247
	 B(1,2,4)         =         2.135564	     122.358819
	 B(2,3,5)         =         1.983806	     113.663714
	 B(2,3,6)         =         1.857410	     106.421776
	 B(2,3,7)         =         1.883011	     107.888580
	 B(2,4,11)        =         2.039181	     116.836456
	 B(3,2,4)         =         1.965730	     112.628005
	 B(3,5,8)         =         1.939027	     111.098046
	 B(3,5,9)         =         1.924679	     110.276007
	 B(3,5,10)        =         1.937000	     110.981907
	 B(4,11,12)       =         1.882502	     107.859426
	 B(4,11,13)       =         1.902823	     109.023723
	 B(4,11,14)       =         1.907152	     109.271733
	 B(5,3,6)         =         1.941677	     111.249911
	 B(5,3,7)         =         1.947832	     111.602570
	 B(6,3,7)         =         1.842193	     105.549861
	 B(8,5,9)         =         1.892462	     108.430065
	 B(8,5,10)        =         1.878764	     107.645232
	 B(9,5,10)        =         1.890264	     108.304126
	 B(11,12,15)      =         1.931023	     110.639468
	 B(11,12,16)      =         1.920877	     110.058144
	 B(11,12,17)      =         1.925976	     110.350314
	 B(12,11,13)      =         1.934414	     110.833734
	 B(12,11,14)      =         1.943191	     111.336635
	 B(13,11,14)      =         1.893319	     108.479192
	 B(15,12,16)      =         1.895430	     108.600151
	 B(15,12,17)      =         1.893509	     108.490098
	 B(16,12,17)      =         1.896245	     108.646849
	 D(1,2,3,5)       =         0.109630	       6.281327
	 D(1,2,3,6)       =        -2.033616	    -116.517586
	 D(1,2,3,7)       =         2.279439	     130.602234
	 D(1,2,4,11)      =         1.182984	      67.779968
	 D(2,3,5,8)       =        -1.030235	     -59.028142
	 D(2,3,5,9)       =        -3.129008	    -179.278938
	 D(2,3,5,10)      =         1.059479	      60.703664
	 D(2,4,11,12)     =        -3.092147	    -177.166949
	 D(2,4,11,13)     =         1.089301	      62.412347
	 D(2,4,11,14)     =        -0.977286	     -55.994361
	*D(3,2,4,11)      =        -1.919862	    -109.999999
	 D(4,2,3,5)       =        -3.071906	    -176.007241
	 D(4,2,3,6)       =         1.068034	      61.193846
	 D(4,2,3,7)       =        -0.902097	     -51.686334
	 D(4,11,12,15)    =        -1.039006	     -59.530684
	 D(4,11,12,16)    =        -3.133832	    -179.555358
	 D(4,11,12,17)    =         1.056728	      60.546081
	 D(6,3,5,8)       =         1.065994	      61.076948
	 D(6,3,5,9)       =        -1.032778	     -59.173847
	 D(6,3,5,10)      =        -3.127477	    -179.191246
	 D(7,3,5,8)       =         3.118563	     178.680479
	 D(7,3,5,9)       =         1.019790	      58.429683
	 D(7,3,5,10)      =        -1.074908	     -61.587715
	 D(13,11,12,15)   =         1.042771	      59.746364
	 D(13,11,12,16)   =        -1.052055	     -60.278311
	 D(13,11,12,17)   =         3.138506	     179.823129
	 D(14,11,12,15)   =        -3.131251	    -179.407446
	 D(14,11,12,16)   =         1.057109	      60.567879
	 D(14,11,12,17)   =        -1.035516	     -59.330681

	Current energy   :      -344.8956693357

	Energy change for the previous step:
		Projected    :        -0.0000019551
		Actual       :        -0.0000002469
	Energy ratio indicates iffy step: Trust radius decreased to 2.500e-01.


	Performing BFGS update.
	Previous computed or guess Hessian on step 1.
	Steps to be used in Hessian update: 8 7
	Taking RFO optimization step.
	Going to follow RFO solution 1.
	Rejecting RFO root 1 because normalization gives large value.
	Using RFO vector 2.
	Norm of target step-size    0.00627
	Projected energy change by RFO approximation:        -0.0000002307

	Back-transformation to cartesian coordinates...
	Successfully converged to displaced geometry.

	Back-transformation to cartesian coordinates to adjust frozen coordinates...
	Successfully converged to displaced geometry.

	--- Internal Coordinate Step in ANG or DEG, aJ/ANG or AJ/DEG ---
	 ---------------------------------------------------------------------------
	   Coordinate                Previous        Force       Change         New 
	   ----------                --------       ------       ------       ------
	    1 R(1,2)          =      1.183293    -0.000470     0.000111     1.183404
	    2 R(2,3)          =      1.508661    -0.000439     0.000011     1.508672
	    3 R(2,4)          =      1.348848    -0.000355    -0.000302     1.348546
	    4 R(3,5)          =      1.523063     0.000265    -0.000045     1.523018
	    5 R(3,6)          =      1.087791     0.000184    -0.000032     1.087759
	    6 R(3,7)          =      1.085962    -0.000322     0.000071     1.086033
	    7 R(4,11)         =      1.421493    -0.000035     0.000103     1.421596
	    8 R(5,8)          =      1.083101    -0.000147     0.000009     1.083110
	    9 R(5,9)          =      1.084763     0.000057     0.000000     1.084763
	   10 R(5,10)         =      1.083546     0.000048    -0.000032     1.083515
	   11 R(11,12)        =      1.513420     0.000136     0.000015     1.513434
	   12 R(11,13)        =      1.086204    -0.000220    -0.000044     1.086161
	   13 R(11,14)        =      1.082277    -0.000017    -0.000004     1.082273
	   14 R(12,15)        =      1.083833     0.000001    -0.000007     1.083826
	   15 R(12,16)        =      1.085270     0.000029     0.000017     1.085287
	   16 R(12,17)        =      1.083527     0.000029    -0.000013     1.083515
	   17 B(1,2,3)        =    124.972247     0.000002     0.001962   124.974209
	   18 B(1,2,4)        =    122.358819     0.000006    -0.003973   122.354846
	   19 B(2,3,5)        =    113.663714     0.000001    -0.018898   113.644816
	   20 B(2,3,6)        =    106.421776    -0.000001     0.021898   106.443674
	   21 B(2,3,7)        =    107.888580    -0.000000     0.001794   107.890374
	   22 B(2,4,11)       =    116.836456    -0.000007     0.019461   116.855917
	   23 B(3,2,4)        =    112.628005    -0.000009     0.001668   112.629673
	   24 B(3,5,8)        =    111.098046    -0.000001     0.007306   111.105352
	   25 B(3,5,9)        =    110.276007     0.000002    -0.010285   110.265723
	   26 B(3,5,10)       =    110.981907     0.000000    -0.000324   110.981583
	   27 B(4,11,12)      =    107.859426    -0.000002     0.007822   107.867248
	   28 B(4,11,13)      =    109.023723     0.000002    -0.022183   109.001540
	   29 B(4,11,14)      =    109.271733     0.000001     0.010038   109.281771
	   30 B(5,3,6)        =    111.249911     0.000000    -0.000154   111.249757
	   31 B(5,3,7)        =    111.602570    -0.000000     0.002747   111.605318
	   32 B(6,3,7)        =    105.549861     0.000000    -0.005664   105.544197
	   33 B(8,5,9)        =    108.430065    -0.000000    -0.001125   108.428939
	   34 B(8,5,10)       =    107.645232     0.000000    -0.001387   107.643845
	   35 B(9,5,10)       =    108.304126    -0.000001     0.006022   108.310148
	   36 B(11,12,15)     =    110.639468    -0.000000     0.000513   110.639981
	   37 B(11,12,16)     =    110.058144     0.000000     0.010845   110.068989
	   38 B(11,12,17)     =    110.350314     0.000001    -0.007524   110.342790
	   39 B(12,11,13)     =    110.833734    -0.000000    -0.001357   110.832376
	   40 B(12,11,14)     =    111.336635     0.000001     0.006786   111.343421
	   41 B(13,11,14)     =    108.479192    -0.000002    -0.001591   108.477600
	   42 B(15,12,16)     =    108.600151     0.000000    -0.002289   108.597862
	   43 B(15,12,17)     =    108.490098    -0.000000    -0.000727   108.489372
	   44 B(16,12,17)     =    108.646849    -0.000001    -0.000935   108.645914
	   45 D(1,2,3,5)      =      6.281327     0.000001    -0.030906     6.250420
	   46 D(1,2,3,6)      =   -116.517586     0.000001    -0.034320  -116.551906
	   47 D(1,2,3,7)      =    130.602234     0.000001    -0.039048   130.563186
	   48 D(1,2,4,11)     =     67.779968    -0.000002    -0.009213    67.770755
	   49 D(2,3,5,8)      =    -59.028142     0.000000    -0.000976   -59.029118
	   50 D(2,3,5,9)      =   -179.278938     0.000000     0.002478  -179.276460
	   51 D(2,3,5,10)     =     60.703664     0.000000     0.001899    60.705563
	   52 D(2,4,11,12)    =   -177.166949     0.000000     0.184318  -176.982631
	   53 D(2,4,11,13)    =     62.412347     0.000000     0.194125    62.606472
	   54 D(2,4,11,14)    =    -55.994361     0.000000     0.203171   -55.791190
	   55 *D(3,2,4,11)    =   -109.999999     0.000000    -0.000000  -109.999999
	   56 D(4,2,3,5)      =   -176.007241    -0.000001    -0.040560  -176.047801
	   57 D(4,2,3,6)      =     61.193846    -0.000001    -0.043974    61.149872
	   58 D(4,2,3,7)      =    -51.686334    -0.000001    -0.048702   -51.735035
	   59 D(4,11,12,15)   =    -59.530684    -0.000000     0.012223   -59.518461
	   60 D(4,11,12,16)   =   -179.555358    -0.000000     0.007738  -179.547620
	   61 D(4,11,12,17)   =     60.546081    -0.000000     0.006756    60.552837
	   62 D(6,3,5,8)      =     61.076948    -0.000000     0.014056    61.091004
	   63 D(6,3,5,9)      =    -59.173847    -0.000000     0.017510   -59.156337
	   64 D(6,3,5,10)     =   -179.191246    -0.000000     0.016931  -179.174315
	   65 D(7,3,5,8)      =    178.680479     0.000000     0.008625   178.689104
	   66 D(7,3,5,9)      =     58.429683    -0.000000     0.012079    58.441762
	   67 D(7,3,5,10)     =    -61.587715    -0.000000     0.011500   -61.576215
	   68 D(13,11,12,15)  =     59.746364     0.000000    -0.010769    59.735594
	   69 D(13,11,12,16)  =    -60.278311     0.000000    -0.015254   -60.293565
	   70 D(13,11,12,17)  =    179.823129     0.000000    -0.016236   179.806893
	   71 D(14,11,12,15)  =   -179.407446    -0.000000    -0.009124  -179.416570
	   72 D(14,11,12,16)  =     60.567879    -0.000000    -0.013608    60.554271
	   73 D(14,11,12,17)  =    -59.330681    -0.000000    -0.014591   -59.345272
	 ---------------------------------------------------------------------------

  ==> Convergence Check <==

  Measures of convergence in internal coordinates in au.
  Criteria marked as inactive (o), active & met (*), and active & unmet ( ).
  ---------------------------------------------------------------------------------------------
   Step     Total Energy     Delta E     MAX Force     RMS Force      MAX Disp      RMS Disp   
  ---------------------------------------------------------------------------------------------
    Convergence Criteria    1.00e-06 *    3.00e-04 *             o    1.20e-03 *             o
  ---------------------------------------------------------------------------------------------
      9    -344.89566934   -2.47e-07 *    1.27e-04 *    3.46e-05 o    3.55e-03      7.34e-04 o  ~
  ---------------------------------------------------------------------------------------------


  **** Optimization is complete! (in 9 steps) ****

  ==> Optimization Summary <==

  Measures of convergence in internal coordinates in au.
  --------------------------------------------------------------------------------------------------------------- ~
   Step         Total Energy             Delta E       MAX Force       RMS Force        MAX Disp        RMS Disp  ~
  --------------------------------------------------------------------------------------------------------------- ~
      1    -344.894798159315   -344.894798159315      0.02031231      0.00304531      0.14553464      0.03032503  ~
      2    -344.894772288089      0.000025871226      0.00513128      0.00136971      0.16753941      0.03512559  ~
      3    -344.895017971119     -0.000245683030      0.00964975      0.00212972      0.05686129      0.01278105  ~
      4    -344.895657942219     -0.000639971100      0.00119081      0.00022610      0.02400310      0.00585972  ~
      5    -344.895668483645     -0.000010541426      0.00039547      0.00007439      0.01202358      0.00266583  ~
      6    -344.895668421964      0.000000061681      0.00037919      0.00007770      0.07011957      0.02327772  ~
      7    -344.895500103115      0.000168318849      0.00617469      0.00106793      0.06311586      0.02092157  ~
      8    -344.895669088833     -0.000168985718      0.00012237      0.00002928      0.00837043      0.00170137  ~
      9    -344.895669335739     -0.000000246906      0.00012669      0.00003463      0.00354600      0.00073361  ~
  --------------------------------------------------------------------------------------------------------------- ~

	Writing optimization data to binary file.
	Final energy is   -344.8956693357394
	Final (previous) structure:
	Cartesian Geometry (in Angstrom)
	    O     0.5149234964   1.5255826219   0.2469567953
	    C     0.4013910831   0.3487620281   0.2958096031
	    C     1.5479982244  -0.6316883127   0.2875536813
	    O    -0.8019982539  -0.2601863273   0.3164466363
	    C     2.9181303595   0.0293711351   0.3614387385
	    H     1.4427451477  -1.2203291774  -0.6211340328
	    H     1.3961117246  -1.3294851460   1.1056756998
	    H     3.0699302066   0.7060067046  -0.4705646252
	    H     3.6998899598  -0.7223380701   0.3391807865
	    H     3.0234480579   0.6029311920   1.2746799206
	    C    -1.5864268977  -0.1715313258  -0.8656925280
	    C    -2.9092612584  -0.8560328978  -0.5973537620
	    H    -1.0571307028  -0.6592111726  -1.6792365242
	    H    -1.7272227514   0.8700749426  -1.1236783838
	    H    -2.7545467653  -1.8949609831  -0.3301728211
	    H    -3.5354992259  -0.8158806014  -1.4828059961
	    H    -3.4289750247  -0.3654962610   0.2170803688
	Saving final (previous) structure.
			--------------------------
			 OPTKING Finished Execution 
			--------------------------

    Final optimized geometry and variables:
    Molecular point group: c1
    Full point group: C1

    Geometry (in Angstrom), charge = 0, multiplicity = 1:

    O            0.514923457085     1.525582505395     0.246956776470
    C            0.401391052433     0.348762001494     0.295809580490
    C            1.547998106204    -0.631688264448     0.287553659370
    O           -0.801998192647    -0.260186307421     0.316446612184
    C            2.918130136644     0.029371132817     0.361438710947
    H            1.442745037534    -1.220329084161    -0.621133985341
    H            1.396111617988    -1.329485044445     1.105675615320
    H            3.069929972164     0.706006650716    -0.470564589282
    H            3.699889677262    -0.722338014901     0.339180760567
    H            3.023447827043     0.602931145932     1.274679823255
    C           -1.586426776519    -0.171531312715    -0.865692461941
    C           -2.909261036231    -0.856032832395    -0.597353716416
    H           -1.057130622110    -0.659211122234    -1.679236395984
    H           -1.727222619513     0.870074876178    -1.123678298020
    H           -2.754546554918    -1.894960838413    -0.330172795855
    H           -3.535498955936    -0.815880539109    -1.482805882882
    H           -3.428974762866    -0.365496233048     0.217080352261

	Cleaning optimization helper files.


Properties will be evaluated at   0.000000,   0.000000,   0.000000 Bohr

Properties computed using the  density matrix

  Nuclear Dipole Moment: (a.u.)
     X:     0.1193      Y:    -4.5207      Z:    -2.5950

  Electronic Dipole Moment: (a.u.)
     X:    -0.2168      Y:     3.5312      Z:     2.0503

  Dipole Moment: (a.u.)
     X:    -0.0975      Y:    -0.9894      Z:    -0.5447     Total:     1.1337

  Dipole Moment: (Debye)
     X:    -0.2478      Y:    -2.5149      Z:    -1.3845     Total:     2.8815

  Quadrupole Moment: (Debye Ang)
    XX:   -39.4480     YY:   -48.0660     ZZ:   -41.5783
    XY:    -1.9939     XZ:     2.5444     YZ:    -0.2509

  Traceless Quadrupole Moment: (Debye Ang)
    XX:     3.5828     YY:    -5.0352     ZZ:     1.4524
    XY:    -1.9939     XZ:     2.5444     YZ:    -0.2509

  Mulliken Charges: (a.u.)
   Center  Symbol    Alpha    Beta     Spin     Total
       1     O     4.26036  4.26036  0.00000 -0.52071
       2     C     2.60931  2.60931  0.00000  0.78138
       3     C     3.20811  3.20811  0.00000 -0.41623
       4     O     4.32319  4.32319  0.00000 -0.64639
       5     C     3.23986  3.23986  0.00000 -0.47972
       6     H     0.40567  0.40567  0.00000  0.18867
       7     H     0.39921  0.39921  0.00000  0.20159
       8     H     0.40935  0.40935  0.00000  0.18130
       9     H     0.41782  0.41782  0.00000  0.16436
      10     H     0.40989  0.40989  0.00000  0.18021
      11     C     3.00303  3.00303  0.00000 -0.00607
      12     C     3.24718  3.24718  0.00000 -0.49435
      13     H     0.42390  0.42390  0.00000  0.15220
      14     H     0.40678  0.40678  0.00000  0.18644
      15     H     0.41161  0.41161  0.00000  0.17678
      16     H     0.41729  0.41729  0.00000  0.16541
      17     H     0.40743  0.40743  0.00000  0.18513

   Total alpha = 28.00000, Total beta = 28.00000, Total charge =  0.00000


*** PSI4 exiting successfully. Buy a developer a beer!
