    -----------------------------------------------------------------------
          Psi4: An Open-Source Ab Initio Electronic Structure Package
                              Psi4 1.0.54 Driver

                          Git: Rev {master} 8d4cec3 dirty

    J. M. Turney, A. C. Simmonett, R. M. Parrish, E. G. Hohenstein,
    F. A. Evangelista, J. T. Fermann, B. J. Mintz, L. A. Burns, J. J. Wilke,
    M. L. Abrams, N. J. Russ, M. L. Leininger, C. L. Janssen, E. T. Seidl,
    W. D. Allen, H. F. Schaefer, R. A. King, E. F. Valeev, C. D. Sherrill,
    and T. D. Crawford, WIREs Comput. Mol. Sci. 2, 556-565 (2012)
    (doi: 10.1002/wcms.93)

                         Additional Contributions by
    A. E. DePrince, U. Bozkaya, A. Yu. Sokolov, D. G. A. Smith, R. Di Remigio,
    R. M. Richard, J. F. Gonthier, H. R. McAlexander, M. Saitow, and
    B. P. Pritchard
    -----------------------------------------------------------------------


    Psi4 started on: Sat Sep 10 20:10:00 2016

    Process ID:   9249
    PSI4DATADIR: /export131/home/mjharvey/miniconda3/share/psi4
    Memory level set to 256.000 MB

  ==> Input File <==

--------------------------------------------------------------------------
set {
	reference rhf
	basis cc-pvtz
}


set_num_threads( 4 )
memory 2 gb

molecule MOL {
0 1

O	 -2.071633	 -1.227563	 -0.223463
C	 -1.652164	 -0.152425	 0.058082
C	 -0.327811	 0.006324	 0.778296
C	 -2.402515	 1.108629	 -0.298924
C	 0.308781	 -1.357880	 1.070054
H	 0.351792	 0.610116	 0.186096
H	 -0.521106	 0.524100	 1.709092
C	 1.637226	 -1.241550	 1.811628
H	 0.465213	 -1.897432	 0.139406
H	 -0.387191	 -1.947301	 1.657055
C	 2.267902	 -2.596292	 2.115079
H	 2.328136	 -0.645265	 1.222043
H	 1.480831	 -0.699782	 2.739835
H	 2.468871	 -3.148293	 1.202971
H	 1.612752	 -3.203291	 2.730465
H	 3.206239	 -2.480653	 2.644752
H	 -3.240910	 0.874416	 -0.936711
H	 -1.747554	 1.818823	 -0.790984
H	 -2.760419	 1.579708	 0.610998

	symmetry c1
}
set optking {
	frozen_dihedral = ("
		5 3 2 4
	")
}

ee,wfn = optimize('scf', return_wfn=True)
oeprop( wfn, 'DIPOLE', 'QUADRUPOLE', 'MULLIKEN_CHARGES')
f=open( 'psi4out.xyz', 'w' )
f.write( "19  " )
f.write( str(ee) + "\n" )
f.write( MOL.save_string_xyz() )
f.close()
--------------------------------------------------------------------------

  Memory set to   2.000 GiB by Python script.
gradient() will perform analytic gradient computation.

*** tstart() called on cx1-27-3-4
*** at Sat Sep 10 20:10:00 2016


         ---------------------------------------------------------
                                   SCF
            by Justin Turney, Rob Parrish, and Andy Simmonett
                              RHF Reference
                        4 Threads,   2000 MiB Core
         ---------------------------------------------------------

  ==> Geometry <==

    Molecular point group: c1
    Full point group: C1

    Geometry (in Angstrom), charge = 0, multiplicity = 1:

       Center              X                  Y                   Z               Mass       
    ------------   -----------------  -----------------  -----------------  -----------------
           O         -1.753151583923    -0.437111450739    -0.983327644491    15.994914619560
           C         -1.333682583923     0.638026549261    -0.701782644491    12.000000000000
           C         -0.009329583923     0.796775549261     0.018431355509    12.000000000000
           C         -2.084033583923     1.899080549261    -1.058788644491    12.000000000000
           C          0.627262416077    -0.567428450739     0.310189355509    12.000000000000
           H          0.670273416077     1.400567549261    -0.573768644491     1.007825032070
           H         -0.202624583923     1.314551549261     0.949227355509     1.007825032070
           C          1.955707416077    -0.451098450739     1.051763355509    12.000000000000
           H          0.783694416077    -1.106980450739    -0.620458644491     1.007825032070
           H         -0.068709583923    -1.156849450739     0.897190355509     1.007825032070
           C          2.586383416077    -1.805840450739     1.355214355509    12.000000000000
           H          2.646617416077     0.145186549261     0.462178355509     1.007825032070
           H          1.799312416077     0.090669549261     1.979970355509     1.007825032070
           H          2.787352416077    -2.357841450739     0.443106355509     1.007825032070
           H          1.931233416077    -2.412839450739     1.970600355509     1.007825032070
           H          3.524720416077    -1.690201450739     1.884887355509     1.007825032070
           H         -2.922428583923     1.664867549261    -1.696575644491     1.007825032070
           H         -1.429072583923     2.609274549261    -1.550848644491     1.007825032070
           H         -2.441937583923     2.370159549261    -0.148866644491     1.007825032070

  Running in c1 symmetry.

  Rotational constants: A =      0.25954  B =      0.03514  C =      0.03185 [cm^-1]
  Rotational constants: A =   7780.86508  B =   1053.52296  C =    954.86715 [MHz]
  Nuclear repulsion =  302.152373166872792

  Charge       = 0
  Multiplicity = 1
  Electrons    = 56
  Nalpha       = 28
  Nbeta        = 28

  ==> Algorithm <==

  SCF Algorithm Type is DF.
  DIIS enabled.
  MOM disabled.
  Fractional occupation disabled.
  Guess Type is SAD.
  Energy threshold   = 1.00e-08
  Density threshold  = 1.00e-08
  Integral threshold = 0.00e+00

  ==> Primary Basis <==

  Basis Set: CC-PVTZ
    Number of shells: 142
    Number of basis function: 378
    Number of Cartesian functions: 425
    Spherical Harmonics?: true
    Max angular momentum: 3

  ==> Pre-Iterations <==

   -------------------------------------------------------
    Irrep   Nso     Nmo     Nalpha   Nbeta   Ndocc  Nsocc
   -------------------------------------------------------
     A        378     378       0       0       0       0
   -------------------------------------------------------
    Total     378     378      28      28      28       0
   -------------------------------------------------------

  ==> Integral Setup <==

  ==> DFJK: Density-Fitted J/K Matrices <==

    J tasked:                  Yes
    K tasked:                  Yes
    wK tasked:                  No
    OpenMP threads:              4
    Integrals threads:           4
    Memory (MB):              1430
    Algorithm:                Core
    Integral Cache:           NONE
    Schwarz Cutoff:          1E-12
    Fitting Condition:       1E-12

   => Auxiliary Basis Set <=

  Basis Set: 
    Number of shells: 295
    Number of basis function: 913
    Number of Cartesian functions: 1092
    Spherical Harmonics?: true
    Max angular momentum: 4

  Minimum eigenvalue in the overlap matrix is 2.6133325017E-04.
  Using Symmetric Orthogonalization.
  SCF Guess: Superposition of Atomic Densities via on-the-fly atomic UHF.

  ==> Iterations <==

                           Total Energy        Delta E     RMS |[F,P]|

   @DF-RHF iter   0:  -312.42794489555610   -3.12428e+02   1.37559e-02 
   @DF-RHF iter   1:  -308.95878519419199    3.46916e+00   1.41912e-03 
   @DF-RHF iter   2:  -309.12062509934850   -1.61840e-01   9.33031e-04 DIIS
   @DF-RHF iter   3:  -309.16719701926621   -4.65719e-02   2.52691e-04 DIIS
   @DF-RHF iter   4:  -309.17659839330628   -9.40137e-03   7.73887e-05 DIIS
   @DF-RHF iter   5:  -309.17760672934861   -1.00834e-03   3.22194e-05 DIIS
   @DF-RHF iter   6:  -309.17781661681653   -2.09887e-04   1.16438e-05 DIIS
   @DF-RHF iter   7:  -309.17784525010524   -2.86333e-05   3.43704e-06 DIIS
   @DF-RHF iter   8:  -309.17784888348302   -3.63338e-06   1.34869e-06 DIIS
   @DF-RHF iter   9:  -309.17784952350127   -6.40018e-07   6.84329e-07 DIIS
   @DF-RHF iter  10:  -309.17784971817110   -1.94670e-07   2.74624e-07 DIIS
   @DF-RHF iter  11:  -309.17784975175908   -3.35880e-08   7.65657e-08 DIIS
   @DF-RHF iter  12:  -309.17784975341357   -1.65448e-09   2.37558e-08 DIIS
   @DF-RHF iter  13:  -309.17784975353658   -1.23009e-10   7.41625e-09 DIIS

  ==> Post-Iterations <==

    Orbital Energies (a.u.)
    -----------------------

    Doubly Occupied:                                                      

       1A    -20.538783     2A    -11.320578     3A    -11.229861  
       4A    -11.227408     5A    -11.215502     6A    -11.213494  
       7A    -11.206987     8A     -1.399529     9A     -1.084607  
      10A     -1.029530    11A     -0.984684    12A     -0.885268  
      13A     -0.798906    14A     -0.732082    15A     -0.658702  
      16A     -0.654516    17A     -0.628097    18A     -0.612319  
      19A     -0.579807    20A     -0.571531    21A     -0.555693  
      22A     -0.528651    23A     -0.511654    24A     -0.492093  
      25A     -0.473631    26A     -0.470188    27A     -0.468018  
      28A     -0.403439  

    Virtual:                                                              

      29A      0.130442    30A      0.147215    31A      0.150847  
      32A      0.174336    33A      0.185834    34A      0.188755  
      35A      0.209644    36A      0.214276    37A      0.231423  
      38A      0.233377    39A      0.240664    40A      0.263146  
      41A      0.275671    42A      0.295365    43A      0.309851  
      44A      0.324977    45A      0.354142    46A      0.370478  
      47A      0.383752    48A      0.388157    49A      0.403786  
      50A      0.413941    51A      0.457170    52A      0.464526  
      53A      0.467163    54A      0.497093    55A      0.503785  
      56A      0.519003    57A      0.546822    58A      0.553841  
      59A      0.569882    60A      0.587476    61A      0.606619  
      62A      0.616246    63A      0.618202    64A      0.628927  
      65A      0.641590    66A      0.644655    67A      0.652252  
      68A      0.657300    69A      0.660843    70A      0.666413  
      71A      0.683401    72A      0.685841    73A      0.697767  
      74A      0.706872    75A      0.710815    76A      0.741542  
      77A      0.757448    78A      0.770039    79A      0.781764  
      80A      0.813430    81A      0.856997    82A      0.863966  
      83A      0.867754    84A      0.877573    85A      0.919291  
      86A      0.930601    87A      0.934984    88A      0.958740  
      89A      0.965280    90A      0.985987    91A      1.001328  
      92A      1.015818    93A      1.038819    94A      1.058463  
      95A      1.088094    96A      1.097083    97A      1.133731  
      98A      1.141017    99A      1.156291   100A      1.161087  
     101A      1.192443   102A      1.201369   103A      1.217843  
     104A      1.230251   105A      1.253721   106A      1.259643  
     107A      1.269698   108A      1.277642   109A      1.294314  
     110A      1.302572   111A      1.323793   112A      1.333045  
     113A      1.339793   114A      1.345617   115A      1.357455  
     116A      1.382340   117A      1.392708   118A      1.401643  
     119A      1.410807   120A      1.428459   121A      1.447897  
     122A      1.459605   123A      1.479342   124A      1.482009  
     125A      1.492634   126A      1.500836   127A      1.527456  
     128A      1.534100   129A      1.542952   130A      1.562958  
     131A      1.573060   132A      1.579484   133A      1.595903  
     134A      1.605989   135A      1.612938   136A      1.626263  
     137A      1.644237   138A      1.655731   139A      1.669356  
     140A      1.699888   141A      1.738608   142A      1.753898  
     143A      1.758683   144A      1.792520   145A      1.803214  
     146A      1.815724   147A      1.829297   148A      1.838393  
     149A      1.852137   150A      1.913207   151A      1.940086  
     152A      2.019734   153A      2.080054   154A      2.113625  
     155A      2.207530   156A      2.254118   157A      2.429528  
     158A      2.458998   159A      2.490947   160A      2.496825  
     161A      2.564035   162A      2.589089   163A      2.612754  
     164A      2.650545   165A      2.657834   166A      2.675863  
     167A      2.704083   168A      2.707522   169A      2.730318  
     170A      2.788857   171A      2.791263   172A      2.794146  
     173A      2.811127   174A      2.822574   175A      2.850915  
     176A      2.880039   177A      2.899072   178A      2.904043  
     179A      2.912196   180A      2.943918   181A      2.950630  
     182A      2.963778   183A      2.979693   184A      2.991376  
     185A      3.028705   186A      3.046713   187A      3.065449  
     188A      3.100174   189A      3.110890   190A      3.121294  
     191A      3.125996   192A      3.140465   193A      3.146090  
     194A      3.164814   195A      3.191040   196A      3.198740  
     197A      3.210732   198A      3.243562   199A      3.244647  
     200A      3.274540   201A      3.280026   202A      3.305225  
     203A      3.317162   204A      3.330364   205A      3.348378  
     206A      3.357368   207A      3.365049   208A      3.386232  
     209A      3.393688   210A      3.407102   211A      3.411618  
     212A      3.428942   213A      3.429141   214A      3.436818  
     215A      3.445985   216A      3.457417   217A      3.461749  
     218A      3.469348   219A      3.492689   220A      3.501899  
     221A      3.528348   222A      3.544945   223A      3.564121  
     224A      3.566638   225A      3.580467   226A      3.599906  
     227A      3.607219   228A      3.618725   229A      3.630166  
     230A      3.663877   231A      3.682244   232A      3.703103  
     233A      3.720505   234A      3.730557   235A      3.753396  
     236A      3.783746   237A      3.791379   238A      3.806145  
     239A      3.815999   240A      3.830150   241A      3.837330  
     242A      3.876033   243A      3.884989   244A      3.887649  
     245A      3.893180   246A      3.901425   247A      3.963633  
     248A      3.975964   249A      3.985792   250A      4.009248  
     251A      4.023972   252A      4.044689   253A      4.068506  
     254A      4.089175   255A      4.091822   256A      4.111941  
     257A      4.122821   258A      4.137801   259A      4.147543  
     260A      4.153307   261A      4.169595   262A      4.194187  
     263A      4.200343   264A      4.209731   265A      4.218517  
     266A      4.226057   267A      4.230102   268A      4.235618  
     269A      4.268362   270A      4.286045   271A      4.303294  
     272A      4.326698   273A      4.335984   274A      4.366931  
     275A      4.374474   276A      4.385474   277A      4.405039  
     278A      4.410461   279A      4.415949   280A      4.428925  
     281A      4.439353   282A      4.452720   283A      4.466265  
     284A      4.472937   285A      4.484999   286A      4.539260  
     287A      4.548172   288A      4.559612   289A      4.583504  
     290A      4.594905   291A      4.605530   292A      4.624822  
     293A      4.635405   294A      4.640613   295A      4.667235  
     296A      4.679548   297A      4.701034   298A      4.724015  
     299A      4.741900   300A      4.758890   301A      4.779326  
     302A      4.791632   303A      4.848229   304A      4.855228  
     305A      4.891471   306A      4.930937   307A      5.005804  
     308A      5.032052   309A      5.044953   310A      5.072645  
     311A      5.090282   312A      5.125712   313A      5.137382  
     314A      5.169848   315A      5.213310   316A      5.219903  
     317A      5.232661   318A      5.253268   319A      5.272215  
     320A      5.290441   321A      5.326919   322A      5.333414  
     323A      5.336595   324A      5.373448   325A      5.380750  
     326A      5.410526   327A      5.430155   328A      5.463095  
     329A      5.478384   330A      5.512027   331A      5.533894  
     332A      5.539824   333A      5.548371   334A      5.617325  
     335A      5.625116   336A      5.641510   337A      5.650082  
     338A      5.651673   339A      5.723461   340A      5.730511  
     341A      5.747631   342A      5.752446   343A      5.769893  
     344A      5.777355   345A      5.807089   346A      5.848833  
     347A      5.882176   348A      5.901180   349A      5.912851  
     350A      5.922968   351A      5.941930   352A      5.982306  
     353A      6.068314   354A      6.088007   355A      6.098059  
     356A      6.226189   357A      6.253719   358A      6.262527  
     359A      6.306404   360A      6.334303   361A      6.351339  
     362A      6.394594   363A      6.464987   364A      6.814387  
     365A      6.837518   366A      6.958202   367A      7.061857  
     368A      7.226792   369A      7.400179   370A      7.601721  
     371A      7.617011   372A      9.589994   373A     13.338738  
     374A     13.463914   375A     13.947189   376A     14.259101  
     377A     14.270595   378A     14.574598  

    Final Occupation by Irrep:
              A 
    DOCC [    28 ]

  Energy converged.

  @DF-RHF Final Energy:  -309.17784975353658

   => Energetics <=

    Nuclear Repulsion Energy =            302.1523731668727919
    One-Electron Energy =               -1017.7093316777439895
    Two-Electron Energy =                 406.3791087573347340
    DFT Exchange-Correlation Energy =       0.0000000000000000
    Empirical Dispersion Energy =           0.0000000000000000
    PCM Polarization Energy =               0.0000000000000000
    EFP Energy =                            0.0000000000000000
    Total Energy =                       -309.1778497535365204


  Saving occupied orbitals to File 180.

*** tstop() called on cx1-27-3-4 at Sat Sep 10 20:10:11 2016
Module time:
	user time   =      37.55 seconds =       0.63 minutes
	system time =       0.86 seconds =       0.01 minutes
	total time  =         11 seconds =       0.18 minutes
Total time:
	user time   =      37.55 seconds =       0.63 minutes
	system time =       0.86 seconds =       0.01 minutes
	total time  =         11 seconds =       0.18 minutes


Properties will be evaluated at   0.000000,   0.000000,   0.000000 Bohr

Properties computed using the SCF density matrix

  Nuclear Dipole Moment: (a.u.)
     X:     6.6274      Y:     0.8140      Z:     3.7420

  Electronic Dipole Moment: (a.u.)
     X:    -6.2017      Y:     0.2157      Z:    -3.4522

  Dipole Moment: (a.u.)
     X:     0.4257      Y:     1.0297      Z:     0.2898     Total:     1.1513

  Dipole Moment: (Debye)
     X:     1.0819      Y:     2.6172      Z:     0.7365     Total:     2.9262


*** tstart() called on cx1-27-3-4
*** at Sat Sep 10 20:10:11 2016


         ------------------------------------------------------------
                                   SCF GRAD                          
                          Rob Parrish, Justin Turney,                
                       Andy Simmonett, and Alex Sokolov              
         ------------------------------------------------------------

  ==> Geometry <==

    Molecular point group: c1
    Full point group: C1

    Geometry (in Angstrom), charge = 0, multiplicity = 1:

       Center              X                  Y                   Z               Mass       
    ------------   -----------------  -----------------  -----------------  -----------------
           O         -1.753151583923    -0.437111450739    -0.983327644491    15.994914619560
           C         -1.333682583923     0.638026549261    -0.701782644491    12.000000000000
           C         -0.009329583923     0.796775549261     0.018431355509    12.000000000000
           C         -2.084033583923     1.899080549261    -1.058788644491    12.000000000000
           C          0.627262416077    -0.567428450739     0.310189355509    12.000000000000
           H          0.670273416077     1.400567549261    -0.573768644491     1.007825032070
           H         -0.202624583923     1.314551549261     0.949227355509     1.007825032070
           C          1.955707416077    -0.451098450739     1.051763355509    12.000000000000
           H          0.783694416077    -1.106980450739    -0.620458644491     1.007825032070
           H         -0.068709583923    -1.156849450739     0.897190355509     1.007825032070
           C          2.586383416077    -1.805840450739     1.355214355509    12.000000000000
           H          2.646617416077     0.145186549261     0.462178355509     1.007825032070
           H          1.799312416077     0.090669549261     1.979970355509     1.007825032070
           H          2.787352416077    -2.357841450739     0.443106355509     1.007825032070
           H          1.931233416077    -2.412839450739     1.970600355509     1.007825032070
           H          3.524720416077    -1.690201450739     1.884887355509     1.007825032070
           H         -2.922428583923     1.664867549261    -1.696575644491     1.007825032070
           H         -1.429072583923     2.609274549261    -1.550848644491     1.007825032070
           H         -2.441937583923     2.370159549261    -0.148866644491     1.007825032070

  Nuclear repulsion =  302.152373166872792

  ==> Basis Set <==

  Basis Set: CC-PVTZ
    Number of shells: 142
    Number of basis function: 378
    Number of Cartesian functions: 425
    Spherical Harmonics?: true
    Max angular momentum: 3

  ==> DFJKGrad: Density-Fitted SCF Gradients <==

    Gradient:                    1
    J tasked:                  Yes
    K tasked:                  Yes
    wK tasked:                  No
    OpenMP threads:              4
    Integrals threads:           4
    Memory (MB):              1430
    Schwarz Cutoff:          0E+00
    Fitting Condition:       1E-12

   => Auxiliary Basis Set <=

  Basis Set: 
    Number of shells: 295
    Number of basis function: 913
    Number of Cartesian functions: 1092
    Spherical Harmonics?: true
    Max angular momentum: 4


  -Total Gradient:
     Atom            X                  Y                   Z
    ------   -----------------  -----------------  -----------------
       1        0.003794252971    -0.002204348658     0.000224463038
       2       -0.002975515719    -0.000605274908     0.006667855459
       3       -0.000587093410     0.017492957267    -0.001143535445
       4       -0.000202804433    -0.000722313138    -0.002006065875
       5       -0.002996371328    -0.002954289572    -0.001102021440
       6        0.003091208647    -0.003802896759    -0.000071202445
       7       -0.001582002205    -0.005182968870    -0.001028165528
       8        0.001327744674    -0.000353549943     0.000060350370
       9        0.002183981295    -0.001689659564    -0.001698518261
      10       -0.000912909764     0.000516474620     0.001245850262
      11       -0.000342554434    -0.000369217952    -0.000045068762
      12       -0.000627473791    -0.000121809014    -0.000119780310
      13       -0.000856412347    -0.000240229313    -0.000909361239
      14        0.000225773246    -0.000110172242    -0.000050374328
      15        0.000098664750     0.000033815790     0.000068645016
      16       -0.000221342535     0.000127365799    -0.000125531263
      17        0.000080862686     0.000198867243    -0.000308967924
      18        0.000073344592     0.000411434068     0.000065587600
      19        0.000428647103    -0.000424184854     0.000275841076


*** tstop() called on cx1-27-3-4 at Sat Sep 10 20:10:21 2016
Module time:
	user time   =      37.26 seconds =       0.62 minutes
	system time =       0.72 seconds =       0.01 minutes
	total time  =         10 seconds =       0.17 minutes
Total time:
	user time   =      74.95 seconds =       1.25 minutes
	system time =       1.58 seconds =       0.03 minutes
	total time  =         21 seconds =       0.35 minutes

			-----------------------------------------
			 OPTKING 2.0: for geometry optimizations 
			  - R.A. King,  Bethel University        
			-----------------------------------------

	Internal coordinates to be generated automatically.
	Detected frag 1 with atoms:  1 2 3 4 5 6 7 8 9 10 11 12 13 14 15 16 17 18 19
	---Fragment 1 Bond Connectivity---
	 1 : 2
	 2 : 1 3 4
	 3 : 2 5 6 7
	 4 : 2 17 18 19
	 5 : 3 8 9 10
	 6 : 3
	 7 : 3
	 8 : 5 11 12 13
	 9 : 5
	 10 : 5
	 11 : 8 14 15 16
	 12 : 8
	 13 : 8
	 14 : 11
	 15 : 11
	 16 : 11
	 17 : 4
	 18 : 4
	 19 : 4

	Assuming in current code that numbering for constraints corresponds to unified fragment.
	Frozen dihedral atom list: 
	     5     3     2     4
	---Fragment 1 Geometry and Gradient---
	 O          -3.3129763630       -0.8260209314       -1.8582199470
	 C          -2.5202948318        1.2056954436       -1.3261770029
	 C          -0.0176303585        1.5056875775        0.0348302142
	 C          -3.9382527254        3.5887421424       -2.0008205707
	 C           1.1853541798       -1.0722843719        0.5861729312
	 H           1.2666331905        2.6466890987       -1.0842656017
	 H          -0.3829049714        2.4841424157        1.7937797398
	 C           3.6957514124       -0.8524525309        1.9875446985
	 H           1.4809678183       -2.0918898864       -1.1724969149
	 H          -0.1298422963       -2.1861286389        1.6954440610
	 C           4.8875563310       -3.4125438916        2.5609839833
	 H           5.0013820949        0.2743628163        0.8733905165
	 H           3.4002076939        0.1713406167        3.7416017231
	 H           5.2673327022       -4.4556746067        0.8373496597
	 H           3.6495022551       -4.5596057645        3.7238949893
	 H           6.6607562814       -3.1940178513        3.5619208933
	 H          -5.5225896665        3.1461437156       -3.2060633318
	 H          -2.7005558076        4.9308143036       -2.9306792116
	 H          -4.6145932672        4.4789524393       -0.2813171884
	             0.0037942530       -0.0022043487        0.0002244630
	            -0.0029755157       -0.0006052749        0.0066678555
	            -0.0005870934        0.0174929573       -0.0011435354
	            -0.0002028044       -0.0007223131       -0.0020060659
	            -0.0029963713       -0.0029542896       -0.0011020214
	             0.0030912086       -0.0038028968       -0.0000712024
	            -0.0015820022       -0.0051829689       -0.0010281655
	             0.0013277447       -0.0003535499        0.0000603504
	             0.0021839813       -0.0016896596       -0.0016985183
	            -0.0009129098        0.0005164746        0.0012458503
	            -0.0003425544       -0.0003692180       -0.0000450688
	            -0.0006274738       -0.0001218090       -0.0001197803
	            -0.0008564123       -0.0002402293       -0.0009093612
	             0.0002257732       -0.0001101722       -0.0000503743
	             0.0000986648        0.0000338158        0.0000686450
	            -0.0002213425        0.0001273658       -0.0001255313
	             0.0000808627        0.0001988672       -0.0003089679
	             0.0000733446        0.0004114341        0.0000655876
	             0.0004286471       -0.0004241849        0.0002758411

	Previous optimization step data not found.  Starting new optimization.

	---Fragment 1 Intrafragment Coordinates---
	 - Coordinate -           - BOHR/RAD -       - ANG/DEG -
	 R(1,2)           =         2.244835	       1.187916
	 R(2,3)           =         2.864553	       1.515856
	 R(2,4)           =         2.853885	       1.510211
	 R(3,5)           =         2.897773	       1.533436
	 R(3,6)           =         2.050267	       1.084954
	 R(3,7)           =         2.045655	       1.082514
	 R(4,17)          =         2.039271	       1.079136
	 R(4,18)          =         2.048826	       1.084192
	 R(4,19)          =         2.051000	       1.085343
	 R(5,8)           =         2.883446	       1.525854
	 R(5,9)           =         2.054240	       1.087057
	 R(5,10)          =         2.049603	       1.084603
	 R(8,11)          =         2.881545	       1.524848
	 R(8,12)          =         2.053223	       1.086519
	 R(8,13)          =         2.052368	       1.086066
	 R(11,14)         =         2.050187	       1.084912
	 R(11,15)         =         2.049607	       1.084606
	 R(11,16)         =         2.047893	       1.083698
	 B(1,2,3)         =         2.112847	     121.057215
	 B(1,2,4)         =         2.122656	     121.619217
	 B(2,3,5)         =         1.938984	     111.095605
	 B(2,3,6)         =         1.924315	     110.255152
	 B(2,3,7)         =         1.878235	     107.614963
	 B(2,4,17)        =         1.922496	     110.150887
	 B(2,4,18)        =         1.932762	     110.739118
	 B(2,4,19)        =         1.905071	     109.152552
	 B(3,2,4)         =         2.047610	     117.319433
	 B(3,5,8)         =         1.967170	     112.710543
	 B(3,5,9)         =         1.916031	     109.780467
	 B(3,5,10)        =         1.896582	     108.666137
	 B(5,3,6)         =         1.916553	     109.810391
	 B(5,3,7)         =         1.913519	     109.636535
	 B(5,8,11)        =         1.970421	     112.896787
	 B(5,8,12)        =         1.908943	     109.374398
	 B(5,8,13)        =         1.905008	     109.148937
	 B(6,3,7)         =         1.891246	     108.360386
	 B(8,5,9)         =         1.905651	     109.185778
	 B(8,5,10)        =         1.914593	     109.698110
	 B(8,11,14)       =         1.940508	     111.182922
	 B(8,11,15)       =         1.939382	     111.118398
	 B(8,11,16)       =         1.939690	     111.136042
	 B(9,5,10)        =         1.860792	     106.615538
	 B(11,8,12)       =         1.909816	     109.424409
	 B(11,8,13)       =         1.909927	     109.430731
	 B(12,8,13)       =         1.856228	     106.354041
	 B(14,11,15)      =         1.879847	     107.707309
	 B(14,11,16)      =         1.880539	     107.746972
	 B(15,11,16)      =         1.881180	     107.783675
	 B(17,4,18)       =         1.921193	     110.076256
	 B(17,4,19)       =         1.910809	     109.481266
	 B(18,4,19)       =         1.870661	     107.180955
	 D(1,2,3,5)       =        -0.012707	      -0.728073
	 D(1,2,3,6)       =         2.116169	     121.247569
	 D(1,2,3,7)       =        -2.107563	    -120.754470
	 D(1,2,4,17)      =        -0.141341	      -8.098229
	 D(1,2,4,18)      =        -2.270661	    -130.099285
	 D(1,2,4,19)      =         1.957107	     112.133985
	 D(2,3,5,8)       =        -3.128620	    -179.256737
	 D(2,3,5,9)       =         1.026218	      58.797976
	 D(2,3,5,10)      =        -1.002676	     -57.449129
	 D(3,2,4,17)      =         2.987468	     171.169315
	 D(3,2,4,18)      =         0.858148	      49.168259
	 D(3,2,4,19)      =        -1.197269	     -68.598472
	 D(3,5,8,11)      =         3.132541	     179.481382
	 D(3,5,8,12)      =        -1.019832	     -58.432089
	 D(3,5,8,13)      =         1.004408	      57.548314
	*D(4,2,3,5)       =         3.141593	     180.000000
	 D(4,2,3,6)       =        -1.012716	     -58.024337
	 D(4,2,3,7)       =         1.046737	      59.973624
	 D(5,8,11,14)     =         1.050931	      60.213906
	 D(5,8,11,15)     =        -1.042725	     -59.743717
	 D(5,8,11,16)     =        -3.137517	    -179.766491
	 D(6,3,5,8)       =         1.021177	      58.509152
	 D(6,3,5,9)       =        -1.107169	     -63.436135
	 D(6,3,5,10)      =        -3.136064	    -179.683240
	 D(7,3,5,8)       =        -1.054851	     -60.438514
	 D(7,3,5,9)       =         3.099987	     177.616199
	 D(7,3,5,10)      =         1.071093	      61.369094
	 D(9,5,8,11)      =        -1.016447	     -58.238101
	 D(9,5,8,12)      =         1.114365	      63.848429
	 D(9,5,8,13)      =         3.138605	     179.828831
	 D(10,5,8,11)     =         1.016817	      58.259295
	 D(10,5,8,12)     =        -3.135557	    -179.654176
	 D(10,5,8,13)     =        -1.111317	     -63.673773
	 D(12,8,11,14)    =        -1.079390	     -61.844520
	 D(12,8,11,15)    =         3.110139	     178.197858
	 D(12,8,11,16)    =         1.015347	      58.175083
	 D(13,8,11,14)    =        -3.106891	    -178.011763
	 D(13,8,11,15)    =         1.082638	      62.030615
	 D(13,8,11,16)    =        -1.012154	     -57.992160

	Current energy   :      -309.1778497535

	Generating empirical Hessian (Schlegel '84) for each fragment.
	Taking RFO optimization step.
	Going to follow RFO solution 1.
	Using RFO vector 1.
	Norm of target step-size    0.30652
	Projected energy change by RFO approximation:        -0.0012580605

	Back-transformation to cartesian coordinates...
	Could not converge backtransformation.
	Using first guess instead.

	Back-transformation to cartesian coordinates to adjust frozen coordinates...
	Successfully converged to displaced geometry.

	--- Internal Coordinate Step in ANG or DEG, aJ/ANG or AJ/DEG ---
	 ---------------------------------------------------------------------------
	   Coordinate                Previous        Force       Change         New 
	   ----------                --------       ------       ------       ------
	    1 R(1,2)          =      1.187916    -0.004960     0.054940     1.242855
	    2 R(2,3)          =      1.515856     0.024996     0.050888     1.566744
	    3 R(2,4)          =      1.510211     0.001401     0.008206     1.518417
	    4 R(3,5)          =      1.533436    -0.026381     0.001641     1.535076
	    5 R(3,6)          =      1.084954     0.001163     0.044034     1.128989
	    6 R(3,7)          =      1.082514     0.025381     0.054732     1.137246
	    7 R(4,17)         =      1.079136    -0.000631     0.038045     1.117181
	    8 R(4,18)         =      1.084192    -0.002340     0.044201     1.128393
	    9 R(4,19)         =      1.085343     0.000776     0.052118     1.137461
	   10 R(5,8)          =      1.525854     0.007976     0.049167     1.575021
	   11 R(5,9)          =      1.087057    -0.021479     0.046091     1.133148
	   12 R(5,10)         =      1.084603    -0.008069     0.043016     1.127620
	   13 R(8,11)         =      1.524848    -0.001263     0.007322     1.532170
	   14 R(8,12)         =      1.086519     0.003303     0.044894     1.131413
	   15 R(8,13)         =      1.086066     0.006374     0.051358     1.137425
	   16 R(11,14)        =      1.084912    -0.001155     0.049742     1.134654
	   17 R(11,15)        =      1.084606     0.000326     0.042889     1.127494
	   18 R(11,16)        =      1.083698     0.001972     0.035134     1.118833
	   19 B(1,2,3)        =    121.057215     0.000504     3.251446   124.308661
	   20 B(1,2,4)        =    121.619217    -0.000193    -1.044313   120.574904
	   21 B(2,3,5)        =    111.095605     0.000913     1.979171   113.074776
	   22 B(2,3,6)        =    110.255152    -0.000521    -1.248816   109.006336
	   23 B(2,3,7)        =    107.614963    -0.000212     0.607803   108.222766
	   24 B(2,4,17)       =    110.150887    -0.000035    -1.859960   108.290927
	   25 B(2,4,18)       =    110.739118    -0.000026    -1.144852   109.594266
	   26 B(2,4,19)       =    109.152552     0.000082     0.961914   110.114465
	   27 B(3,2,4)        =    117.319433    -0.000311    -2.583565   114.735868
	   28 B(3,5,8)        =    112.710543    -0.000056    -1.804042   110.906501
	   29 B(3,5,9)        =    109.780467    -0.000091    -0.159200   109.621268
	   30 B(3,5,10)       =    108.666137     0.000080    -0.381353   108.284784
	   31 B(5,3,6)        =    109.810391    -0.000022    -0.457278   109.353113
	   32 B(5,3,7)        =    109.636535    -0.000115     1.330494   110.967029
	   33 B(5,8,11)       =    112.896787    -0.000025    -1.787985   111.108802
	   34 B(5,8,12)       =    109.374398     0.000023     1.684985   111.059383
	   35 B(5,8,13)       =    109.148937     0.000062     0.920648   110.069586
	   36 B(6,3,7)        =    108.360386    -0.000068    -2.407694   105.952692
	   37 B(8,5,9)        =    109.185778     0.000123     1.066642   110.252419
	   38 B(8,5,10)       =    109.698110    -0.000010     1.694625   111.392735
	   39 B(8,11,14)      =    111.182922    -0.000019     0.418870   111.601792
	   40 B(8,11,15)      =    111.118398    -0.000007    -1.053984   110.064414
	   41 B(8,11,16)      =    111.136042     0.000024    -1.551662   109.584380
	   42 B(9,5,10)       =    106.615538    -0.000048    -0.363292   106.252246
	   43 B(11,8,12)      =    109.424409    -0.000011    -1.154546   108.269862
	   44 B(11,8,13)      =    109.430731    -0.000031     0.418564   109.849295
	   45 B(12,8,13)      =    106.354041    -0.000016     0.002233   106.356274
	   46 B(14,11,15)     =    107.707309     0.000002     0.207732   107.915041
	   47 B(14,11,16)     =    107.746972     0.000003     0.500049   108.247021
	   48 B(15,11,16)     =    107.783675    -0.000003     1.591645   109.375320
	   49 B(17,4,18)      =    110.076256     0.000016     1.539164   111.615419
	   50 B(17,4,19)      =    109.481266    -0.000030     0.270991   109.752257
	   51 B(18,4,19)      =    107.180955    -0.000005     0.293127   107.474082
	   52 D(1,2,3,5)      =     -0.728073     0.000014     7.800620     7.072547
	   53 D(1,2,3,6)      =    121.247569     0.000067     7.676483   128.924052
	   54 D(1,2,3,7)      =   -120.754470    -0.000047     4.477846  -116.276624
	   55 D(1,2,4,17)     =     -8.098229    -0.000007    -2.670509   -10.768738
	   56 D(1,2,4,18)     =   -130.099285    -0.000002    -2.640412  -132.739696
	   57 D(1,2,4,19)     =    112.133985    -0.000008    -2.895233   109.238752
	   58 D(2,3,5,8)      =   -179.256737    -0.000019    -1.367683  -180.624420
	   59 D(2,3,5,9)      =     58.797976    -0.000031    -1.399279    57.398697
	   60 D(2,3,5,10)     =    -57.449129    -0.000017    -0.665184   -58.114313
	   61 D(3,2,4,17)     =    171.169315     0.000009     4.845392   176.014707
	   62 D(3,2,4,18)     =     49.168259     0.000014     4.875490    54.043749
	   63 D(3,2,4,19)     =    -68.598472     0.000007     4.620669   -63.977803
	   64 D(3,5,8,11)     =    179.481382     0.000010     0.698281   180.179663
	   65 D(3,5,8,12)     =    -58.432089     0.000006    -0.808243   -59.240332
	   66 D(3,5,8,13)     =     57.548314     0.000013     0.724448    58.272762
	   67 *D(4,2,3,5)     =    180.000000     0.000000     0.000000   180.000000
	   68 D(4,2,3,6)      =    -58.024337     0.000053    -0.123526   -58.147863
	   69 D(4,2,3,7)      =     59.973624    -0.000061    -3.322164    56.651460
	   70 D(5,8,11,14)    =     60.213906    -0.000005    -0.162882    60.051023
	   71 D(5,8,11,15)    =    -59.743717    -0.000001     0.003331   -59.740385
	   72 D(5,8,11,16)    =   -179.766491    -0.000003    -0.293516  -180.060008
	   73 D(6,3,5,8)      =     58.509152    -0.000004    -0.790182    57.718970
	   74 D(6,3,5,9)      =    -63.436135    -0.000017    -0.821778   -64.257913
	   75 D(6,3,5,10)     =   -179.683240    -0.000003    -0.087682  -179.770923
	   76 D(7,3,5,8)      =    -60.438514     0.000034     1.634618   -58.803896
	   77 D(7,3,5,9)      =    177.616199     0.000022     1.603022   179.219221
	   78 D(7,3,5,10)     =     61.369094     0.000036     2.337117    63.706211
	   79 D(9,5,8,11)     =    -58.238101    -0.000005     0.025302   -58.212799
	   80 D(9,5,8,12)     =     63.848429    -0.000009    -1.481223    62.367205
	   81 D(9,5,8,13)     =    179.828831    -0.000002     0.051468   179.880299
	   82 D(10,5,8,11)    =     58.259295    -0.000003     1.233314    59.492608
	   83 D(10,5,8,12)    =   -179.654176    -0.000007    -0.273211  -179.927387
	   84 D(10,5,8,13)    =    -63.673773    -0.000001     1.259480   -62.414293
	   85 D(12,8,11,14)   =    -61.844520    -0.000005    -0.317984   -62.162504
	   86 D(12,8,11,15)   =    178.197858    -0.000002    -0.151771   178.046087
	   87 D(12,8,11,16)   =     58.175083    -0.000004    -0.448618    57.726465
	   88 D(13,8,11,14)   =   -178.011763     0.000005     0.097863  -177.913900
	   89 D(13,8,11,15)   =     62.030615     0.000008     0.264077    62.294691
	   90 D(13,8,11,16)   =    -57.992160     0.000006    -0.032771   -58.024931
	 ---------------------------------------------------------------------------
	Successfully symmetrized geometry.

  ==> Convergence Check <==

  Measures of convergence in internal coordinates in au.
  Criteria marked as inactive (o), active & met (*), and active & unmet ( ).
  --------------------------------------------------------------------------------------------- ~
   Step     Total Energy     Delta E     MAX Force     RMS Force      MAX Disp      RMS Disp    ~
  --------------------------------------------------------------------------------------------- ~
    Convergence Criteria    1.00e-06 *    3.00e-04 *             o    1.20e-03 *             o  ~
  --------------------------------------------------------------------------------------------- ~
      1    -309.17784975   -3.09e+02      1.20e-02      2.06e-03 o    1.36e-01      4.94e-02 o  ~
  ---------------------------------------------------------------------------------------------

	Writing optimization data to binary file.
	Structure for next step:
	Cartesian Geometry (in Angstrom)
	    O    -2.2203313466  -0.2823915848  -0.4018027213
	    C    -1.4958538996   0.7264005511  -0.4482823406
	    C     0.0039921578   0.7580793789   0.0035413561
	    C    -2.0805618015   2.0814289037  -0.8055020391
	    C     0.5558641232  -0.6305268839   0.3552077092
	    H     0.6272439005   1.2102805385  -0.8221019475
	    H     0.0941606572   1.4676837260   0.8876562919
	    C     2.0681203954  -0.5416490671   0.7863374071
	    H     0.4418328454  -1.3220003473  -0.5352332842
	    H    -0.0811901948  -1.0666674356   1.1770768927
	    C     2.6250113002  -1.9259976786   1.1341820110
	    H     2.7017643746  -0.1022226593  -0.0416086558
	    H     2.1792941351   0.1547576188   1.6787459430
	    H     2.5635753052  -2.6350820344   0.2505167536
	    H     2.0361406269  -2.3777383443   1.9829489461
	    H     3.6986214421  -1.8335497257   1.4351819630
	    H    -3.1218970107   1.9264466258  -1.1792593811
	    H    -1.4307857720   2.5814828642  -1.5807485139
	    H    -2.0974143328   2.7542339899   0.1114853646
			--------------------------
			 OPTKING Finished Execution 
			--------------------------

    Structure for next step:
    Molecular point group: c1
    Full point group: C1

    Geometry (in Angstrom), charge = 0, multiplicity = 1:

    O           -2.143157508489    -0.300970548066    -0.494420442588
    C           -1.418680061493     0.707821587814    -0.540900061894
    C            0.081165995948     0.739500415688    -0.089076365135
    C           -2.003387963384     2.062849940480    -0.898119760403
    C            0.633037961319    -0.649105847204     0.262589987956
    H            0.704417738626     1.191701575292    -0.914719668731
    H            0.171334495347     1.449104762795     0.795038570648
    C            2.145294233536    -0.560228030319     0.693719685807
    H            0.519006683547    -1.340579310532    -0.627851005422
    H           -0.004016356636    -1.085246398871     1.084459171411
    C            2.702185138297    -1.944576641874     1.041564289702
    H            2.778938212744    -0.120801622519    -0.134226377072
    H            2.256467973248     0.136178655533     1.586128221697
    H            2.640749143325    -2.653660997692     0.157899032363
    H            2.113314465021    -2.396317307550     1.890331224814
    H            3.775795280289    -1.852128688978     1.342564241735
    H           -3.044723172603     1.907867662515    -1.271877102359
    H           -1.353611933864     2.562903900952    -1.673366235152
    H           -2.020240494648     2.735655026663     0.018867643382

gradient() will perform analytic gradient computation.

*** tstart() called on cx1-27-3-4
*** at Sat Sep 10 20:10:22 2016


         ---------------------------------------------------------
                                   SCF
            by Justin Turney, Rob Parrish, and Andy Simmonett
                              RHF Reference
                        4 Threads,   2000 MiB Core
         ---------------------------------------------------------

  ==> Geometry <==

    Molecular point group: c1
    Full point group: C1

    Geometry (in Angstrom), charge = 0, multiplicity = 1:

       Center              X                  Y                   Z               Mass       
    ------------   -----------------  -----------------  -----------------  -----------------
           O         -2.143157508489    -0.300970548066    -0.494420442588    15.994914619560
           C         -1.418680061493     0.707821587814    -0.540900061894    12.000000000000
           C          0.081165995948     0.739500415688    -0.089076365135    12.000000000000
           C         -2.003387963384     2.062849940480    -0.898119760403    12.000000000000
           C          0.633037961319    -0.649105847204     0.262589987956    12.000000000000
           H          0.704417738626     1.191701575292    -0.914719668731     1.007825032070
           H          0.171334495347     1.449104762795     0.795038570648     1.007825032070
           C          2.145294233536    -0.560228030319     0.693719685807    12.000000000000
           H          0.519006683547    -1.340579310532    -0.627851005422     1.007825032070
           H         -0.004016356636    -1.085246398871     1.084459171411     1.007825032070
           C          2.702185138297    -1.944576641874     1.041564289702    12.000000000000
           H          2.778938212744    -0.120801622519    -0.134226377072     1.007825032070
           H          2.256467973248     0.136178655533     1.586128221697     1.007825032070
           H          2.640749143325    -2.653660997692     0.157899032363     1.007825032070
           H          2.113314465021    -2.396317307550     1.890331224814     1.007825032070
           H          3.775795280289    -1.852128688978     1.342564241735     1.007825032070
           H         -3.044723172603     1.907867662515    -1.271877102359     1.007825032070
           H         -1.353611933864     2.562903900952    -1.673366235152     1.007825032070
           H         -2.020240494648     2.735655026663     0.018867643382     1.007825032070

  Running in c1 symmetry.

  Rotational constants: A =      0.23717  B =      0.03384  C =      0.03052 [cm^-1]
  Rotational constants: A =   7110.14267  B =   1014.61955  C =    914.83778 [MHz]
  Nuclear repulsion =  294.483422125617210

  Charge       = 0
  Multiplicity = 1
  Electrons    = 56
  Nalpha       = 28
  Nbeta        = 28

  ==> Algorithm <==

  SCF Algorithm Type is DF.
  DIIS enabled.
  MOM disabled.
  Fractional occupation disabled.
  Guess Type is READ.
  Energy threshold   = 1.00e-08
  Density threshold  = 1.00e-08
  Integral threshold = 0.00e+00

  ==> Primary Basis <==

  Basis Set: CC-PVTZ
    Number of shells: 142
    Number of basis function: 378
    Number of Cartesian functions: 425
    Spherical Harmonics?: true
    Max angular momentum: 3

  ==> Pre-Iterations <==

   -------------------------------------------------------
    Irrep   Nso     Nmo     Nalpha   Nbeta   Ndocc  Nsocc
   -------------------------------------------------------
     A        378     378       0       0       0       0
   -------------------------------------------------------
    Total     378     378      28      28      28       0
   -------------------------------------------------------

  ==> Integral Setup <==

  ==> DFJK: Density-Fitted J/K Matrices <==

    J tasked:                  Yes
    K tasked:                  Yes
    wK tasked:                  No
    OpenMP threads:              4
    Integrals threads:           4
    Memory (MB):              1430
    Algorithm:                Core
    Integral Cache:           NONE
    Schwarz Cutoff:          1E-12
    Fitting Condition:       1E-12

   => Auxiliary Basis Set <=

  Basis Set: 
    Number of shells: 295
    Number of basis function: 913
    Number of Cartesian functions: 1092
    Spherical Harmonics?: true
    Max angular momentum: 4

  Minimum eigenvalue in the overlap matrix is 3.1366331005E-04.
  Using Symmetric Orthogonalization.
  SCF Guess: Reading in previously saved MOs, projecting if necessary.

  Using orbitals from previous SCF, no projection.
  Recomputing DOCC and SOCC from number of alpha and beta electrons from previous calculation.
              A 
    DOCC [    28 ]

  ==> Iterations <==

                           Total Energy        Delta E     RMS |[F,P]|

   @DF-RHF iter   0:  -308.24921995931453   -3.08249e+02   2.35668e-03 
   @DF-RHF iter   1:  -309.10381943394049   -8.54599e-01   6.92590e-04 
   @DF-RHF iter   2:  -309.14494544136932   -4.11260e-02   3.11984e-04 DIIS
   @DF-RHF iter   3:  -309.15173127056977   -6.78583e-03   7.96561e-05 DIIS
   @DF-RHF iter   4:  -309.15289487794570   -1.16361e-03   3.72075e-05 DIIS
   @DF-RHF iter   5:  -309.15304401288512   -1.49135e-04   1.51933e-05 DIIS
   @DF-RHF iter   6:  -309.15309573464077   -5.17218e-05   5.45335e-06 DIIS
   @DF-RHF iter   7:  -309.15310425685055   -8.52221e-06   1.94172e-06 DIIS
   @DF-RHF iter   8:  -309.15310520562781   -9.48777e-07   7.09883e-07 DIIS
   @DF-RHF iter   9:  -309.15310538710270   -1.81475e-07   3.44488e-07 DIIS
   @DF-RHF iter  10:  -309.15310544162134   -5.45186e-08   1.53948e-07 DIIS
   @DF-RHF iter  11:  -309.15310545255107   -1.09297e-08   4.89483e-08 DIIS
   @DF-RHF iter  12:  -309.15310545340066   -8.49582e-10   1.06346e-08 DIIS
   @DF-RHF iter  13:  -309.15310545342987   -2.92175e-11   2.27190e-09 DIIS

  ==> Post-Iterations <==

    Orbital Energies (a.u.)
    -----------------------

    Doubly Occupied:                                                      

       1A    -20.545803     2A    -11.338801     3A    -11.252865  
       4A    -11.247035     5A    -11.237860     6A    -11.235355  
       7A    -11.226312     8A     -1.364760     9A     -1.073166  
      10A     -1.020357    11A     -0.973684    12A     -0.866635  
      13A     -0.787523    14A     -0.727980    15A     -0.642013  
      16A     -0.637736    17A     -0.615046    18A     -0.597881  
      19A     -0.574742    20A     -0.559590    21A     -0.545720  
      22A     -0.523031    23A     -0.496900    24A     -0.478407  
      25A     -0.476490    26A     -0.467501    27A     -0.463261  
      28A     -0.405657  

    Virtual:                                                              

      29A      0.123825    30A      0.136275    31A      0.143589  
      32A      0.170062    33A      0.176086    34A      0.183071  
      35A      0.206884    36A      0.210314    37A      0.226564  
      38A      0.228955    39A      0.234265    40A      0.257667  
      41A      0.267978    42A      0.290681    43A      0.307048  
      44A      0.325221    45A      0.342497    46A      0.364402  
      47A      0.376690    48A      0.386915    49A      0.399928  
      50A      0.404825    51A      0.442935    52A      0.452805  
      53A      0.461791    54A      0.494217    55A      0.498845  
      56A      0.512891    57A      0.542829    58A      0.548993  
      59A      0.560265    60A      0.567118    61A      0.590064  
      62A      0.603791    63A      0.604503    64A      0.616373  
      65A      0.622019    66A      0.629226    67A      0.635743  
      68A      0.642084    69A      0.645780    70A      0.652617  
      71A      0.660309    72A      0.664705    73A      0.684458  
      74A      0.686499    75A      0.695198    76A      0.726925  
      77A      0.735702    78A      0.755735    79A      0.759231  
      80A      0.785250    81A      0.836713    82A      0.845576  
      83A      0.859390    84A      0.873676    85A      0.909563  
      86A      0.914206    87A      0.930628    88A      0.939991  
      89A      0.956209    90A      0.976599    91A      0.994554  
      92A      0.998171    93A      1.029755    94A      1.036327  
      95A      1.064223    96A      1.091543    97A      1.115446  
      98A      1.123523    99A      1.137221   100A      1.149481  
     101A      1.169295   102A      1.179820   103A      1.195268  
     104A      1.217453   105A      1.233287   106A      1.242820  
     107A      1.262444   108A      1.268052   109A      1.281555  
     110A      1.292011   111A      1.304378   112A      1.314519  
     113A      1.319128   114A      1.331623   115A      1.348672  
     116A      1.351272   117A      1.362028   118A      1.378366  
     119A      1.398079   120A      1.411907   121A      1.433611  
     122A      1.444940   123A      1.457752   124A      1.462797  
     125A      1.472984   126A      1.482358   127A      1.504444  
     128A      1.513005   129A      1.518422   130A      1.534733  
     131A      1.537850   132A      1.552314   133A      1.576511  
     134A      1.582880   135A      1.586583   136A      1.598090  
     137A      1.620487   138A      1.631768   139A      1.646747  
     140A      1.672746   141A      1.700136   142A      1.703864  
     143A      1.723342   144A      1.744417   145A      1.753649  
     146A      1.773156   147A      1.789864   148A      1.798798  
     149A      1.814633   150A      1.875528   151A      1.908245  
     152A      1.927750   153A      2.038442   154A      2.070884  
     155A      2.142446   156A      2.249140   157A      2.411370  
     158A      2.444524   159A      2.475988   160A      2.501856  
     161A      2.574417   162A      2.596483   163A      2.602020  
     164A      2.636148   165A      2.670015   166A      2.671714  
     167A      2.691615   168A      2.708729   169A      2.738296  
     170A      2.781066   171A      2.786560   172A      2.793432  
     173A      2.807283   174A      2.827852   175A      2.842931  
     176A      2.848764   177A      2.869561   178A      2.887005  
     179A      2.895941   180A      2.924340   181A      2.930035  
     182A      2.942898   183A      2.959941   184A      2.977751  
     185A      3.004664   186A      3.010508   187A      3.028663  
     188A      3.072678   189A      3.077841   190A      3.092058  
     191A      3.096920   192A      3.105474   193A      3.115077  
     194A      3.143216   195A      3.165424   196A      3.177101  
     197A      3.187278   198A      3.207313   199A      3.226599  
     200A      3.236197   201A      3.263514   202A      3.299311  
     203A      3.303595   204A      3.305469   205A      3.316840  
     206A      3.326993   207A      3.340153   208A      3.358936  
     209A      3.363533   210A      3.369782   211A      3.377533  
     212A      3.384180   213A      3.394645   214A      3.406951  
     215A      3.416318   216A      3.433881   217A      3.443406  
     218A      3.451267   219A      3.474377   220A      3.477791  
     221A      3.487618   222A      3.497410   223A      3.512112  
     224A      3.534960   225A      3.542913   226A      3.550747  
     227A      3.566436   228A      3.583778   229A      3.588425  
     230A      3.618743   231A      3.637401   232A      3.669432  
     233A      3.674521   234A      3.680272   235A      3.703224  
     236A      3.738728   237A      3.741278   238A      3.763654  
     239A      3.770469   240A      3.783151   241A      3.787121  
     242A      3.802311   243A      3.816939   244A      3.819510  
     245A      3.828188   246A      3.849189   247A      3.883121  
     248A      3.911954   249A      3.920434   250A      3.940829  
     251A      3.966364   252A      3.975692   253A      4.020201  
     254A      4.024200   255A      4.033278   256A      4.039146  
     257A      4.055110   258A      4.076943   259A      4.092710  
     260A      4.107146   261A      4.127339   262A      4.132764  
     263A      4.139696   264A      4.142161   265A      4.162135  
     266A      4.166910   267A      4.174380   268A      4.179075  
     269A      4.221758   270A      4.229560   271A      4.241326  
     272A      4.256383   273A      4.269270   274A      4.282789  
     275A      4.303030   276A      4.313055   277A      4.328020  
     278A      4.333075   279A      4.341193   280A      4.346410  
     281A      4.351173   282A      4.360294   283A      4.377393  
     284A      4.388941   285A      4.408279   286A      4.449963  
     287A      4.466839   288A      4.475418   289A      4.483839  
     290A      4.503278   291A      4.509130   292A      4.532089  
     293A      4.550531   294A      4.569908   295A      4.579388  
     296A      4.602976   297A      4.611298   298A      4.628851  
     299A      4.647003   300A      4.674022   301A      4.703915  
     302A      4.709627   303A      4.735824   304A      4.738918  
     305A      4.795996   306A      4.836005   307A      4.893579  
     308A      4.911290   309A      4.919965   310A      4.966372  
     311A      4.980973   312A      5.023661   313A      5.027109  
     314A      5.044404   315A      5.076413   316A      5.078040  
     317A      5.100170   318A      5.126963   319A      5.138806  
     320A      5.150777   321A      5.197894   322A      5.206901  
     323A      5.222640   324A      5.239074   325A      5.241158  
     326A      5.293730   327A      5.317788   328A      5.339312  
     329A      5.352874   330A      5.397092   331A      5.404474  
     332A      5.425750   333A      5.442441   334A      5.492494  
     335A      5.503126   336A      5.506746   337A      5.515760  
     338A      5.540201   339A      5.566596   340A      5.581530  
     341A      5.609094   342A      5.619394   343A      5.625901  
     344A      5.657835   345A      5.677472   346A      5.692486  
     347A      5.707573   348A      5.732549   349A      5.763042  
     350A      5.771982   351A      5.787330   352A      5.873046  
     353A      5.917345   354A      5.966892   355A      6.022883  
     356A      6.100669   357A      6.167671   358A      6.180937  
     359A      6.219277   360A      6.254420   361A      6.272764  
     362A      6.317277   363A      6.411134   364A      6.657436  
     365A      6.697544   366A      6.919701   367A      6.987128  
     368A      7.021465   369A      7.369206   370A      7.546977  
     371A      7.556262   372A      9.219191   373A     12.206327  
     374A     12.484909   375A     13.078589   376A     13.194385  
     377A     13.522675   378A     13.539051  

    Final Occupation by Irrep:
              A 
    DOCC [    28 ]

  Energy converged.

  @DF-RHF Final Energy:  -309.15310545342987

   => Energetics <=

    Nuclear Repulsion Energy =            294.4834221256172100
    One-Electron Energy =               -1002.5088315986539556
    Two-Electron Energy =                 398.8723040196066449
    DFT Exchange-Correlation Energy =       0.0000000000000000
    Empirical Dispersion Energy =           0.0000000000000000
    PCM Polarization Energy =               0.0000000000000000
    EFP Energy =                            0.0000000000000000
    Total Energy =                       -309.1531054534300438


  Saving occupied orbitals to File 180.

*** tstop() called on cx1-27-3-4 at Sat Sep 10 20:10:32 2016
Module time:
	user time   =      34.96 seconds =       0.58 minutes
	system time =       0.78 seconds =       0.01 minutes
	total time  =         10 seconds =       0.17 minutes
Total time:
	user time   =     112.17 seconds =       1.87 minutes
	system time =       2.46 seconds =       0.04 minutes
	total time  =         32 seconds =       0.53 minutes


Properties will be evaluated at   0.000000,   0.000000,   0.000000 Bohr

Properties computed using the SCF density matrix

  Nuclear Dipole Moment: (a.u.)
     X:     7.9933      Y:     0.4998      Z:     2.1100

  Electronic Dipole Moment: (a.u.)
     X:    -7.2160      Y:     0.5103      Z:    -2.0955

  Dipole Moment: (a.u.)
     X:     0.7773      Y:     1.0101      Z:     0.0144     Total:     1.2746

  Dipole Moment: (Debye)
     X:     1.9756      Y:     2.5675      Z:     0.0367     Total:     3.2398


*** tstart() called on cx1-27-3-4
*** at Sat Sep 10 20:10:32 2016


         ------------------------------------------------------------
                                   SCF GRAD                          
                          Rob Parrish, Justin Turney,                
                       Andy Simmonett, and Alex Sokolov              
         ------------------------------------------------------------

  ==> Geometry <==

    Molecular point group: c1
    Full point group: C1

    Geometry (in Angstrom), charge = 0, multiplicity = 1:

       Center              X                  Y                   Z               Mass       
    ------------   -----------------  -----------------  -----------------  -----------------
           O         -2.143157508489    -0.300970548066    -0.494420442588    15.994914619560
           C         -1.418680061493     0.707821587814    -0.540900061894    12.000000000000
           C          0.081165995948     0.739500415688    -0.089076365135    12.000000000000
           C         -2.003387963384     2.062849940480    -0.898119760403    12.000000000000
           C          0.633037961319    -0.649105847204     0.262589987956    12.000000000000
           H          0.704417738626     1.191701575292    -0.914719668731     1.007825032070
           H          0.171334495347     1.449104762795     0.795038570648     1.007825032070
           C          2.145294233536    -0.560228030319     0.693719685807    12.000000000000
           H          0.519006683547    -1.340579310532    -0.627851005422     1.007825032070
           H         -0.004016356636    -1.085246398871     1.084459171411     1.007825032070
           C          2.702185138297    -1.944576641874     1.041564289702    12.000000000000
           H          2.778938212744    -0.120801622519    -0.134226377072     1.007825032070
           H          2.256467973248     0.136178655533     1.586128221697     1.007825032070
           H          2.640749143325    -2.653660997692     0.157899032363     1.007825032070
           H          2.113314465021    -2.396317307550     1.890331224814     1.007825032070
           H          3.775795280289    -1.852128688978     1.342564241735     1.007825032070
           H         -3.044723172603     1.907867662515    -1.271877102359     1.007825032070
           H         -1.353611933864     2.562903900952    -1.673366235152     1.007825032070
           H         -2.020240494648     2.735655026663     0.018867643382     1.007825032070

  Nuclear repulsion =  294.483422125617210

  ==> Basis Set <==

  Basis Set: CC-PVTZ
    Number of shells: 142
    Number of basis function: 378
    Number of Cartesian functions: 425
    Spherical Harmonics?: true
    Max angular momentum: 3

  ==> DFJKGrad: Density-Fitted SCF Gradients <==

    Gradient:                    1
    J tasked:                  Yes
    K tasked:                  Yes
    wK tasked:                  No
    OpenMP threads:              4
    Integrals threads:           4
    Memory (MB):              1430
    Schwarz Cutoff:          0E+00
    Fitting Condition:       1E-12

   => Auxiliary Basis Set <=

  Basis Set: 
    Number of shells: 295
    Number of basis function: 913
    Number of Cartesian functions: 1092
    Spherical Harmonics?: true
    Max angular momentum: 4


  -Total Gradient:
     Atom            X                  Y                   Z
    ------   -----------------  -----------------  -----------------
       1       -0.061920716499    -0.071468247008     0.006733192574
       2        0.034376525069     0.047884683049    -0.024133735650
       3        0.004739852461    -0.004415915958     0.008019409403
       4        0.005161858582    -0.013399953212     0.005509661896
       5       -0.003117005872     0.007586927940    -0.001766797313
       6        0.017616124754     0.008087569207    -0.018367693558
       7        0.005386786072     0.018818694894     0.024364057085
       8        0.004771821254    -0.009900600736     0.002326048724
       9       -0.004098726579    -0.018600815092    -0.023896696273
      10       -0.019144087800    -0.008520343349     0.018827082281
      11       -0.004858726224     0.015713828277    -0.003689443446
      12        0.019171539639     0.008341356385    -0.018609330852
      13        0.004199069728     0.018933171417     0.024047227844
      14       -0.001667466869    -0.019521984047    -0.023928819508
      15       -0.016669594681    -0.008717440044     0.019766766588
      16        0.021634235026     0.006159807244     0.004414953437
      17       -0.023237726593    -0.007488407722    -0.006877838674
      18        0.018686870204     0.010328790893    -0.018230080364
      19       -0.001030631666     0.020178877864     0.025492035807


*** tstop() called on cx1-27-3-4 at Sat Sep 10 20:10:42 2016
Module time:
	user time   =      37.18 seconds =       0.62 minutes
	system time =       0.72 seconds =       0.01 minutes
	total time  =         10 seconds =       0.17 minutes
Total time:
	user time   =     149.44 seconds =       2.49 minutes
	system time =       3.19 seconds =       0.05 minutes
	total time  =         42 seconds =       0.70 minutes

			-----------------------------------------
			 OPTKING 2.0: for geometry optimizations 
			  - R.A. King,  Bethel University        
			-----------------------------------------

	Previous internal coordinate definitions found.
	---Fragment 1 Geometry and Gradient---
	 O          -4.0499807507       -0.5687519099       -0.9343192310
	 C          -2.6809167864        1.3375889519       -1.0221529822
	 C           0.1533815036        1.3974532608       -0.1683299350
	 C          -3.7858545887        3.8982214407       -1.6972003817
	 C           1.1962683786       -1.2266322825        0.4962231625
	 H           1.3311566091        2.2519896094       -1.7285696623
	 H           0.3237752733        2.7384111395        1.5024051636
	 C           4.0540185758       -1.0586775493        1.3109402192
	 H           0.9807804930       -2.5333277563       -1.1864664525
	 H          -0.0075898141       -2.0508184806        2.0493308363
	 C           5.1063898717       -3.6747172975        1.9682712573
	 H           5.2514321623       -0.2282819830       -0.2536510925
	 H           4.2641064971        0.2573403641        2.9973479506
	 H           4.9902926665       -5.0146925352        0.2983859278
	 H           3.9935855716       -4.5283834388        3.5722083153
	 H           7.1352190136       -3.5000159850        2.5370787327
	 H          -5.7536929467        3.6053473799       -2.4034993981
	 H          -2.5579558452        4.8431864777       -3.1622039045
	 H          -3.8177012575        5.1696387944        0.0356546788
	            -0.0619207165       -0.0714682470        0.0067331926
	             0.0343765251        0.0478846830       -0.0241337356
	             0.0047398525       -0.0044159160        0.0080194094
	             0.0051618586       -0.0133999532        0.0055096619
	            -0.0031170059        0.0075869279       -0.0017667973
	             0.0176161248        0.0080875692       -0.0183676936
	             0.0053867861        0.0188186949        0.0243640571
	             0.0047718213       -0.0099006007        0.0023260487
	            -0.0040987266       -0.0186008151       -0.0238966963
	            -0.0191440878       -0.0085203433        0.0188270823
	            -0.0048587262        0.0157138283       -0.0036894434
	             0.0191715396        0.0083413564       -0.0186093309
	             0.0041990697        0.0189331714        0.0240472278
	            -0.0016674669       -0.0195219840       -0.0239288195
	            -0.0166695947       -0.0087174400        0.0197667666
	             0.0216342350        0.0061598072        0.0044149534
	            -0.0232377266       -0.0074884077       -0.0068778387
	             0.0186868702        0.0103287909       -0.0182300804
	            -0.0010306317        0.0201788779        0.0254920358

	---Fragment 1 Intrafragment Coordinates---
	 - Coordinate -           - BOHR/RAD -       - ANG/DEG -
	 R(1,2)           =         2.348656	       1.242855
	 R(2,3)           =         2.960717	       1.566744
	 R(2,4)           =         2.869393	       1.518417
	 R(3,5)           =         2.900874	       1.535076
	 R(3,6)           =         2.133479	       1.128989
	 R(3,7)           =         2.149083	       1.137246
	 R(4,17)          =         2.111166	       1.117181
	 R(4,18)          =         2.132353	       1.128393
	 R(4,19)          =         2.149489	       1.137461
	 R(5,8)           =         2.976358	       1.575021
	 R(5,9)           =         2.141339	       1.133148
	 R(5,10)          =         2.130892	       1.127620
	 R(8,11)          =         2.895381	       1.532170
	 R(8,12)          =         2.138060	       1.131413
	 R(8,13)          =         2.149421	       1.137425
	 R(11,14)         =         2.144185	       1.134654
	 R(11,15)         =         2.130656	       1.127494
	 R(11,16)         =         2.114287	       1.118833
	 B(1,2,3)         =         2.169595	     124.308661
	 B(1,2,4)         =         2.104429	     120.574904
	 B(2,3,5)         =         1.973527	     113.074776
	 B(2,3,6)         =         1.902519	     109.006336
	 B(2,3,7)         =         1.888844	     108.222766
	 B(2,4,17)        =         1.890033	     108.290927
	 B(2,4,18)        =         1.912781	     109.594266
	 B(2,4,19)        =         1.921860	     110.114465
	 B(3,2,4)         =         2.002519	     114.735868
	 B(3,5,8)         =         1.935684	     110.906501
	 B(3,5,9)         =         1.913252	     109.621268
	 B(3,5,10)        =         1.889926	     108.284784
	 B(5,3,6)         =         1.908572	     109.353113
	 B(5,3,7)         =         1.936740	     110.967029
	 B(5,8,11)        =         1.939214	     111.108802
	 B(5,8,12)        =         1.938352	     111.059383
	 B(5,8,13)        =         1.921077	     110.069586
	 B(6,3,7)         =         1.849223	     105.952692
	 B(8,5,9)         =         1.924268	     110.252419
	 B(8,5,10)        =         1.944170	     111.392735
	 B(8,11,14)       =         1.947819	     111.601792
	 B(8,11,15)       =         1.920986	     110.064414
	 B(8,11,16)       =         1.912608	     109.584380
	 B(9,5,10)        =         1.854452	     106.252246
	 B(11,8,12)       =         1.889666	     108.269862
	 B(11,8,13)       =         1.917232	     109.849295
	 B(12,8,13)       =         1.856267	     106.356274
	 B(14,11,15)      =         1.883473	     107.915041
	 B(14,11,16)      =         1.889267	     108.247021
	 B(15,11,16)      =         1.908959	     109.375320
	 B(17,4,18)       =         1.948057	     111.615419
	 B(17,4,19)       =         1.915538	     109.752257
	 B(18,4,19)       =         1.875777	     107.474082
	 D(1,2,3,5)       =         0.123439	       7.072547
	 D(1,2,3,6)       =         2.250149	     128.924052
	 D(1,2,3,7)       =        -2.029410	    -116.276624
	 D(1,2,4,17)      =        -0.187950	     -10.768738
	 D(1,2,4,18)      =        -2.316745	    -132.739696
	 D(1,2,4,19)      =         1.906576	     109.238752
	 D(2,3,5,8)       =         3.130694	     179.375580
	 D(2,3,5,9)       =         1.001796	      57.398697
	 D(2,3,5,10)      =        -1.014286	     -58.114313
	 D(3,2,4,17)      =         3.072036	     176.014707
	 D(3,2,4,18)      =         0.943241	      54.043749
	 D(3,2,4,19)      =        -1.116623	     -63.977803
	 D(3,5,8,11)      =        -3.138457	    -179.820337
	 D(3,5,8,12)      =        -1.033939	     -59.240332
	 D(3,5,8,13)      =         1.017052	      58.272762
	*D(4,2,3,5)       =         3.141593	     180.000000
	 D(4,2,3,6)       =        -1.014872	     -58.147863
	 D(4,2,3,7)       =         0.988755	      56.651460
	 D(5,8,11,14)     =         1.048088	      60.051023
	 D(5,8,11,15)     =        -1.042666	     -59.740385
	 D(5,8,11,16)     =         3.140545	     179.939992
	 D(6,3,5,8)       =         1.007386	      57.718970
	 D(6,3,5,9)       =        -1.121512	     -64.257913
	 D(6,3,5,10)      =        -3.137595	    -179.770923
	 D(7,3,5,8)       =        -1.026322	     -58.803896
	 D(7,3,5,9)       =         3.127965	     179.219221
	 D(7,3,5,10)      =         1.111883	      63.706211
	 D(9,5,8,11)      =        -1.016005	     -58.212799
	 D(9,5,8,12)      =         1.088513	      62.367205
	 D(9,5,8,13)      =         3.139503	     179.880299
	 D(10,5,8,11)     =         1.038342	      59.492608
	 D(10,5,8,12)     =        -3.140325	    -179.927387
	 D(10,5,8,13)     =        -1.089335	     -62.414293
	 D(12,8,11,14)    =        -1.084940	     -62.162504
	 D(12,8,11,15)    =         3.107490	     178.046087
	 D(12,8,11,16)    =         1.007517	      57.726465
	 D(13,8,11,14)    =        -3.105183	    -177.913900
	 D(13,8,11,15)    =         1.087247	      62.294691
	 D(13,8,11,16)    =        -1.012726	     -58.024931

	Current energy   :      -309.1531054534

	Energy change for the previous step:
		Projected    :        -0.0012580605
		Actual       :         0.0247443001

	Performing BFGS update.
	Previous computed or guess Hessian on step 1.
	Steps to be used in Hessian update: 1
	Taking RFO optimization step.
	Going to follow RFO solution 1.
	Using RFO vector 1.
	Norm of target step-size    0.33097
	Projected energy change by RFO approximation:        -0.0398075154

	Back-transformation to cartesian coordinates...
	Successfully converged to displaced geometry.

	Back-transformation to cartesian coordinates to adjust frozen coordinates...
	Successfully converged to displaced geometry.

	--- Internal Coordinate Step in ANG or DEG, aJ/ANG or AJ/DEG ---
	 ---------------------------------------------------------------------------
	   Coordinate                Previous        Force       Change         New 
	   ----------                --------       ------       ------       ------
	    1 R(1,2)          =      1.242855    -0.777365    -0.053696     1.189159
	    2 R(2,3)          =      1.566744    -0.250214    -0.042580     1.524164
	    3 R(2,4)          =      1.518417    -0.060631    -0.007834     1.510583
	    4 R(3,5)          =      1.535076    -0.059461    -0.007289     1.527787
	    5 R(3,6)          =      1.128989    -0.217476    -0.039910     1.089078
	    6 R(3,7)          =      1.137246    -0.256310    -0.046013     1.091233
	    7 R(4,17)         =      1.117181    -0.205968    -0.035130     1.082051
	    8 R(4,18)         =      1.128393    -0.229553    -0.040816     1.087577
	    9 R(4,19)         =      1.137461    -0.267775    -0.047579     1.089882
	   10 R(5,8)          =      1.575021    -0.225142    -0.043157     1.531864
	   11 R(5,9)          =      1.133148    -0.251622    -0.045494     1.087653
	   12 R(5,10)         =      1.127620    -0.229310    -0.040660     1.086960
	   13 R(8,11)         =      1.532170    -0.036282    -0.006894     1.525275
	   14 R(8,12)         =      1.131413    -0.227344    -0.040545     1.090868
	   15 R(8,13)         =      1.137425    -0.254327    -0.045883     1.091542
	   16 R(11,14)        =      1.134654    -0.254790    -0.045647     1.089007
	   17 R(11,15)        =      1.127494    -0.223098    -0.039262     1.088233
	   18 R(11,16)        =      1.118833    -0.185013    -0.031984     1.086848
	   19 B(1,2,3)        =    124.308661    -0.001053    -1.887672   122.420989
	   20 B(1,2,4)        =    120.574904     0.000207     0.374151   120.949055
	   21 B(2,3,5)        =    113.074776     0.000438     1.411698   114.486474
	   22 B(2,3,6)        =    109.006336    -0.000320    -1.246995   107.759341
	   23 B(2,3,7)        =    108.222766    -0.000300    -0.567186   107.655580
	   24 B(2,4,17)       =    108.290927     0.000446     1.443630   109.734557
	   25 B(2,4,18)       =    109.594266     0.000323     0.952206   110.546472
	   26 B(2,4,19)       =    110.114465    -0.000286    -0.573321   109.541144
	   27 B(3,2,4)        =    114.735868     0.000877     1.552107   116.287974
	   28 B(3,5,8)        =    110.906501     0.000560     1.506514   112.413016
	   29 B(3,5,9)        =    109.621268    -0.000191    -0.559685   109.061582
	   30 B(3,5,10)       =    108.284784     0.000069     0.602027   108.886811
	   31 B(5,3,6)        =    109.353113     0.000189     0.725612   110.078725
	   32 B(5,3,7)        =    110.967029    -0.000083    -0.388461   110.578568
	   33 B(5,8,11)       =    111.108802     0.000607     1.533659   112.642461
	   34 B(5,8,12)       =    111.059383    -0.000425    -1.344321   109.715062
	   35 B(5,8,13)       =    110.069586    -0.000193    -0.376239   109.693347
	   36 B(6,3,7)        =    105.952692     0.000042    -0.072643   105.880049
	   37 B(8,5,9)        =    110.252419    -0.000169    -0.360888   109.891531
	   38 B(8,5,10)       =    111.392735    -0.000397    -1.314399   110.078336
	   39 B(8,11,14)      =    111.601792    -0.000162    -0.487543   111.114249
	   40 B(8,11,15)      =    110.064414     0.000285     0.909793   110.974207
	   41 B(8,11,16)      =    109.584380     0.000457     1.476805   111.061185
	   42 B(9,5,10)       =    106.252246     0.000109     0.063844   106.316090
	   43 B(11,8,12)      =    108.269862     0.000079     0.628187   108.898050
	   44 B(11,8,13)      =    109.849295    -0.000209    -0.573362   109.275933
	   45 B(12,8,13)      =    106.356274     0.000119     0.063910   106.420184
	   46 B(14,11,15)     =    107.915041    -0.000090    -0.263412   107.651629
	   47 B(14,11,16)     =    108.247021    -0.000153    -0.433551   107.813470
	   48 B(15,11,16)     =    109.375320    -0.000360    -1.298180   108.077140
	   49 B(17,4,18)      =    111.615419    -0.000346    -1.285546   110.329874
	   50 B(17,4,19)      =    109.752257    -0.000094    -0.375781   109.376476
	   51 B(18,4,19)      =    107.474082    -0.000054    -0.204616   107.269466
	   52 D(1,2,3,5)      =      7.072547    -0.000071    -0.411559     6.660988
	   53 D(1,2,3,6)      =    128.924052    -0.000001     0.555910   129.479961
	   54 D(1,2,3,7)      =   -116.276624    -0.000064    -0.448750  -116.725375
	   55 D(1,2,4,17)     =    -10.768738     0.000029     0.143827   -10.624912
	   56 D(1,2,4,18)     =   -132.739696     0.000017     0.201584  -132.538112
	   57 D(1,2,4,19)     =    109.238752     0.000027     0.225194   109.463946
	   58 D(2,3,5,8)      =    179.375580     0.000022     0.124280   179.499859
	   59 D(2,3,5,9)      =     57.398697     0.000016    -0.032966    57.365731
	   60 D(2,3,5,10)     =    -58.114313     0.000001    -0.137414   -58.251727
	   61 D(3,2,4,17)     =    176.014707    -0.000016    -0.083250   175.931457
	   62 D(3,2,4,18)     =     54.043749    -0.000028    -0.025493    54.018256
	   63 D(3,2,4,19)     =    -63.977803    -0.000018    -0.001882   -63.979685
	   64 D(3,5,8,11)     =   -179.820337    -0.000002    -0.002909  -179.823246
	   65 D(3,5,8,12)     =    -59.240332     0.000049     0.901261   -58.339071
	   66 D(3,5,8,13)     =     58.272762    -0.000005    -0.047887    58.224875
	   67 *D(4,2,3,5)     =    180.000000     0.000000     0.000000   180.000000
	   68 D(4,2,3,6)      =    -58.147863     0.000070     0.966182   -57.181681
	   69 D(4,2,3,7)      =     56.651460     0.000007    -0.038477    56.612983
	   70 D(5,8,11,14)    =     60.051023    -0.000011    -0.200388    59.850636
	   71 D(5,8,11,15)    =    -59.740385    -0.000005    -0.154463   -59.894848
	   72 D(5,8,11,16)    =    179.939992    -0.000010    -0.081785   179.858208
	   73 D(6,3,5,8)      =     57.718970     0.000017     0.225034    57.944004
	   74 D(6,3,5,9)      =    -64.257913     0.000011     0.067789   -64.190124
	   75 D(6,3,5,10)     =   -179.770923    -0.000004    -0.036659  -179.807582
	   76 D(7,3,5,8)      =    -58.803896    -0.000010     0.105287   -58.698609
	   77 D(7,3,5,9)      =    179.219221    -0.000016    -0.051958   179.167263
[...]
	 R(8,11)          =         2.881615	       1.524885
	 R(8,12)          =         2.054131	       1.086999
	 R(8,13)          =         2.054143	       1.087006
	 R(11,14)         =         2.049802	       1.084708
	 R(11,15)         =         2.049802	       1.084709
	 R(11,16)         =         2.048279	       1.083902
	 B(1,2,3)         =         2.135090	     122.331659
	 B(1,2,4)         =         2.119356	     121.430154
	 B(2,3,5)         =         1.997779	     114.464303
	 B(2,3,6)         =         1.876493	     107.515124
	 B(2,3,7)         =         1.876526	     107.517044
	 B(2,4,17)        =         1.917308	     109.853663
	 B(2,4,18)        =         1.922692	     110.162159
	 B(2,4,19)        =         1.922678	     110.161341
	 B(3,2,4)         =         2.028739	     116.238187
	 B(3,5,8)         =         1.966172	     112.653354
	 B(3,5,9)         =         1.905734	     109.190515
	 B(3,5,10)        =         1.905745	     109.191152
	 B(5,3,6)         =         1.933023	     110.754067
	 B(5,3,7)         =         1.933021	     110.753931
	 B(5,8,11)        =         1.969758	     112.858805
	 B(5,8,12)        =         1.910792	     109.480296
	 B(5,8,13)        =         1.910920	     109.487679
	 B(6,3,7)         =         1.838964	     105.364865
	 B(8,5,9)         =         1.916473	     109.805825
	 B(8,5,10)        =         1.916376	     109.800274
	 B(8,11,14)       =         1.939007	     111.096916
	 B(8,11,15)       =         1.939022	     111.097765
	 B(8,11,16)       =         1.941389	     111.233413
	 B(9,5,10)        =         1.849651	     105.977203
	 B(11,8,12)       =         1.907453	     109.288990
	 B(11,8,13)       =         1.907470	     109.290007
	 B(12,8,13)       =         1.853841	     106.217281
	 B(14,11,15)      =         1.878782	     107.646256
	 B(14,11,16)      =         1.881472	     107.800408
	 B(15,11,16)      =         1.881479	     107.800820
	 B(17,4,18)       =         1.914112	     109.670539
	 B(17,4,19)       =         1.914136	     109.671919
	 B(18,4,19)       =         1.872432	     107.282441
	 D(1,2,3,5)       =        -0.000111	      -0.006337
	 D(1,2,3,6)       =         2.155233	     123.485731
	 D(1,2,3,7)       =        -2.155476	    -123.499677
	 D(1,2,4,17)      =         0.000187	       0.010731
	 D(1,2,4,18)      =        -2.110248	    -120.908282
	 D(1,2,4,19)      =         2.110643	     120.930935
	 D(2,3,5,8)       =        -3.141279	    -179.982038
	 D(2,3,5,9)       =         1.007759	      57.740313
	 D(2,3,5,10)      =        -1.007247	     -57.711023
	 D(3,2,4,17)      =        -3.141505	    -179.994976
	 D(3,2,4,18)      =         1.031245	      59.086010
	 D(3,2,4,19)      =        -1.031049	     -59.074772
	 D(3,5,8,11)      =        -3.140957	    -179.963553
	 D(3,5,8,12)      =        -1.012295	     -58.000220
	 D(3,5,8,13)      =         1.013452	      58.066513
	*D(4,2,3,5)       =         3.141593	     180.000000
	 D(4,2,3,6)       =        -0.986259	     -56.508506
	 D(4,2,3,7)       =         0.986217	      56.506086
	 D(5,8,11,14)     =         1.044914	      59.869160
	 D(5,8,11,15)     =        -1.046153	     -59.940176
	 D(5,8,11,16)     =         3.140963	     179.963947
	 D(6,3,5,8)       =         1.017221	      58.282492
	 D(6,3,5,9)       =        -1.116926	     -63.995156
	 D(6,3,5,10)      =        -3.131932	    -179.446493
	 D(7,3,5,8)       =        -1.016552	     -58.244145
	 D(7,3,5,9)       =         3.132486	     179.478206
	 D(7,3,5,10)      =         1.117480	      64.026870
	 D(9,5,8,11)      =        -1.012870	     -58.033168
	 D(9,5,8,12)      =         1.115792	      63.930165
	 D(9,5,8,13)      =         3.141539	     179.996898
	 D(10,5,8,11)     =         1.014197	      58.109222
	 D(10,5,8,12)     =        -3.140326	    -179.927445
	 D(10,5,8,13)     =        -1.114580	     -63.860712
	 D(12,8,11,14)    =        -1.085627	     -62.201823
	 D(12,8,11,15)    =         3.106491	     177.988841
	 D(12,8,11,16)    =         1.010423	      57.892964
	 D(13,8,11,14)    =        -3.107553	    -178.049684
	 D(13,8,11,15)    =         1.084565	      62.140980
	 D(13,8,11,16)    =        -1.011504	     -57.954898

	Current energy   :      -309.1790673460

	Energy change for the previous step:
		Projected    :         0.0000000382
		Actual       :        -0.0000005904

	Performing BFGS update.
	Previous computed or guess Hessian on step 1.
	Steps to be used in Hessian update: 10 9
	Taking RFO optimization step.
	Going to follow RFO solution 1.
	Using RFO vector 1.
	Norm of target step-size    0.00520
	Projected energy change by RFO approximation:        -0.0000001035

	Back-transformation to cartesian coordinates...
	Could not converge backtransformation.
	Using first guess instead.

	Back-transformation to cartesian coordinates to adjust frozen coordinates...
	Successfully converged to displaced geometry.

	--- Internal Coordinate Step in ANG or DEG, aJ/ANG or AJ/DEG ---
	 ---------------------------------------------------------------------------
	   Coordinate                Previous        Force       Change         New 
	   ----------                --------       ------       ------       ------
	    1 R(1,2)          =      1.187370     0.000254     0.000030     1.187400
	    2 R(2,3)          =      1.515403    -0.000303    -0.000084     1.515319
	    3 R(2,4)          =      1.512078    -0.000139    -0.000037     1.512041
	    4 R(3,5)          =      1.521943     0.000073     0.000003     1.521947
	    5 R(3,6)          =      1.087684    -0.000033    -0.000011     1.087673
	    6 R(3,7)          =      1.087673     0.000030     0.000005     1.087677
	    7 R(4,17)         =      1.079072     0.000187     0.000030     1.079102
	    8 R(4,18)         =      1.084415     0.000192     0.000028     1.084443
	    9 R(4,19)         =      1.084414     0.000202     0.000027     1.084441
	   10 R(5,8)          =      1.526070     0.000092     0.000015     1.526085
	   11 R(5,9)          =      1.084204    -0.000091    -0.000022     1.084182
	   12 R(5,10)         =      1.084195    -0.000019    -0.000011     1.084184
	   13 R(8,11)         =      1.524885    -0.000042    -0.000007     1.524878
	   14 R(8,12)         =      1.086999    -0.000008    -0.000008     1.086991
	   15 R(8,13)         =      1.087006    -0.000076    -0.000019     1.086987
	   16 R(11,14)        =      1.084708    -0.000045    -0.000013     1.084695
	   17 R(11,15)        =      1.084709    -0.000039    -0.000012     1.084697
	   18 R(11,16)        =      1.083902    -0.000018    -0.000007     1.083896
	   19 B(1,2,3)        =    122.331659     0.000000     0.000805   122.332464
	   20 B(1,2,4)        =    121.430154    -0.000002    -0.010449   121.419705
	   21 B(2,3,5)        =    114.464303     0.000001     0.004772   114.469074
	   22 B(2,3,6)        =    107.515124    -0.000000     0.002360   107.517484
	   23 B(2,3,7)        =    107.517044    -0.000000    -0.000304   107.516740
	   24 B(2,4,17)       =    109.853663    -0.000002    -0.009701   109.843962
	   25 B(2,4,18)       =    110.162159    -0.000000     0.000574   110.162733
	   26 B(2,4,19)       =    110.161341     0.000000     0.001899   110.163240
	   27 B(3,2,4)        =    116.238187     0.000002     0.009644   116.247831
	   28 B(3,5,8)        =    112.653354    -0.000001    -0.004855   112.648499
	   29 B(3,5,9)        =    109.190515     0.000001     0.001865   109.192380
	   30 B(3,5,10)       =    109.191152    -0.000000    -0.001005   109.190147
	   31 B(5,3,6)        =    110.754067    -0.000000    -0.001745   110.752323
	   32 B(5,3,7)        =    110.753931    -0.000000    -0.001030   110.752901
	   33 B(5,8,11)       =    112.858805     0.000000     0.000378   112.859183
	   34 B(5,8,12)       =    109.480296     0.000001     0.007432   109.487728
	   35 B(5,8,13)       =    109.487679    -0.000000    -0.004523   109.483155
	   36 B(6,3,7)        =    105.364865    -0.000000    -0.004717   105.360148
	   37 B(8,5,9)        =    109.805825    -0.000000    -0.001905   109.803920
	   38 B(8,5,10)       =    109.800274     0.000001     0.005146   109.805420
	   39 B(8,11,14)      =    111.096916    -0.000000    -0.001297   111.095619
	   40 B(8,11,15)      =    111.097765    -0.000000    -0.001726   111.096039
	   41 B(8,11,16)      =    111.233413     0.000000     0.000076   111.233489
	   42 B(9,5,10)       =    105.977203    -0.000000     0.001115   105.978318
	   43 B(11,8,12)      =    109.288990    -0.000000    -0.000583   109.288407
	   44 B(11,8,13)      =    109.290007    -0.000000    -0.003980   109.286028
	   45 B(12,8,13)      =    106.217281     0.000000     0.001324   106.218605
	   46 B(14,11,15)     =    107.646256     0.000000     0.000951   107.647207
	   47 B(14,11,16)     =    107.800408     0.000000     0.001627   107.802035
	   48 B(15,11,16)     =    107.800820     0.000000     0.000542   107.801362
	   49 B(17,4,18)      =    109.670539     0.000001     0.002887   109.673426
	   50 B(17,4,19)      =    109.671919     0.000000     0.002745   109.674663
	   51 B(18,4,19)      =    107.282441     0.000000     0.001950   107.284391
	   52 D(1,2,3,5)      =     -0.006337     0.000000     0.002979    -0.003359
	   53 D(1,2,3,6)      =    123.485731     0.000000     0.005748   123.491479
	   54 D(1,2,3,7)      =   -123.499677    -0.000000     0.001295  -123.498382
	   55 D(1,2,4,17)     =      0.010731    -0.000000    -0.013529    -0.002798
	   56 D(1,2,4,18)     =   -120.908282     0.000000    -0.011236  -120.919519
	   57 D(1,2,4,19)     =    120.930935    -0.000000    -0.015149   120.915786
	   58 D(2,3,5,8)      =   -179.982038    -0.000000    -0.034321  -180.016360
	   59 D(2,3,5,9)      =     57.740313     0.000000    -0.029941    57.710372
	   60 D(2,3,5,10)     =    -57.711023     0.000000    -0.031746   -57.742770
	   61 D(3,2,4,17)     =   -179.994976     0.000000    -0.010576  -180.005552
	   62 D(3,2,4,18)     =     59.086010     0.000000    -0.008284    59.077727
	   63 D(3,2,4,19)     =    -59.074772    -0.000000    -0.012196   -59.086969
	   64 D(3,5,8,11)     =   -179.963553    -0.000000    -0.076564  -180.040117
	   65 D(3,5,8,12)     =    -58.000220    -0.000000    -0.071719   -58.071939
	   66 D(3,5,8,13)     =     58.066513    -0.000000    -0.068478    57.998035
	   67 *D(4,2,3,5)     =    180.000000    -0.000000     0.000000   180.000000
	   68 D(4,2,3,6)      =    -56.508506     0.000000     0.002767   -56.505739
	   69 D(4,2,3,7)      =     56.506086    -0.000000    -0.001686    56.504400
	   70 D(5,8,11,14)    =     59.869160     0.000000     0.062289    59.931449
	   71 D(5,8,11,15)    =    -59.940176     0.000000     0.063102   -59.877074
	   72 D(5,8,11,16)    =    179.963947     0.000000     0.063525   180.027472
	   73 D(6,3,5,8)      =     58.282492    -0.000000    -0.039557    58.242935
	   74 D(6,3,5,9)      =    -63.995156    -0.000000    -0.035177   -64.030333
	   75 D(6,3,5,10)     =   -179.446493    -0.000000    -0.036982  -179.483475
	   76 D(7,3,5,8)      =    -58.244145    -0.000000    -0.032044   -58.276190
	   77 D(7,3,5,9)      =    179.478206     0.000000    -0.027665   179.450542
	   78 D(7,3,5,10)     =     64.026870     0.000000    -0.029470    63.997400
	   79 D(9,5,8,11)     =    -58.033168    -0.000000    -0.078861   -58.112029
	   80 D(9,5,8,12)     =     63.930165    -0.000000    -0.074016    63.856149
	   81 D(9,5,8,13)     =    179.996898    -0.000000    -0.070775   179.926123
	   82 D(10,5,8,11)    =     58.109222    -0.000000    -0.075639    58.033583
	   83 D(10,5,8,12)    =   -179.927445    -0.000000    -0.070794  -179.998239
	   84 D(10,5,8,13)    =    -63.860712     0.000000    -0.067553   -63.928265
	   85 D(12,8,11,14)   =    -62.201823    -0.000000     0.052944   -62.148879
	   86 D(12,8,11,15)   =    177.988841    -0.000000     0.053756   178.042597
	   87 D(12,8,11,16)   =     57.892964    -0.000000     0.054180    57.947144
	   88 D(13,8,11,14)   =   -178.049684    -0.000000     0.053906  -177.995778
	   89 D(13,8,11,15)   =     62.140980     0.000000     0.054719    62.195698
	   90 D(13,8,11,16)   =    -57.954898     0.000000     0.055143   -57.899755
	 ---------------------------------------------------------------------------
	Successfully symmetrized geometry.

  ==> Convergence Check <==

  Measures of convergence in internal coordinates in au.
  Criteria marked as inactive (o), active & met (*), and active & unmet ( ).
  ---------------------------------------------------------------------------------------------
   Step     Total Energy     Delta E     MAX Force     RMS Force      MAX Disp      RMS Disp   
  ---------------------------------------------------------------------------------------------
    Convergence Criteria    1.00e-06 *    3.00e-04 *             o    1.20e-03 *             o
  ---------------------------------------------------------------------------------------------
     11    -309.17906735   -5.90e-07 *    3.68e-05 *    9.60e-06 o    1.38e-03      5.48e-04 o  ~
  ---------------------------------------------------------------------------------------------


  **** Optimization is complete! (in 11 steps) ****

  ==> Optimization Summary <==

  Measures of convergence in internal coordinates in au.
  --------------------------------------------------------------------------------------------------------------- ~
   Step         Total Energy             Delta E       MAX Force       RMS Force        MAX Disp        RMS Disp  ~
  --------------------------------------------------------------------------------------------------------------- ~
      1    -309.177849753537   -309.177849753537      0.01200321      0.00205585      0.13614651      0.04935699  ~
      2    -309.153105453430      0.024744300107      0.09435509      0.01539197      0.10147069      0.03496131  ~
      3    -309.178155208842     -0.025049755412      0.00539031      0.00153345      0.23448148      0.04800337  ~
      4    -309.177915193090      0.000240015752      0.00845352      0.00175204      0.12359806      0.02494628  ~
      5    -309.178937580579     -0.001022387489      0.00985102      0.00118122      0.01437118      0.00463565  ~
      6    -309.179044490632     -0.000106910053      0.00049127      0.00012379      0.01716706      0.00516575  ~
      7    -309.179051618887     -0.000007128255      0.00015843      0.00004174      0.04382821      0.01317374  ~
      8    -309.179050465734      0.000001153153      0.00132031      0.00026574      0.02161011      0.00741811  ~
      9    -309.179062819100     -0.000012353366      0.00048913      0.00010805      0.03616633      0.00889512  ~
     10    -309.179066755580     -0.000003936480      0.00023670      0.00006039      0.00433659      0.00113521  ~
     11    -309.179067345978     -0.000000590398      0.00003675      0.00000960      0.00137638      0.00054790  ~
  --------------------------------------------------------------------------------------------------------------- ~

	Writing optimization data to binary file.
	Final energy is   -309.1790673459781
	Final (previous) structure:
	Cartesian Geometry (in Angstrom)
	    O    -2.0523278649  -0.2707090855  -0.5018826936
	    C    -1.4187805040   0.7304741624  -0.4237946728
	    C     0.0494912539   0.7332932561  -0.0488045426
	    C    -2.0417535853   2.0810564489  -0.6962113573
	    C     0.6349017982  -0.6462871012   0.2164579042
	    H     0.5905735161   1.2343715282  -0.8483086264
	    H     0.1636550899   1.3744387473   0.8223620387
	    C     2.1135408034  -0.5953457417   0.5905203174
	    H     0.4995465482  -1.2659608853  -0.6628498977
	    H     0.0718514167  -1.1259702616   1.0091470938
	    C     2.7051629074  -1.9753890735   0.8564851586
	    H     2.6727391257  -0.1125253547  -0.2068184029
	    H     2.2433058762   0.0269925178   1.4722447517
	    H     2.6218095065  -2.6111504853  -0.0184160332
	    H     2.1901469583  -2.4702774875   1.6728411368
	    H     3.7547243497  -1.9086449401   1.1188023278
	    H    -3.0829905392   1.9594693211  -0.9520221358
	    H    -1.5214965678   2.5755392154  -1.5090927811
	    H    -1.9523765573   2.7169860471   0.1776068448
	Saving final (previous) structure.
			--------------------------
			 OPTKING Finished Execution 
			--------------------------

    Final optimized geometry and variables:
    Molecular point group: c1
    Full point group: C1

    Geometry (in Angstrom), charge = 0, multiplicity = 1:

    O           -2.052327864866    -0.270709085501    -0.501882693593
    C           -1.418780503979     0.730474162382    -0.423794672766
    C            0.049491253851     0.733293256090    -0.048804542580
    C           -2.041753585329     2.081056448944    -0.696211357338
    C            0.634901798188    -0.646287101218     0.216457904244
    H            0.590573516063     1.234371528245    -0.848308626402
    H            0.163655089929     1.374438747348     0.822362038715
    C            2.113540803405    -0.595345741664     0.590520317430
    H            0.499546548170    -1.265960885258    -0.662849897722
    H            0.071851416680    -1.125970261615     1.009147093771
    C            2.705162907447    -1.975389073503     0.856485158616
    H            2.672739125653    -0.112525354737    -0.206818402884
    H            2.243305876208     0.026992517838     1.472244751653
    H            2.621809506515    -2.611150485296    -0.018416033212
    H            2.190146958336    -2.470277487485     1.672841136833
    H            3.754724349684    -1.908644940073     1.118802327814
    H           -3.082990539165     1.959469321108    -0.952022135753
    H           -1.521496567824     2.575539215361    -1.509092781098
    H           -1.952376557258     2.716986047092     0.177606844823

	Cleaning optimization helper files.


Properties will be evaluated at   0.000000,   0.000000,   0.000000 Bohr

Properties computed using the  density matrix

  Nuclear Dipole Moment: (a.u.)
     X:     7.7257      Y:     0.3674      Z:     1.9433

  Electronic Dipole Moment: (a.u.)
     X:    -7.0583      Y:     0.5921      Z:    -1.8531

  Dipole Moment: (a.u.)
     X:     0.6674      Y:     0.9595      Z:     0.0902     Total:     1.1722

  Dipole Moment: (Debye)
     X:     1.6963      Y:     2.4387      Z:     0.2293     Total:     2.9795

  Quadrupole Moment: (Debye Ang)
    XX:   -50.0635     YY:   -43.3978     ZZ:   -43.9551
    XY:    -4.3359     XZ:    -1.2554     YZ:    -1.1365

  Traceless Quadrupole Moment: (Debye Ang)
    XX:    -4.2580     YY:     2.4076     ZZ:     1.8504
    XY:    -4.3359     XZ:    -1.2554     YZ:    -1.1365

  Mulliken Charges: (a.u.)
   Center  Symbol    Alpha    Beta     Spin     Total
       1     O     4.17047  4.17047  0.00000 -0.34094
       2     C     2.86257  2.86257  0.00000  0.27486
       3     C     3.11177  3.11177  0.00000 -0.22355
       4     C     3.15123  3.15123  0.00000 -0.30247
       5     C     3.08029  3.08029  0.00000 -0.16058
       6     H     0.44571  0.44571  0.00000  0.10859
       7     H     0.44570  0.44570  0.00000  0.10859
       8     C     3.08517  3.08517  0.00000 -0.17034
       9     H     0.44662  0.44662  0.00000  0.10677
      10     H     0.44661  0.44661  0.00000  0.10678
      11     C     3.14960  3.14960  0.00000 -0.29920
      12     H     0.45593  0.45593  0.00000  0.08814
      13     H     0.45591  0.45591  0.00000  0.08817
      14     H     0.45381  0.45381  0.00000  0.09238
      15     H     0.45380  0.45380  0.00000  0.09239
      16     H     0.44871  0.44871  0.00000  0.10258
      17     H     0.43538  0.43538  0.00000  0.12924
      18     H     0.45035  0.45035  0.00000  0.09930
      19     H     0.45035  0.45035  0.00000  0.09929

   Total alpha = 28.00000, Total beta = 28.00000, Total charge =  0.00000


*** Psi4 exiting successfully. Buy a developer a beer!
