    -----------------------------------------------------------------------
          Psi4: An Open-Source Ab Initio Electronic Structure Package
                              Psi4 1.0.54 Driver

                          Git: Rev {master} 8d4cec3 dirty

    J. M. Turney, A. C. Simmonett, R. M. Parrish, E. G. Hohenstein,
    F. A. Evangelista, J. T. Fermann, B. J. Mintz, L. A. Burns, J. J. Wilke,
    M. L. Abrams, N. J. Russ, M. L. Leininger, C. L. Janssen, E. T. Seidl,
    W. D. Allen, H. F. Schaefer, R. A. King, E. F. Valeev, C. D. Sherrill,
    and T. D. Crawford, WIREs Comput. Mol. Sci. 2, 556-565 (2012)
    (doi: 10.1002/wcms.93)

                         Additional Contributions by
    A. E. DePrince, U. Bozkaya, A. Yu. Sokolov, D. G. A. Smith, R. Di Remigio,
    R. M. Richard, J. F. Gonthier, H. R. McAlexander, M. Saitow, and
    B. P. Pritchard
    -----------------------------------------------------------------------


    Psi4 started on: Sat Sep 10 16:52:32 2016

    Process ID:  37844
    PSI4DATADIR: /export131/home/mjharvey/miniconda3/share/psi4
    Memory level set to 256.000 MB

  ==> Input File <==

--------------------------------------------------------------------------
set {
	reference rhf
	basis cc-pvtz
}


set_num_threads( 4 )
memory 2 gb

molecule MOL {
0 1

H	 -3.144994	 -1.202467	 -0.018751
O	 -2.321472	 -0.864941	 -0.318626
C	 -2.021813	 0.336996	 0.342658
C	 -0.669613	 0.837286	 -0.127252
H	 -2.780861	 1.084746	 0.127159
H	 -2.006390	 0.184138	 1.420053
C	 0.490865	 -0.082543	 0.241244
H	 -0.708709	 0.967192	 -1.204587
H	 -0.507562	 1.822272	 0.303070
C	 1.724215	 0.675829	 0.723249
H	 0.751110	 -0.689660	 -0.618254
H	 0.167699	 -0.771427	 1.019142
C	 2.881861	 -0.243069	 1.099104
H	 2.048416	 1.362441	 -0.054029
H	 1.459701	 1.289924	 1.580342
H	 3.192785	 -0.845437	 0.252112
H	 3.742122	 0.324779	 1.434969
H	 2.600316	 -0.920433	 1.898701

	symmetry c1
}
set optking {
	frozen_dihedral = ("
		10 7 4 8
	")
}

ee,wfn = optimize('scf', return_wfn=True)
oeprop( wfn, 'DIPOLE', 'QUADRUPOLE', 'MULLIKEN_CHARGES')
f=open( 'psi4out.xyz', 'w' )
f.write( "18  " )
f.write( str(ee) + "\n" )
f.write( MOL.save_string_xyz() )
f.close()
--------------------------------------------------------------------------

  Memory set to   2.000 GiB by Python script.
gradient() will perform analytic gradient computation.

*** tstart() called on cx1-27-1-3
*** at Sat Sep 10 16:52:32 2016


         ---------------------------------------------------------
                                   SCF
            by Justin Turney, Rob Parrish, and Andy Simmonett
                              RHF Reference
                        4 Threads,   2000 MiB Core
         ---------------------------------------------------------

  ==> Geometry <==

    Molecular point group: c1
    Full point group: C1

    Geometry (in Angstrom), charge = 0, multiplicity = 1:

       Center              X                  Y                   Z               Mass       
    ------------   -----------------  -----------------  -----------------  -----------------
           H         -3.106234634252    -1.282906169483    -0.341602572685     1.007825032070
           O         -2.282712634252    -0.945380169483    -0.641477572685    15.994914619560
           C         -1.983053634252     0.256556830517     0.019806427315    12.000000000000
           C         -0.630853634252     0.756846830517    -0.450103572685    12.000000000000
           H         -2.742101634252     1.004306830517    -0.195692572685     1.007825032070
           H         -1.967630634252     0.103698830517     1.097201427315     1.007825032070
           C          0.529624365748    -0.162982169483    -0.081607572685    12.000000000000
           H         -0.669949634252     0.886752830517    -1.527438572685     1.007825032070
           H         -0.468802634252     1.741832830517    -0.019781572685     1.007825032070
           C          1.762974365748     0.595389830517     0.400397427315    12.000000000000
           H          0.789869365748    -0.770099169483    -0.941105572685     1.007825032070
           H          0.206458365748    -0.851866169483     0.696290427315     1.007825032070
           C          2.920620365748    -0.323508169483     0.776252427315    12.000000000000
           H          2.087175365748     1.282001830517    -0.376880572685     1.007825032070
           H          1.498460365748     1.209484830517     1.257490427315     1.007825032070
           H          3.231544365748    -0.925876169483    -0.070739572685     1.007825032070
           H          3.780881365748     0.244339830517     1.112117427315     1.007825032070
           H          2.639075365748    -1.000872169483     1.575849427315     1.007825032070

  Running in c1 symmetry.

  Rotational constants: A =      0.31987  B =      0.04558  C =      0.04262 [cm^-1]
  Rotational constants: A =   9589.44631  B =   1366.38732  C =   1277.70561 [MHz]
  Nuclear repulsion =  249.490132484433531

  Charge       = 0
  Multiplicity = 1
  Electrons    = 50
  Nalpha       = 25
  Nbeta        = 25

  ==> Algorithm <==

  SCF Algorithm Type is DF.
  DIIS enabled.
  MOM disabled.
  Fractional occupation disabled.
  Guess Type is SAD.
  Energy threshold   = 1.00e-08
  Density threshold  = 1.00e-08
  Integral threshold = 0.00e+00

  ==> Primary Basis <==

  Basis Set: CC-PVTZ
    Number of shells: 132
    Number of basis function: 348
    Number of Cartesian functions: 390
    Spherical Harmonics?: true
    Max angular momentum: 3

  ==> Pre-Iterations <==

   -------------------------------------------------------
    Irrep   Nso     Nmo     Nalpha   Nbeta   Ndocc  Nsocc
   -------------------------------------------------------
     A        348     348       0       0       0       0
   -------------------------------------------------------
    Total     348     348      25      25      25       0
   -------------------------------------------------------

  ==> Integral Setup <==

  ==> DFJK: Density-Fitted J/K Matrices <==

    J tasked:                  Yes
    K tasked:                  Yes
    wK tasked:                  No
    OpenMP threads:              4
    Integrals threads:           4
    Memory (MB):              1430
    Algorithm:                Core
    Integral Cache:           NONE
    Schwarz Cutoff:          1E-12
    Fitting Condition:       1E-12

   => Auxiliary Basis Set <=

  Basis Set: 
    Number of shells: 270
    Number of basis function: 834
    Number of Cartesian functions: 996
    Spherical Harmonics?: true
    Max angular momentum: 4

  Minimum eigenvalue in the overlap matrix is 3.7036587526E-04.
  Using Symmetric Orthogonalization.
  SCF Guess: Superposition of Atomic Densities via on-the-fly atomic UHF.

  ==> Iterations <==

                           Total Energy        Delta E     RMS |[F,P]|

   @DF-RHF iter   0:  -273.99252795397979   -2.73993e+02   1.40313e-02 
   @DF-RHF iter   1:  -271.13928443448810    2.85324e+00   1.26785e-03 
   @DF-RHF iter   2:  -271.26458013598881   -1.25296e-01   4.85443e-04 DIIS
   @DF-RHF iter   3:  -271.27933751113028   -1.47574e-02   2.05434e-04 DIIS
   @DF-RHF iter   4:  -271.28250619540563   -3.16868e-03   4.36998e-05 DIIS
   @DF-RHF iter   5:  -271.28270390943567   -1.97714e-04   1.39864e-05 DIIS
   @DF-RHF iter   6:  -271.28273054834392   -2.66389e-05   4.35314e-06 DIIS
   @DF-RHF iter   7:  -271.28273300752005   -2.45918e-06   1.30047e-06 DIIS
   @DF-RHF iter   8:  -271.28273332054130   -3.13021e-07   3.43445e-07 DIIS
   @DF-RHF iter   9:  -271.28273334112521   -2.05839e-08   1.07222e-07 DIIS
   @DF-RHF iter  10:  -271.28273334254322   -1.41802e-09   2.60838e-08 DIIS
   @DF-RHF iter  11:  -271.28273334263599   -9.27685e-11   6.32295e-09 DIIS

  ==> Post-Iterations <==

    Orbital Energies (a.u.)
    -----------------------

    Doubly Occupied:                                                      

       1A    -20.546101     2A    -11.265923     3A    -11.210418  
       4A    -11.209351     5A    -11.204972     6A    -11.203297  
       7A     -1.363906     8A     -1.077456     9A     -1.010178  
      10A     -0.914566    11A     -0.820742    12A     -0.784421  
      13A     -0.705571    14A     -0.651990    15A     -0.621116  
      16A     -0.579456    17A     -0.575344    18A     -0.559627  
      19A     -0.525199    20A     -0.506918    21A     -0.485296  
      22A     -0.468669    23A     -0.457336    24A     -0.450161  
      25A     -0.431438  

    Virtual:                                                              

      26A      0.140368    27A      0.151535    28A      0.166313  
      29A      0.175816    30A      0.191288    31A      0.198454  
      32A      0.221911    33A      0.233358    34A      0.235951  
      35A      0.248216    36A      0.253020    37A      0.272047  
      38A      0.323674    39A      0.325643    40A      0.339470  
      41A      0.364121    42A      0.375532    43A      0.393563  
      44A      0.432891    45A      0.439382    46A      0.449488  
      47A      0.478025    48A      0.496863    49A      0.505254  
      50A      0.525456    51A      0.555845    52A      0.556732  
      53A      0.577139    54A      0.590090    55A      0.596656  
      56A      0.619176    57A      0.631287    58A      0.635475  
      59A      0.647691    60A      0.649572    61A      0.661581  
      62A      0.671592    63A      0.677409    64A      0.687192  
      65A      0.697509    66A      0.702280    67A      0.712269  
      68A      0.715489    69A      0.734926    70A      0.764791  
      71A      0.775402    72A      0.791892    73A      0.829201  
      74A      0.861841    75A      0.863535    76A      0.875610  
      77A      0.891351    78A      0.945140    79A      0.955772  
      80A      0.969236    81A      0.997425    82A      1.027592  
      83A      1.044657    84A      1.055048    85A      1.067432  
      86A      1.093124    87A      1.099159    88A      1.142484  
      89A      1.149110    90A      1.172402    91A      1.194615  
      92A      1.210058    93A      1.225589    94A      1.258023  
      95A      1.272573    96A      1.285073    97A      1.288790  
      98A      1.298488    99A      1.309600   100A      1.323601  
     101A      1.334823   102A      1.346710   103A      1.361957  
     104A      1.362468   105A      1.371667   106A      1.389700  
     107A      1.405144   108A      1.408982   109A      1.442380  
     110A      1.452469   111A      1.461915   112A      1.484553  
     113A      1.489989   114A      1.501064   115A      1.506272  
     116A      1.535162   117A      1.538514   118A      1.571315  
     119A      1.582975   120A      1.587865   121A      1.609636  
     122A      1.625212   123A      1.637643   124A      1.643564  
     125A      1.675895   126A      1.685798   127A      1.708575  
     128A      1.716907   129A      1.763350   130A      1.782744  
     131A      1.795264   132A      1.806320   133A      1.823093  
     134A      1.856549   135A      1.886116   136A      1.916747  
     137A      1.933121   138A      1.947462   139A      2.075584  
     140A      2.160690   141A      2.284554   142A      2.321606  
     143A      2.385372   144A      2.406027   145A      2.518052  
     146A      2.585107   147A      2.600787   148A      2.624026  
     149A      2.651818   150A      2.687428   151A      2.698865  
     152A      2.707235   153A      2.731949   154A      2.758035  
     155A      2.769931   156A      2.797386   157A      2.830637  
     158A      2.853975   159A      2.864466   160A      2.875163  
     161A      2.894779   162A      2.917087   163A      2.928428  
     164A      2.940132   165A      2.973480   166A      3.017722  
     167A      3.048317   168A      3.054019   169A      3.061762  
     170A      3.084846   171A      3.123269   172A      3.134761  
     173A      3.149041   174A      3.174966   175A      3.199981  
     176A      3.214031   177A      3.231651   178A      3.237296  
     179A      3.281198   180A      3.286178   181A      3.304317  
     182A      3.319133   183A      3.329973   184A      3.343042  
     185A      3.349165   186A      3.365996   187A      3.369519  
     188A      3.396668   189A      3.408217   190A      3.413875  
     191A      3.428734   192A      3.435100   193A      3.445645  
     194A      3.457332   195A      3.460625   196A      3.484228  
     197A      3.492189   198A      3.514675   199A      3.524859  
     200A      3.539704   201A      3.549667   202A      3.570763  
     203A      3.587937   204A      3.607638   205A      3.611795  
     206A      3.639403   207A      3.673846   208A      3.680296  
     209A      3.693410   210A      3.735033   211A      3.761969  
     212A      3.774153   213A      3.782276   214A      3.789227  
     215A      3.805296   216A      3.831690   217A      3.841241  
     218A      3.860670   219A      3.867468   220A      3.871076  
     221A      3.894396   222A      3.916713   223A      3.920811  
     224A      3.942486   225A      3.973488   226A      3.993642  
     227A      4.018654   228A      4.038832   229A      4.057411  
     230A      4.067933   231A      4.111875   232A      4.112001  
     233A      4.125007   234A      4.144697   235A      4.147368  
     236A      4.161647   237A      4.177588   238A      4.190617  
     239A      4.203109   240A      4.215520   241A      4.224289  
     242A      4.244193   243A      4.265340   244A      4.275507  
     245A      4.282537   246A      4.307174   247A      4.328794  
     248A      4.334768   249A      4.360947   250A      4.375668  
     251A      4.384321   252A      4.401826   253A      4.408473  
     254A      4.413584   255A      4.426614   256A      4.467056  
     257A      4.477233   258A      4.500676   259A      4.505776  
     260A      4.522215   261A      4.529134   262A      4.556659  
     263A      4.570739   264A      4.579572   265A      4.595271  
     266A      4.627691   267A      4.636824   268A      4.649463  
     269A      4.664095   270A      4.687481   271A      4.709157  
     272A      4.724475   273A      4.747933   274A      4.775470  
     275A      4.785276   276A      4.795427   277A      4.825422  
     278A      4.882929   279A      4.905897   280A      4.937507  
     281A      5.000302   282A      5.020051   283A      5.044417  
     284A      5.074681   285A      5.090301   286A      5.110019  
     287A      5.134297   288A      5.165047   289A      5.183853  
     290A      5.198806   291A      5.234995   292A      5.245809  
     293A      5.256689   294A      5.283548   295A      5.293407  
     296A      5.321464   297A      5.334597   298A      5.377214  
     299A      5.385286   300A      5.407898   301A      5.451792  
     302A      5.488613   303A      5.521997   304A      5.542544  
     305A      5.560167   306A      5.597662   307A      5.603156  
     308A      5.665555   309A      5.727127   310A      5.741151  
     311A      5.754538   312A      5.757400   313A      5.786673  
     314A      5.804677   315A      5.836484   316A      5.855181  
     317A      5.869151   318A      5.887960   319A      5.914903  
     320A      5.945414   321A      5.957596   322A      5.974948  
     323A      6.013076   324A      6.045536   325A      6.147795  
     326A      6.263376   327A      6.317297   328A      6.333832  
     329A      6.352350   330A      6.358281   331A      6.406323  
     332A      6.487229   333A      6.492878   334A      6.694662  
     335A      7.092983   336A      7.174847   337A      7.247062  
     338A      7.290776   339A      7.446562   340A      7.552670  
     341A      7.746289   342A      8.045780   343A     12.704286  
     344A     13.058343   345A     13.458334   346A     13.651659  
     347A     14.092100   348A     14.278060  

    Final Occupation by Irrep:
              A 
    DOCC [    25 ]

  Energy converged.

  @DF-RHF Final Energy:  -271.28273334263599

   => Energetics <=

    Nuclear Repulsion Energy =            249.4901324844335306
    One-Electron Energy =                -862.2868270351533511
    Two-Electron Energy =                 341.5139612080839697
    DFT Exchange-Correlation Energy =       0.0000000000000000
    Empirical Dispersion Energy =           0.0000000000000000
    PCM Polarization Energy =               0.0000000000000000
    EFP Energy =                            0.0000000000000000
    Total Energy =                       -271.2827333426358791


  Saving occupied orbitals to File 180.

*** tstop() called on cx1-27-1-3 at Sat Sep 10 16:52:40 2016
Module time:
	user time   =      27.74 seconds =       0.46 minutes
	system time =       0.65 seconds =       0.01 minutes
	total time  =          8 seconds =       0.13 minutes
Total time:
	user time   =      27.74 seconds =       0.46 minutes
	system time =       0.65 seconds =       0.01 minutes
	total time  =          8 seconds =       0.13 minutes


Properties will be evaluated at   0.000000,   0.000000,   0.000000 Bohr

Properties computed using the SCF density matrix

  Nuclear Dipole Moment: (a.u.)
     X:     4.9377      Y:     1.5337      Z:     2.1209

  Electronic Dipole Moment: (a.u.)
     X:    -5.3181      Y:    -1.2816      Z:    -1.7227

  Dipole Moment: (a.u.)
     X:    -0.3804      Y:     0.2520      Z:     0.3983     Total:     0.6057

  Dipole Moment: (Debye)
     X:    -0.9669      Y:     0.6406      Z:     1.0123     Total:     1.5395


*** tstart() called on cx1-27-1-3
*** at Sat Sep 10 16:52:40 2016


         ------------------------------------------------------------
                                   SCF GRAD                          
                          Rob Parrish, Justin Turney,                
                       Andy Simmonett, and Alex Sokolov              
         ------------------------------------------------------------

  ==> Geometry <==

    Molecular point group: c1
    Full point group: C1

    Geometry (in Angstrom), charge = 0, multiplicity = 1:

       Center              X                  Y                   Z               Mass       
    ------------   -----------------  -----------------  -----------------  -----------------
           H         -3.106234634252    -1.282906169483    -0.341602572685     1.007825032070
           O         -2.282712634252    -0.945380169483    -0.641477572685    15.994914619560
           C         -1.983053634252     0.256556830517     0.019806427315    12.000000000000
           C         -0.630853634252     0.756846830517    -0.450103572685    12.000000000000
           H         -2.742101634252     1.004306830517    -0.195692572685     1.007825032070
           H         -1.967630634252     0.103698830517     1.097201427315     1.007825032070
           C          0.529624365748    -0.162982169483    -0.081607572685    12.000000000000
           H         -0.669949634252     0.886752830517    -1.527438572685     1.007825032070
           H         -0.468802634252     1.741832830517    -0.019781572685     1.007825032070
           C          1.762974365748     0.595389830517     0.400397427315    12.000000000000
           H          0.789869365748    -0.770099169483    -0.941105572685     1.007825032070
           H          0.206458365748    -0.851866169483     0.696290427315     1.007825032070
           C          2.920620365748    -0.323508169483     0.776252427315    12.000000000000
           H          2.087175365748     1.282001830517    -0.376880572685     1.007825032070
           H          1.498460365748     1.209484830517     1.257490427315     1.007825032070
           H          3.231544365748    -0.925876169483    -0.070739572685     1.007825032070
           H          3.780881365748     0.244339830517     1.112117427315     1.007825032070
           H          2.639075365748    -1.000872169483     1.575849427315     1.007825032070

  Nuclear repulsion =  249.490132484433531

  ==> Basis Set <==

  Basis Set: CC-PVTZ
    Number of shells: 132
    Number of basis function: 348
    Number of Cartesian functions: 390
    Spherical Harmonics?: true
    Max angular momentum: 3

  ==> DFJKGrad: Density-Fitted SCF Gradients <==

    Gradient:                    1
    J tasked:                  Yes
    K tasked:                  Yes
    wK tasked:                  No
    OpenMP threads:              4
    Integrals threads:           4
    Memory (MB):              1430
    Schwarz Cutoff:          0E+00
    Fitting Condition:       1E-12

   => Auxiliary Basis Set <=

  Basis Set: 
    Number of shells: 270
    Number of basis function: 834
    Number of Cartesian functions: 996
    Spherical Harmonics?: true
    Max angular momentum: 4


  -Total Gradient:
     Atom            X                  Y                   Z
    ------   -----------------  -----------------  -----------------
       1       -0.000103162064     0.000065867481    -0.000054925040
       2       -0.000830138149    -0.000100120029    -0.000186895328
       3        0.001012351403    -0.001169585870     0.001966205881
       4        0.003707855670    -0.003000538639     0.001687561251
       5        0.000364876833     0.000018791636     0.000001407183
       6       -0.000379069858    -0.000170145449     0.000036475061
       7       -0.001785299626     0.002948160602    -0.003193564952
       8        0.000691508523    -0.001709443858    -0.001082996841
       9        0.001798248644     0.000495933084    -0.000123394112
      10       -0.001892535012     0.001493312938     0.000991436578
      11       -0.000647421102     0.001895214030    -0.001628356638
      12       -0.001991806663    -0.000317992189     0.001074365279
      13       -0.000206017297    -0.000301342015     0.000190274135
      14       -0.000141164467    -0.000543116148     0.000084174625
      15        0.000425840149     0.000350784901     0.000170142209
      16       -0.000068371668     0.000057054076    -0.000054517726
      17       -0.000076594851     0.000017180032     0.000019032265
      18        0.000120899531    -0.000030014583     0.000103576168


*** tstop() called on cx1-27-1-3 at Sat Sep 10 16:52:48 2016
Module time:
	user time   =      29.34 seconds =       0.49 minutes
	system time =       0.65 seconds =       0.01 minutes
	total time  =          8 seconds =       0.13 minutes
Total time:
	user time   =      57.17 seconds =       0.95 minutes
	system time =       1.30 seconds =       0.02 minutes
	total time  =         16 seconds =       0.27 minutes

			-----------------------------------------
			 OPTKING 2.0: for geometry optimizations 
			  - R.A. King,  Bethel University        
			-----------------------------------------

	Internal coordinates to be generated automatically.
	Detected frag 1 with atoms:  1 2 3 4 5 6 7 8 9 10 11 12 13 14 15 16 17 18
	---Fragment 1 Bond Connectivity---
	 1 : 2
	 2 : 1 3
	 3 : 2 4 5 6
	 4 : 3 7 8 9
	 5 : 3
	 6 : 3
	 7 : 4 10 11 12
	 8 : 4
	 9 : 4
	 10 : 7 13 14 15
	 11 : 7
	 12 : 7
	 13 : 10 16 17 18
	 14 : 10
	 15 : 10
	 16 : 13
	 17 : 13
	 18 : 13

	Assuming in current code that numbering for constraints corresponds to unified fragment.
	Frozen dihedral atom list: 
	    10     7     4     8
	---Fragment 1 Geometry and Gradient---
	 H          -5.8699327632       -2.4243413145       -0.6455353087
	 O          -4.3137017188       -1.7865096118       -1.2122169328
	 C          -3.7474282756        0.4848221472        0.0374287233
	 C          -1.1921405987        1.4302332342       -0.8505724838
	 H          -5.1818211173        1.8978648631       -0.3698053686
	 H          -3.7182830294        0.1959623900        2.0734102102
	 C           1.0008450046       -0.3079916649       -0.1542159627
	 H          -1.2660213316        1.6757199972       -2.8864405872
	 H          -0.8859085891        3.2915870189       -0.0373817549
	 C           3.3315387306        1.1251237220        0.7566414819
	 H           1.4926367820       -1.4552765255       -1.7784317945
	 H           0.3901497691       -1.6097937622        1.3157982166
	 C           5.5191726294       -0.6113418421        1.4669044976
	 H           3.9441898326        2.4226323615       -0.7122010672
	 H           2.8316797122        2.2855950916        2.3763125224
	 H           6.1067338375       -1.7496523933       -0.1336784191
	 H           7.1448303222        0.4617353630        2.1015973652
	 H           4.9871296853       -1.8913742944        2.9779238443
	            -0.0001031621        0.0000658675       -0.0000549250
	            -0.0008301381       -0.0001001200       -0.0001868953
	             0.0010123514       -0.0011695859        0.0019662059
	             0.0037078557       -0.0030005386        0.0016875613
	             0.0003648768        0.0000187916        0.0000014072
	            -0.0003790699       -0.0001701454        0.0000364751
	            -0.0017852996        0.0029481606       -0.0031935650
	             0.0006915085       -0.0017094439       -0.0010829968
	             0.0017982486        0.0004959331       -0.0001233941
	            -0.0018925350        0.0014933129        0.0009914366
	            -0.0006474211        0.0018952140       -0.0016283566
	            -0.0019918067       -0.0003179922        0.0010743653
	            -0.0002060173       -0.0003013420        0.0001902741
	            -0.0001411645       -0.0005431161        0.0000841746
	             0.0004258401        0.0003507849        0.0001701422
	            -0.0000683717        0.0000570541       -0.0000545177
	            -0.0000765949        0.0000171800        0.0000190323
	             0.0001208995       -0.0000300146        0.0001035762

	Previous optimization step data not found.  Starting new optimization.

	---Fragment 1 Intrafragment Coordinates---
	 - Coordinate -           - BOHR/RAD -       - ANG/DEG -
	 R(1,2)           =         1.774771	       0.939168
	 R(2,3)           =         2.653531	       1.404188
	 R(3,4)           =         2.865631	       1.516427
	 R(3,5)           =         2.054267	       1.087071
	 R(3,6)           =         2.056577	       1.088294
	 R(4,7)           =         2.883665	       1.525970
	 R(4,8)           =         2.051946	       1.085843
	 R(4,9)           =         2.054190	       1.087030
	 R(7,10)          =         2.883681	       1.525978
	 R(7,11)          =         2.048463	       1.084000
	 R(7,12)          =         2.056351	       1.088174
	 R(10,13)         =         2.881931	       1.525052
	 R(10,14)         =         2.053380	       1.086602
	 R(10,15)         =         2.054236	       1.087055
	 R(13,16)         =         2.050084	       1.084858
	 R(13,17)         =         2.048681	       1.084115
	 R(13,18)         =         2.050544	       1.085101
	 B(1,2,3)         =         1.922375	     110.143975
	 B(2,3,4)         =         1.903663	     109.071840
	 B(2,3,5)         =         1.924544	     110.268226
	 B(2,3,6)         =         1.927320	     110.427320
	 B(3,4,7)         =         1.987151	     113.855343
	 B(3,4,8)         =         1.891059	     108.349674
	 B(3,4,9)         =         1.885152	     108.011227
	 B(4,3,5)         =         1.911624	     109.527994
	 B(4,3,6)         =         1.918222	     109.906002
	 B(4,7,10)        =         1.972906	     113.039159
	 B(4,7,11)        =         1.905730	     109.190311
	 B(4,7,12)        =         1.905384	     109.170439
	 B(5,3,6)         =         1.878386	     107.623595
	 B(7,4,8)         =         1.916743	     109.821267
	 B(7,4,9)         =         1.914770	     109.708247
	 B(7,10,13)       =         1.973516	     113.074162
	 B(7,10,14)       =         1.906286	     109.222135
	 B(7,10,15)       =         1.910414	     109.458636
	 B(8,4,9)         =         1.864741	     106.841782
	 B(10,7,11)       =         1.912136	     109.557326
	 B(10,7,12)       =         1.905876	     109.198668
	 B(10,13,16)      =         1.938741	     111.081679
	 B(10,13,17)      =         1.942386	     111.290509
	 B(10,13,18)      =         1.939900	     111.148093
	 B(11,7,12)       =         1.858291	     106.472241
	 B(13,10,14)      =         1.907681	     109.302077
	 B(13,10,15)      =         1.907919	     109.315730
	 B(14,10,15)      =         1.854216	     106.238750
	 B(16,13,17)      =         1.881037	     107.775499
	 B(16,13,18)      =         1.878710	     107.642130
	 B(17,13,18)      =         1.880280	     107.732135
	 D(1,2,3,4)       =         3.111053	     178.250204
	 D(1,2,3,5)       =        -1.072304	     -61.438500
	 D(1,2,3,6)       =         1.001358	      57.373611
	 D(2,3,4,7)       =        -1.125768	     -64.501737
	 D(2,3,4,8)       =         1.012255	      57.997946
	 D(2,3,4,9)       =         3.026239	     173.390748
	 D(3,4,7,10)      =        -2.414003	    -138.312199
	 D(3,4,7,11)      =         1.736024	      99.466850
	 D(3,4,7,12)      =        -0.289105	     -16.564474
	 D(4,7,10,13)     =         3.136013	     179.680327
	 D(4,7,10,14)     =        -1.018906	     -58.379012
	 D(4,7,10,15)     =         1.004461	      57.551368
	 D(5,3,4,7)       =         3.049663	     174.732800
	 D(5,3,4,8)       =        -1.095500	     -62.767517
	 D(5,3,4,9)       =         0.918484	      52.625285
	 D(6,3,4,7)       =         0.989480	      56.693056
	 D(6,3,4,8)       =         3.127503	     179.192739
	 D(6,3,4,9)       =        -1.141698	     -65.414459
	 D(7,10,13,16)    =         1.043596	      59.793641
	 D(7,10,13,17)    =         3.139585	     179.884967
	 D(7,10,13,18)    =        -1.047788	     -60.033850
	*D(8,4,7,10)      =         1.745330	     100.000029
	 D(8,4,7,11)      =        -0.387828	     -22.220923
	 D(8,4,7,12)      =        -2.412957	    -138.252246
	 D(9,4,7,10)      =        -0.299248	     -17.145637
	 D(9,4,7,11)      =        -2.432406	    -139.366589
	 D(9,4,7,12)      =         1.825651	     104.602088
	 D(11,7,10,13)    =        -1.017602	     -58.304314
	 D(11,7,10,14)    =         1.110664	      63.636348
	 D(11,7,10,15)    =         3.134031	     179.566728
	 D(12,7,10,13)    =         1.011392	      57.948480
	 D(12,7,10,14)    =         3.139658	     179.889142
	 D(12,7,10,15)    =        -1.120161	     -64.180479
	 D(14,10,13,16)   =        -1.083887	     -62.102172
	 D(14,10,13,17)   =         1.012102	      57.989154
	 D(14,10,13,18)   =         3.107914	     178.070337
	 D(15,10,13,16)   =        -3.106641	    -177.997446
	 D(15,10,13,17)   =        -1.010652	     -57.906120
	 D(15,10,13,18)   =         1.085160	      62.175063

	Current energy   :      -271.2827333426

	Generating empirical Hessian (Schlegel '84) for each fragment.
	Taking RFO optimization step.
	Going to follow RFO solution 1.
	Using RFO vector 1.
	Norm of target step-size    0.26295
	Projected energy change by RFO approximation:        -0.0001328013

	Back-transformation to cartesian coordinates...
	Could not converge backtransformation.
	Using first guess instead.

	Back-transformation to cartesian coordinates to adjust frozen coordinates...
	Successfully converged to displaced geometry.

	--- Internal Coordinate Step in ANG or DEG, aJ/ANG or AJ/DEG ---
	 ---------------------------------------------------------------------------
	   Coordinate                Previous        Force       Change         New 
	   ----------                --------       ------       ------       ------
	    1 R(1,2)          =      0.939168    -0.000406     0.000106     0.939275
	    2 R(2,3)          =      1.404188    -0.002821     0.002277     1.406466
	    3 R(3,4)          =      1.516427    -0.007706    -0.001243     1.515183
	    4 R(3,5)          =      1.087071     0.001995     0.002650     1.089721
	    5 R(3,6)          =      1.088294    -0.000450     0.001682     1.089976
	    6 R(4,7)          =      1.525970     0.071358     0.015489     1.541459
	    7 R(4,8)          =      1.085843    -0.006963    -0.001174     1.084669
	    8 R(4,9)          =      1.087030    -0.005508    -0.000733     1.086298
	    9 R(7,10)         =      1.525978     0.004050     0.000987     1.526965
	   10 R(7,11)         =      1.084000    -0.000612     0.000809     1.084809
	   11 R(7,12)         =      1.088174    -0.012860    -0.002041     1.086133
	   12 R(10,13)        =      1.525052    -0.000362     0.000740     1.525793
	   13 R(10,14)        =      1.086602     0.003671     0.001144     1.087746
	   14 R(10,15)        =      1.087055    -0.001884     0.000242     1.087297
	   15 R(13,16)        =      1.084858     0.000072     0.000632     1.085489
	   16 R(13,17)        =      1.084115     0.000378     0.000105     1.084221
	   17 R(13,18)        =      1.085101    -0.000525     0.000400     1.085501
	   18 B(1,2,3)        =    110.143975     0.000004    -0.012655   110.131321
	   19 B(2,3,4)        =    109.071840    -0.000098    -0.468243   108.603597
	   20 B(2,3,5)        =    110.268226     0.000034     0.303880   110.572105
	   21 B(2,3,6)        =    110.427320     0.000033    -0.020758   110.406562
	   22 B(3,4,7)        =    113.855343     0.000043    -0.004959   113.850384
	   23 B(3,4,8)        =    108.349674    -0.000106    -1.542777   106.806897
	   24 B(3,4,9)        =    108.011227    -0.000065    -0.369284   107.641943
	   25 B(4,3,5)        =    109.527994     0.000061     0.439319   109.967314
	   26 B(4,3,6)        =    109.906002    -0.000023    -0.353468   109.552534
	   27 B(4,7,10)       =    113.039159     0.000072     0.473433   113.512592
	   28 B(4,7,11)       =    109.190311     0.000061     0.952601   110.142911
	   29 B(4,7,12)       =    109.170439     0.000050     0.379649   109.550089
	   30 B(5,3,6)        =    107.623595    -0.000005     0.108119   107.731713
	   31 B(7,4,8)        =    109.821267     0.000059     0.363970   110.185237
	   32 B(7,4,9)        =    109.708247     0.000068     1.113166   110.821413
	   33 B(7,10,13)      =    113.074162     0.000043     0.164316   113.238479
	   34 B(7,10,14)      =    109.222135     0.000008     0.113117   109.335253
	   35 B(7,10,15)      =    109.458636    -0.000050    -0.361361   109.097275
	   36 B(8,4,9)        =    106.841782    -0.000004     0.398790   107.240571
	   37 B(10,7,11)      =    109.557326    -0.000083    -0.077207   109.480119
	   38 B(10,7,12)      =    109.198668    -0.000058    -0.881634   108.317035
	   39 B(10,13,16)     =    111.081679     0.000012     0.056741   111.138420
	   40 B(10,13,17)     =    111.290509     0.000007     0.034632   111.325141
	   41 B(10,13,18)     =    111.148093    -0.000016    -0.068856   111.079237
	   42 B(11,7,12)      =    106.472241    -0.000049    -0.958811   105.513430
	   43 B(13,10,14)     =    109.302077    -0.000024     0.015913   109.317989
	   44 B(13,10,15)     =    109.315730     0.000015     0.087700   109.403429
	   45 B(14,10,15)     =    106.238750     0.000006    -0.031953   106.206797
	   46 B(16,13,17)     =    107.775499    -0.000007    -0.010652   107.764847
	   47 B(16,13,18)     =    107.642130    -0.000001    -0.025840   107.616290
	   48 B(17,13,18)     =    107.732135     0.000006     0.012433   107.744569
	   49 D(1,2,3,4)      =    178.250204    -0.000009    -1.092751   177.157453
	   50 D(1,2,3,5)      =    -61.438500    -0.000001    -0.661060   -62.099560
	   51 D(1,2,3,6)      =     57.373611     0.000007    -0.348188    57.025423
	   52 D(2,3,4,7)      =    -64.501737     0.000010     3.801994   -60.699743
	   53 D(2,3,4,8)      =     57.997946     0.000017     3.148806    61.146752
	   54 D(2,3,4,9)      =    173.390748    -0.000005     2.650480   176.041229
	   55 D(3,4,7,10)     =   -138.312199    -0.000015    -1.729777  -140.041976
	   56 D(3,4,7,11)     =     99.466850    -0.000012    -2.666946    96.799904
	   57 D(3,4,7,12)     =    -16.564474    -0.000012    -2.266306   -18.830780
	   58 D(4,7,10,13)    =    179.680327     0.000003     2.852645   182.532971
	   59 D(4,7,10,14)    =    -58.379012     0.000004     3.066711   -55.312301
	   60 D(4,7,10,15)    =     57.551368     0.000000     2.889918    60.441286
	   61 D(5,3,4,7)      =    174.732800     0.000006     3.451702   178.184502
	   62 D(5,3,4,8)      =    -62.767517     0.000012     2.798514   -59.969003
	   63 D(5,3,4,9)      =     52.625285    -0.000009     2.300188    54.925474
	   64 D(6,3,4,7)      =     56.693056     0.000002     3.268534    59.961590
	   65 D(6,3,4,8)      =    179.192739     0.000008     2.615346   181.808085
	   66 D(6,3,4,9)      =    -65.414459    -0.000013     2.117020   -63.297438
	   67 D(7,10,13,16)   =     59.793641     0.000003     0.321848    60.115490
	   68 D(7,10,13,17)   =    179.884967     0.000004     0.369939   180.254906
	   69 D(7,10,13,18)   =    -60.033850     0.000004     0.362528   -59.671322
	   70 *D(8,4,7,10)    =    100.000029    -0.000000    -0.000000   100.000029
	   71 D(8,4,7,11)     =    -22.220923     0.000003    -0.937169   -23.158092
	   72 D(8,4,7,12)     =   -138.252246     0.000002    -0.536529  -138.788776
	   73 D(9,4,7,10)     =    -17.145637    -0.000016    -1.386460   -18.532098
	   74 D(9,4,7,11)     =   -139.366589    -0.000013    -2.323630  -141.690218
	   75 D(9,4,7,12)     =    104.602088    -0.000013    -1.922990   102.679098
	   76 D(11,7,10,13)   =    -58.304314     0.000019     4.358355   -53.945959
	   77 D(11,7,10,14)   =     63.636348     0.000020     4.572421    68.208769
	   78 D(11,7,10,15)   =    179.566728     0.000016     4.395628   183.962356
	   79 D(12,7,10,13)   =     57.948480    -0.000013     2.684544    60.633023
	   80 D(12,7,10,14)   =    179.889142    -0.000012     2.898610   182.787751
	   81 D(12,7,10,15)   =    -64.180479    -0.000016     2.721817   -61.458661
	   82 D(14,10,13,16)  =    -62.102172    -0.000002     0.053304   -62.048868
	   83 D(14,10,13,17)  =     57.989154    -0.000001     0.101395    58.090549
	   84 D(14,10,13,18)  =    178.070337    -0.000001     0.093984   178.164321
	   85 D(15,10,13,16)  =   -177.997446    -0.000002     0.033560  -177.963886
	   86 D(15,10,13,17)  =    -57.906120    -0.000002     0.081651   -57.824470
	   87 D(15,10,13,18)  =     62.175063    -0.000001     0.074240    62.249303
	 ---------------------------------------------------------------------------
	Successfully symmetrized geometry.

  ==> Convergence Check <==

  Measures of convergence in internal coordinates in au.
  Criteria marked as inactive (o), active & met (*), and active & unmet ( ).
  --------------------------------------------------------------------------------------------- ~
   Step     Total Energy     Delta E     MAX Force     RMS Force      MAX Disp      RMS Disp    ~
  --------------------------------------------------------------------------------------------- ~
    Convergence Criteria    1.00e-06 *    3.00e-04 *             o    1.20e-03 *             o  ~
  --------------------------------------------------------------------------------------------- ~
      1    -271.28273334   -2.71e+02      8.66e-03      1.10e-03 o    7.98e-02      2.82e-02 o  ~
  ---------------------------------------------------------------------------------------------

	Writing optimization data to binary file.
	Structure for next step:
	Cartesian Geometry (in Angstrom)
	    H    -3.0614954987  -1.3187157875  -0.3290079794
	    O    -2.2404943564  -0.9672334547  -0.6199619863
	    C    -2.0011101027   0.2753471087  -0.0060935215
	    C    -0.6399584984   0.7765996645  -0.4440354928
	    H    -2.7702446929   0.9949697951  -0.2854973173
	    H    -2.0204736997   0.1732311679   1.0789156546
	    C     0.5232630860  -0.1559909076  -0.0525194255
	    H    -0.6802679718   0.8925103963  -1.5217396470
	    H    -0.5011718261   1.7664914077  -0.0187180047
	    C     1.7683985220   0.5895124867   0.4223330284
	    H     0.7829325404  -0.7995930185  -0.8862807560
	    H     0.2020300354  -0.8241905957   0.7412077886
	    C     2.9361411509  -0.3363405837   0.7497722753
	    H     2.0758962873   1.3001836584  -0.3415925678
	    H     1.5169366766   1.1784134396   1.3010694822
	    H     3.2342115442  -0.9131538549  -0.1201286794
	    H     3.8008391231   0.2238869611   1.0873767385
	    H     2.6699122642  -1.0382069341   1.5338761017
			--------------------------
			 OPTKING Finished Execution 
			--------------------------

    Structure for next step:
    Molecular point group: c1
    Full point group: C1

    Geometry (in Angstrom), charge = 0, multiplicity = 1:

    H           -3.067108846465    -1.318345067673    -0.333256511463
    O           -2.246107704137    -0.966862734903    -0.624210518314
    C           -2.006723450492     0.275717828513    -0.010342053547
    C           -0.645571846148     0.776970384372    -0.448284024810
    H           -2.775858040712     0.995340514947    -0.289745849339
    H           -2.026087047445     0.173601887772     1.074667122532
    C            0.517649738215    -0.155620187738    -0.056767957511
    H           -0.685881319554     0.892881116093    -1.525988179070
    H           -0.506785173856     1.766862127570    -0.022966536768
    C            1.762785174217     0.589883206529     0.418084496359
    H            0.777319192631    -0.799222298686    -0.890529288087
    H            0.196416687610    -0.823819875821     0.736959256578
    C            2.930527803160    -0.335969863883     0.745523743279
    H            2.070282939523     1.300554378274    -0.345841099822
    H            1.511323328836     1.178784159453     1.296820950190
    H            3.228598196480    -0.912783135099    -0.124377211445
    H            3.795225775325     0.224257680954     1.083128206462
    H            2.664298916470    -1.037836214312     1.529627569662

gradient() will perform analytic gradient computation.

*** tstart() called on cx1-27-1-3
*** at Sat Sep 10 16:52:49 2016


         ---------------------------------------------------------
                                   SCF
            by Justin Turney, Rob Parrish, and Andy Simmonett
                              RHF Reference
                        4 Threads,   2000 MiB Core
         ---------------------------------------------------------

  ==> Geometry <==

    Molecular point group: c1
    Full point group: C1

    Geometry (in Angstrom), charge = 0, multiplicity = 1:

       Center              X                  Y                   Z               Mass       
    ------------   -----------------  -----------------  -----------------  -----------------
           H         -3.067108846465    -1.318345067673    -0.333256511463     1.007825032070
           O         -2.246107704137    -0.966862734903    -0.624210518314    15.994914619560
           C         -2.006723450492     0.275717828513    -0.010342053547    12.000000000000
           C         -0.645571846148     0.776970384372    -0.448284024810    12.000000000000
           H         -2.775858040712     0.995340514947    -0.289745849339     1.007825032070
           H         -2.026087047445     0.173601887772     1.074667122532     1.007825032070
           C          0.517649738215    -0.155620187738    -0.056767957511    12.000000000000
           H         -0.685881319554     0.892881116093    -1.525988179070     1.007825032070
           H         -0.506785173856     1.766862127570    -0.022966536768     1.007825032070
           C          1.762785174217     0.589883206529     0.418084496359    12.000000000000
           H          0.777319192631    -0.799222298686    -0.890529288087     1.007825032070
           H          0.196416687610    -0.823819875821     0.736959256578     1.007825032070
           C          2.930527803160    -0.335969863883     0.745523743279    12.000000000000
           H          2.070282939523     1.300554378274    -0.345841099822     1.007825032070
           H          1.511323328836     1.178784159453     1.296820950190     1.007825032070
           H          3.228598196480    -0.912783135099    -0.124377211445     1.007825032070
           H          3.795225775325     0.224257680954     1.083128206462     1.007825032070
           H          2.664298916470    -1.037836214312     1.529627569662     1.007825032070

  Running in c1 symmetry.

  Rotational constants: A =      0.31485  B =      0.04576  C =      0.04254 [cm^-1]
  Rotational constants: A =   9439.04632  B =   1371.98454  C =   1275.32370 [MHz]
  Nuclear repulsion =  249.180810922154592

  Charge       = 0
  Multiplicity = 1
  Electrons    = 50
  Nalpha       = 25
  Nbeta        = 25

  ==> Algorithm <==

  SCF Algorithm Type is DF.
  DIIS enabled.
  MOM disabled.
  Fractional occupation disabled.
  Guess Type is READ.
  Energy threshold   = 1.00e-08
  Density threshold  = 1.00e-08
  Integral threshold = 0.00e+00

  ==> Primary Basis <==

  Basis Set: CC-PVTZ
    Number of shells: 132
    Number of basis function: 348
    Number of Cartesian functions: 390
    Spherical Harmonics?: true
    Max angular momentum: 3

  ==> Pre-Iterations <==

   -------------------------------------------------------
    Irrep   Nso     Nmo     Nalpha   Nbeta   Ndocc  Nsocc
   -------------------------------------------------------
     A        348     348       0       0       0       0
   -------------------------------------------------------
    Total     348     348      25      25      25       0
   -------------------------------------------------------

  ==> Integral Setup <==

  ==> DFJK: Density-Fitted J/K Matrices <==

    J tasked:                  Yes
    K tasked:                  Yes
    wK tasked:                  No
    OpenMP threads:              4
    Integrals threads:           4
    Memory (MB):              1430
    Algorithm:                Core
    Integral Cache:           NONE
    Schwarz Cutoff:          1E-12
    Fitting Condition:       1E-12

   => Auxiliary Basis Set <=

  Basis Set: 
    Number of shells: 270
    Number of basis function: 834
    Number of Cartesian functions: 996
    Spherical Harmonics?: true
    Max angular momentum: 4

  Minimum eigenvalue in the overlap matrix is 3.8118622566E-04.
  Using Symmetric Orthogonalization.
  SCF Guess: Reading in previously saved MOs, projecting if necessary.

  Using orbitals from previous SCF, no projection.
  Recomputing DOCC and SOCC from number of alpha and beta electrons from previous calculation.
              A 
    DOCC [    25 ]

  ==> Iterations <==

                           Total Energy        Delta E     RMS |[F,P]|

   @DF-RHF iter   0:  -271.26926358017465   -2.71269e+02   3.10380e-04 
   @DF-RHF iter   1:  -271.28260574999001   -1.33422e-02   5.31082e-05 
   @DF-RHF iter   2:  -271.28290408323619   -2.98333e-04   1.89003e-05 DIIS
   @DF-RHF iter   3:  -271.28294649367263   -4.24104e-05   8.06298e-06 DIIS
   @DF-RHF iter   4:  -271.28295111536750   -4.62169e-06   1.52200e-06 DIIS
   @DF-RHF iter   5:  -271.28295136278223   -2.47415e-07   5.76993e-07 DIIS
   @DF-RHF iter   6:  -271.28295140169564   -3.89134e-08   1.75866e-07 DIIS
   @DF-RHF iter   7:  -271.28295140562511   -3.92947e-09   4.81944e-08 DIIS
   @DF-RHF iter   8:  -271.28295140598493   -3.59819e-10   1.13490e-08 DIIS
   @DF-RHF iter   9:  -271.28295140600369   -1.87583e-11   3.87792e-09 DIIS

  ==> Post-Iterations <==

    Orbital Energies (a.u.)
    -----------------------

    Doubly Occupied:                                                      

       1A    -20.546154     2A    -11.266456     3A    -11.210838  
       4A    -11.210336     5A    -11.206260     6A    -11.203556  
       7A     -1.363168     8A     -1.074592     9A     -1.010056  
      10A     -0.914068    11A     -0.819948    12A     -0.784242  
      13A     -0.705009    14A     -0.650947    15A     -0.620360  
      16A     -0.577742    17A     -0.573805    18A     -0.559179  
      19A     -0.523744    20A     -0.507937    21A     -0.485599  
      22A     -0.467775    23A     -0.458073    24A     -0.449185  
      25A     -0.431681  

    Virtual:                                                              

      26A      0.140136    27A      0.151722    28A      0.166362  
      29A      0.176382    30A      0.192020    31A      0.197691  
      32A      0.221416    33A      0.233399    34A      0.235563  
      35A      0.246237    36A      0.253852    37A      0.272887  
      38A      0.324068    39A      0.325397    40A      0.341320  
      41A      0.362751    42A      0.376442    43A      0.390803  
      44A      0.432428    45A      0.438650    46A      0.450926  
      47A      0.476314    48A      0.493694    49A      0.501151  
      50A      0.525143    51A      0.555482    52A      0.557836  
      53A      0.577771    54A      0.591106    55A      0.598891  
      56A      0.618287    57A      0.629805    58A      0.636530  
      59A      0.647298    60A      0.649088    61A      0.664271  
      62A      0.671026    63A      0.678998    64A      0.689373  
      65A      0.695486    66A      0.701565    67A      0.710692  
      68A      0.715028    69A      0.731858    70A      0.766159  
      71A      0.773569    72A      0.794635    73A      0.828706  
      74A      0.857560    75A      0.863404    76A      0.872164  
      77A      0.895892    78A      0.944669    79A      0.952683  
      80A      0.974033    81A      0.997023    82A      1.024331  
      83A      1.042064    84A      1.054712    85A      1.069771  
      86A      1.090017    87A      1.103005    88A      1.138250  
      89A      1.151200    90A      1.168761    91A      1.195044  
      92A      1.207598    93A      1.222538    94A      1.252733  
      95A      1.273193    96A      1.287678    97A      1.289778  
      98A      1.300374    99A      1.311890   100A      1.322372  
     101A      1.333212   102A      1.346195   103A      1.362766  
     104A      1.363723   105A      1.372139   106A      1.387790  
     107A      1.405405   108A      1.407956   109A      1.438883  
     110A      1.449416   111A      1.461541   112A      1.486941  
     113A      1.491520   114A      1.504830   115A      1.506847  
     116A      1.534150   117A      1.537973   118A      1.566001  
     119A      1.581936   120A      1.591265   121A      1.608232  
     122A      1.624313   123A      1.632471   124A      1.644355  
     125A      1.674941   126A      1.681292   127A      1.708119  
     128A      1.718469   129A      1.758689   130A      1.785108  
     131A      1.798875   132A      1.802055   133A      1.824953  
     134A      1.854511   135A      1.888682   136A      1.911357  
     137A      1.935665   138A      1.949676   139A      2.075456  
     140A      2.159639   141A      2.284586   142A      2.317145  
     143A      2.382622   144A      2.405851   145A      2.519775  
     146A      2.581823   147A      2.612769   148A      2.631099  
     149A      2.643290   150A      2.687681   151A      2.694742  
     152A      2.704724   153A      2.728463   154A      2.756356  
     155A      2.778236   156A      2.796415   157A      2.828428  
     158A      2.846844   159A      2.861678   160A      2.875577  
     161A      2.891169   162A      2.910282   163A      2.927219  
     164A      2.938742   165A      2.971769   166A      3.017104  
     167A      3.040740   168A      3.056594   169A      3.065956  
     170A      3.077946   171A      3.127080   172A      3.135521  
     173A      3.147850   174A      3.174420   175A      3.198478  
     176A      3.214453   177A      3.232054   178A      3.237356  
     179A      3.278941   180A      3.288668   181A      3.302166  
     182A      3.320279   183A      3.330299   184A      3.338834  
     185A      3.347475   186A      3.360091   187A      3.368996  
     188A      3.398675   189A      3.404096   190A      3.417628  
     191A      3.426525   192A      3.438325   193A      3.446065  
     194A      3.455958   195A      3.465691   196A      3.485015  
     197A      3.493562   198A      3.513834   199A      3.523803  
     200A      3.541572   201A      3.547390   202A      3.569145  
     203A      3.584295   204A      3.605795   205A      3.611477  
     206A      3.633937   207A      3.671637   208A      3.677698  
     209A      3.686596   210A      3.731492   211A      3.760331  
     212A      3.768885   213A      3.781476   214A      3.784158  
     215A      3.803386   216A      3.831683   217A      3.840439  
     218A      3.854448   219A      3.865959   220A      3.870729  
     221A      3.887535   222A      3.912646   223A      3.919919  
     224A      3.947227   225A      3.973364   226A      3.991106  
     227A      4.013173   228A      4.037033   229A      4.053798  
     230A      4.063666   231A      4.106439   232A      4.111830  
     233A      4.117916   234A      4.145827   235A      4.147219  
     236A      4.161257   237A      4.181656   238A      4.190654  
     239A      4.196441   240A      4.213928   241A      4.220196  
     242A      4.244623   243A      4.262126   244A      4.273158  
     245A      4.282049   246A      4.306422   247A      4.329079  
     248A      4.335110   249A      4.359411   250A      4.371018  
     251A      4.384210   252A      4.396981   253A      4.406160  
     254A      4.415061   255A      4.425449   256A      4.465839  
     257A      4.472883   258A      4.501152   259A      4.507540  
     260A      4.520456   261A      4.528590   262A      4.548423  
     263A      4.566562   264A      4.579153   265A      4.599415  
     266A      4.616236   267A      4.638325   268A      4.653023  
     269A      4.662539   270A      4.677744   271A      4.703368  
     272A      4.716375   273A      4.745175   274A      4.773073  
     275A      4.782042   276A      4.793653   277A      4.833613  
     278A      4.876602   279A      4.900907   280A      4.929468  
     281A      5.001333   282A      5.019143   283A      5.031927  
     284A      5.070671   285A      5.081514   286A      5.102383  
     287A      5.129344   288A      5.160056   289A      5.184280  
     290A      5.203615   291A      5.230041   292A      5.245110  
     293A      5.251353   294A      5.275009   295A      5.285651  
     296A      5.315035   297A      5.323669   298A      5.375363  
     299A      5.380331   300A      5.398374   301A      5.449186  
     302A      5.484014   303A      5.524556   304A      5.539943  
     305A      5.561048   306A      5.586192   307A      5.599006  
     308A      5.658360   309A      5.725186   310A      5.738320  
     311A      5.747951   312A      5.758007   313A      5.784605  
     314A      5.800413   315A      5.843464   316A      5.854019  
     317A      5.869229   318A      5.881546   319A      5.913127  
     320A      5.935077   321A      5.954539   322A      5.975000  
     323A      6.008822   324A      6.047435   325A      6.131369  
     326A      6.261332   327A      6.315259   328A      6.332709  
     329A      6.350570   330A      6.354394   331A      6.402087  
     332A      6.487088   333A      6.492242   334A      6.691625  
     335A      7.094141   336A      7.174469   337A      7.247810  
     338A      7.290000   339A      7.444055   340A      7.552776  
     341A      7.744051   342A      8.042550   343A     12.712852  
     344A     13.076844   345A     13.430665   346A     13.611667  
     347A     14.005565   348A     14.257758  

    Final Occupation by Irrep:
              A 
    DOCC [    25 ]

  Energy converged.

  @DF-RHF Final Energy:  -271.28295140600369

   => Energetics <=

    Nuclear Repulsion Energy =            249.1808109221545919
    One-Electron Energy =                -861.6861051968880929
    Two-Electron Energy =                 341.2223428687296973
    DFT Exchange-Correlation Energy =       0.0000000000000000
    Empirical Dispersion Energy =           0.0000000000000000
    PCM Polarization Energy =               0.0000000000000000
    EFP Energy =                            0.0000000000000000
    Total Energy =                       -271.2829514060038036


  Saving occupied orbitals to File 180.

*** tstop() called on cx1-27-1-3 at Sat Sep 10 16:52:56 2016
Module time:
	user time   =      22.15 seconds =       0.37 minutes
	system time =       0.56 seconds =       0.01 minutes
	total time  =          7 seconds =       0.12 minutes
Total time:
	user time   =      81.43 seconds =       1.36 minutes
	system time =       1.95 seconds =       0.03 minutes
	total time  =         24 seconds =       0.40 minutes


Properties will be evaluated at   0.000000,   0.000000,   0.000000 Bohr

Properties computed using the SCF density matrix

  Nuclear Dipole Moment: (a.u.)
     X:     4.8469      Y:     1.5331      Z:     2.0487

  Electronic Dipole Moment: (a.u.)
     X:    -5.2518      Y:    -1.2798      Z:    -1.6692

  Dipole Moment: (a.u.)
     X:    -0.4049      Y:     0.2533      Z:     0.3794     Total:     0.6100

  Dipole Moment: (Debye)
     X:    -1.0291      Y:     0.6438      Z:     0.9644     Total:     1.5503


*** tstart() called on cx1-27-1-3
*** at Sat Sep 10 16:52:56 2016


         ------------------------------------------------------------
                                   SCF GRAD                          
                          Rob Parrish, Justin Turney,                
                       Andy Simmonett, and Alex Sokolov              
         ------------------------------------------------------------

  ==> Geometry <==

    Molecular point group: c1
    Full point group: C1

    Geometry (in Angstrom), charge = 0, multiplicity = 1:

       Center              X                  Y                   Z               Mass       
    ------------   -----------------  -----------------  -----------------  -----------------
           H         -3.067108846465    -1.318345067673    -0.333256511463     1.007825032070
           O         -2.246107704137    -0.966862734903    -0.624210518314    15.994914619560
           C         -2.006723450492     0.275717828513    -0.010342053547    12.000000000000
           C         -0.645571846148     0.776970384372    -0.448284024810    12.000000000000
           H         -2.775858040712     0.995340514947    -0.289745849339     1.007825032070
           H         -2.026087047445     0.173601887772     1.074667122532     1.007825032070
           C          0.517649738215    -0.155620187738    -0.056767957511    12.000000000000
           H         -0.685881319554     0.892881116093    -1.525988179070     1.007825032070
           H         -0.506785173856     1.766862127570    -0.022966536768     1.007825032070
           C          1.762785174217     0.589883206529     0.418084496359    12.000000000000
           H          0.777319192631    -0.799222298686    -0.890529288087     1.007825032070
           H          0.196416687610    -0.823819875821     0.736959256578     1.007825032070
           C          2.930527803160    -0.335969863883     0.745523743279    12.000000000000
           H          2.070282939523     1.300554378274    -0.345841099822     1.007825032070
           H          1.511323328836     1.178784159453     1.296820950190     1.007825032070
           H          3.228598196480    -0.912783135099    -0.124377211445     1.007825032070
           H          3.795225775325     0.224257680954     1.083128206462     1.007825032070
           H          2.664298916470    -1.037836214312     1.529627569662     1.007825032070

  Nuclear repulsion =  249.180810922154592

  ==> Basis Set <==

  Basis Set: CC-PVTZ
    Number of shells: 132
    Number of basis function: 348
    Number of Cartesian functions: 390
    Spherical Harmonics?: true
    Max angular momentum: 3

  ==> DFJKGrad: Density-Fitted SCF Gradients <==

    Gradient:                    1
    J tasked:                  Yes
    K tasked:                  Yes
    wK tasked:                  No
    OpenMP threads:              4
    Integrals threads:           4
    Memory (MB):              1430
    Schwarz Cutoff:          0E+00
    Fitting Condition:       1E-12

   => Auxiliary Basis Set <=

  Basis Set: 
    Number of shells: 270
    Number of basis function: 834
    Number of Cartesian functions: 996
    Spherical Harmonics?: true
    Max angular momentum: 4


  -Total Gradient:
     Atom            X                  Y                   Z
    ------   -----------------  -----------------  -----------------
       1       -0.000112745547     0.000014518344     0.000099285546
       2        0.000646589087    -0.002065577312    -0.000842205603
       3        0.000034014083     0.002206986214    -0.001613530696
       4        0.001254094052     0.002782700468     0.002254529688
       5       -0.001371095334     0.001285946898    -0.000148484201
       6        0.000773652387     0.000192468966     0.001011092118
       7        0.001015515761    -0.000452448060    -0.003074004747
       8       -0.002923921661    -0.002314277391     0.000038251581
       9       -0.000941328378     0.000692816633    -0.000228449716
      10       -0.000762346471    -0.001179615949     0.002469921230
      11        0.001138708335    -0.000854479987     0.000026343176
      12        0.000735438952    -0.000235536835     0.000006892816
      13        0.000660986751     0.000174257024     0.000125419486
      14       -0.000246046679     0.000124376646    -0.000371711045
      15       -0.000153940076     0.000061397765     0.000315215965
      16        0.000165456555    -0.000282099114    -0.000320751242
      17        0.000162754876    -0.000043417851     0.000031063116
      18       -0.000075786696    -0.000108016462     0.000221122530


*** tstop() called on cx1-27-1-3 at Sat Sep 10 16:53:04 2016
Module time:
	user time   =      28.70 seconds =       0.48 minutes
	system time =       0.60 seconds =       0.01 minutes
	total time  =          8 seconds =       0.13 minutes
Total time:
	user time   =     110.21 seconds =       1.84 minutes
	system time =       2.55 seconds =       0.04 minutes
	total time  =         32 seconds =       0.53 minutes

			-----------------------------------------
			 OPTKING 2.0: for geometry optimizations 
			  - R.A. King,  Bethel University        
			-----------------------------------------

	Previous internal coordinate definitions found.
	---Fragment 1 Geometry and Gradient---
	 H          -5.7959957396       -2.4913111265       -0.6297635387
	 O          -4.2445284258       -1.8271057771       -1.1795869289
	 C          -3.7921577459        0.5210311858       -0.0195436489
	 C          -1.2199539883        1.4682612398       -0.8471340366
	 H          -5.2456114807        1.8809209822       -0.5475403034
	 H          -3.8287496411        0.3280600240        2.0308265456
	 C           0.9782162380       -0.2940795356       -0.1072758928
	 H          -1.2961278536        1.6873007786       -2.8836997405
	 H          -0.9576851868        3.3388855357       -0.0434004647
	 C           3.3311812104        1.1147177107        0.7900651985
	 H           1.4689203919       -1.5103112638       -1.6828564678
	 H           0.3711737475       -1.5567939481        1.3926511660
	 C           5.5378949728       -0.6348910316        1.4088357004
	 H           3.9122677733        2.4576915959       -0.6535449642
	 H           2.8559871897        2.2275792312        2.4506364392
	 H           6.1011663845       -1.7249101441       -0.2350388668
	 H           7.1719373278        0.4237856002        2.0468156770
	 H           5.0347952883       -1.9612262158        2.8905771920
	            -0.0001127455        0.0000145183        0.0000992855
	             0.0006465891       -0.0020655773       -0.0008422056
	             0.0000340141        0.0022069862       -0.0016135307
	             0.0012540941        0.0027827005        0.0022545297
	            -0.0013710953        0.0012859469       -0.0001484842
	             0.0007736524        0.0001924690        0.0010110921
	             0.0010155158       -0.0004524481       -0.0030740047
	            -0.0029239217       -0.0023142774        0.0000382516
	            -0.0009413284        0.0006928166       -0.0002284497
	            -0.0007623465       -0.0011796159        0.0024699212
	             0.0011387083       -0.0008544800        0.0000263432
	             0.0007354390       -0.0002355368        0.0000068928
	             0.0006609868        0.0001742570        0.0001254195
	            -0.0002460467        0.0001243766       -0.0003717110
	            -0.0001539401        0.0000613978        0.0003152160
	             0.0001654566       -0.0002820991       -0.0003207512
	             0.0001627549       -0.0000434179        0.0000310631
	            -0.0000757867       -0.0001080165        0.0002211225

	---Fragment 1 Intrafragment Coordinates---
	 - Coordinate -           - BOHR/RAD -       - ANG/DEG -
	 R(1,2)           =         1.774972	       0.939275
	 R(2,3)           =         2.657835	       1.406466
	 R(3,4)           =         2.863282	       1.515183
	 R(3,5)           =         2.059274	       1.089721
	 R(3,6)           =         2.059756	       1.089976
	 R(4,7)           =         2.912935	       1.541459
	 R(4,8)           =         2.049727	       1.084669
	 R(4,9)           =         2.052805	       1.086298
	 R(7,10)          =         2.885546	       1.526965
	 R(7,11)          =         2.049991	       1.084809
	 R(7,12)          =         2.052493	       1.086133
	 R(10,13)         =         2.883330	       1.525793
	 R(10,14)         =         2.055541	       1.087746
	 R(10,15)         =         2.054694	       1.087297
	 R(13,16)         =         2.051278	       1.085489
	 R(13,17)         =         2.048880	       1.084221
	 R(13,18)         =         2.051300	       1.085501
	 B(1,2,3)         =         1.922154	     110.131321
	 B(2,3,4)         =         1.895490	     108.603597
	 B(2,3,5)         =         1.929847	     110.572105
	 B(2,3,6)         =         1.926958	     110.406562
	 B(3,4,7)         =         1.987064	     113.850384
	 B(3,4,8)         =         1.864132	     106.806897
	 B(3,4,9)         =         1.878706	     107.641943
	 B(4,3,5)         =         1.919292	     109.967314
	 B(4,3,6)         =         1.912052	     109.552534
	 B(4,7,10)        =         1.981168	     113.512592
	 B(4,7,11)        =         1.922356	     110.142911
	 B(4,7,12)        =         1.912010	     109.550089
	 B(5,3,6)         =         1.880273	     107.731713
	 B(7,4,8)         =         1.923095	     110.185237
	 B(7,4,9)         =         1.934199	     110.821413
	 B(7,10,13)       =         1.976384	     113.238479
	 B(7,10,14)       =         1.908260	     109.335253
	 B(7,10,15)       =         1.904107	     109.097275
	 B(8,4,9)         =         1.871701	     107.240571
	 B(10,7,11)       =         1.910789	     109.480119
	 B(10,7,12)       =         1.890489	     108.317035
	 B(10,13,16)      =         1.939731	     111.138420
	 B(10,13,17)      =         1.942990	     111.325141
	 B(10,13,18)      =         1.938698	     111.079237
	 B(11,7,12)       =         1.841557	     105.513430
	 B(13,10,14)      =         1.907959	     109.317989
	 B(13,10,15)      =         1.909450	     109.403429
	 B(14,10,15)      =         1.853658	     106.206797
	 B(16,13,17)      =         1.880851	     107.764847
	 B(16,13,18)      =         1.878259	     107.616290
	 B(17,13,18)      =         1.880497	     107.744569
	 D(1,2,3,4)       =         3.091981	     177.157453
	 D(1,2,3,5)       =        -1.083842	     -62.099560
	 D(1,2,3,6)       =         0.995281	      57.025423
	 D(2,3,4,7)       =        -1.059410	     -60.699743
	 D(2,3,4,8)       =         1.067212	      61.146752
	 D(2,3,4,9)       =         3.072499	     176.041229
	 D(3,4,7,10)      =        -2.444194	    -140.041976
	 D(3,4,7,11)      =         1.689477	      96.799904
	 D(3,4,7,12)      =        -0.328659	     -18.830780
	 D(4,7,10,13)     =        -3.097384	    -177.467029
	 D(4,7,10,14)     =        -0.965382	     -55.312301
	 D(4,7,10,15)     =         1.054899	      60.441286
	 D(5,3,4,7)       =         3.109906	     178.184502
	 D(5,3,4,8)       =        -1.046657	     -59.969003
	 D(5,3,4,9)       =         0.958630	      54.925474
	 D(6,3,4,7)       =         1.046527	      59.961590
	 D(6,3,4,8)       =        -3.110036	    -178.191915
	 D(6,3,4,9)       =        -1.104749	     -63.297438
	 D(7,10,13,16)    =         1.049213	      60.115490
	 D(7,10,13,17)    =        -3.137144	    -179.745094
	 D(7,10,13,18)    =        -1.041461	     -59.671322
	*D(8,4,7,10)      =         1.745330	     100.000029
	 D(8,4,7,11)      =        -0.404185	     -23.158092
	 D(8,4,7,12)      =        -2.422321	    -138.788776
	 D(9,4,7,10)      =        -0.323446	     -18.532098
	 D(9,4,7,11)      =        -2.472961	    -141.690218
	 D(9,4,7,12)      =         1.792088	     102.679098
	 D(11,7,10,13)    =        -0.941535	     -53.945959
	 D(11,7,10,14)    =         1.190468	      68.208769
	 D(11,7,10,15)    =        -3.072436	    -176.037644
	 D(12,7,10,13)    =         1.058246	      60.633023
	 D(12,7,10,14)    =        -3.092937	    -177.212249
	 D(12,7,10,15)    =        -1.072656	     -61.458661
	 D(14,10,13,16)   =        -1.082957	     -62.048868
	 D(14,10,13,17)   =         1.013871	      58.090549
	 D(14,10,13,18)   =         3.109554	     178.164321
	 D(15,10,13,16)   =        -3.106056	    -177.963886
	 D(15,10,13,17)   =        -1.009227	     -57.824470
	 D(15,10,13,18)   =         1.086455	      62.249303

	Current energy   :      -271.2829514060

	Energy change for the previous step:
		Projected    :        -0.0001328013
		Actual       :        -0.0002180634
	Energy ratio indicates good step: Trust radius increased to 1.000e+00.


	Performing BFGS update.
	Previous computed or guess Hessian on step 1.
	Steps to be used in Hessian update: 1
	Taking RFO optimization step.
	Going to follow RFO solution 1.
	Using RFO vector 1.
	Norm of target step-size    0.08725
	Projected energy change by RFO approximation:        -0.0004832851

	Back-transformation to cartesian coordinates...
	Could not converge backtransformation.
	Using first guess instead.

	Back-transformation to cartesian coordinates to adjust frozen coordinates...
	Successfully converged to displaced geometry.

	--- Internal Coordinate Step in ANG or DEG, aJ/ANG or AJ/DEG ---
	 ---------------------------------------------------------------------------
	   Coordinate                Previous        Force       Change         New 
	   ----------                --------       ------       ------       ------
	    1 R(1,2)          =      0.939275    -0.001021    -0.000112     0.939163
	    2 R(2,3)          =      1.406466    -0.016852    -0.002014     1.404452
	    3 R(3,4)          =      1.515183     0.007793     0.001007     1.516191
	    4 R(3,5)          =      1.089721    -0.015283    -0.002283     1.087438
	    5 R(3,6)          =      1.089976    -0.008030    -0.001256     1.088720
	    6 R(4,7)          =      1.541459    -0.029159    -0.003747     1.537712
	    7 R(4,8)          =      1.084669     0.001455     0.000117     1.084786
	    8 R(4,9)          =      1.086298    -0.003474    -0.000505     1.085793
	    9 R(7,10)         =      1.526965     0.000384     0.000062     1.527027
	   10 R(7,11)         =      1.084809    -0.006255    -0.000997     1.083811
	   11 R(7,12)         =      1.086133     0.000557    -0.000103     1.086029
	   12 R(10,13)        =      1.525793    -0.007156    -0.001125     1.524667
	   13 R(10,14)        =      1.087746    -0.002247    -0.000287     1.087459
	   14 R(10,15)        =      1.087297    -0.002666    -0.000402     1.086895
	   15 R(13,16)        =      1.085489    -0.003727    -0.000554     1.084936
	   16 R(13,17)        =      1.084221    -0.000964    -0.000103     1.084117
	   17 R(13,18)        =      1.085501    -0.002044    -0.000323     1.085178
	   18 B(1,2,3)        =    110.131321     0.000011     0.035885   110.167206
	   19 B(2,3,4)        =    108.603597     0.000071     0.173155   108.776752
	   20 B(2,3,5)        =    110.572105    -0.000042    -0.301573   110.270532
	   21 B(2,3,6)        =    110.406562    -0.000041     0.012629   110.419190
	   22 B(3,4,7)        =    113.850384    -0.000100    -0.276567   113.573817
	   23 B(3,4,8)        =    106.806897     0.000071     0.360226   107.167123
	   24 B(3,4,9)        =    107.641943     0.000072     0.187032   107.828975
	   25 B(4,3,5)        =    109.967314    -0.000049    -0.242530   109.724783
	   26 B(4,3,6)        =    109.552534     0.000063     0.405184   109.957719
	   27 B(4,7,10)       =    113.512592    -0.000069    -0.192501   113.320091
	   28 B(4,7,11)       =    110.142911    -0.000034    -0.227591   109.915320
	   29 B(4,7,12)       =    109.550089    -0.000016    -0.218403   109.331685
	   30 B(5,3,6)        =    107.731713    -0.000003    -0.047390   107.684323
	   31 B(7,4,8)        =    110.185237    -0.000002    -0.048633   110.136604
	   32 B(7,4,9)        =    110.821413    -0.000036    -0.366058   110.455355
	   33 B(7,10,13)      =    113.238479    -0.000053    -0.124401   113.114078
	   34 B(7,10,14)      =    109.335253     0.000038     0.198355   109.533608
	   35 B(7,10,15)      =    109.097275     0.000015    -0.005800   109.091476
	   36 B(8,4,9)        =    107.240571     0.000005     0.196548   107.437119
	   37 B(10,7,11)      =    109.480119     0.000078     0.361038   109.841157
	   38 B(10,7,12)      =    108.317035     0.000043     0.158323   108.475358
	   39 B(10,13,16)     =    111.138420    -0.000007    -0.025192   111.113228
	   40 B(10,13,17)     =    111.325141    -0.000013    -0.034782   111.290359
	   41 B(10,13,18)     =    111.079237     0.000008     0.023191   111.102428
	   42 B(11,7,12)      =    105.513430     0.000005     0.147132   105.660562
	   43 B(13,10,14)     =    109.317989     0.000004     0.004833   109.322823
	   44 B(13,10,15)     =    109.403429     0.000012    -0.039787   109.363642
	   45 B(14,10,15)     =    106.206797    -0.000013    -0.027420   106.179377
	   46 B(16,13,17)     =    107.764847     0.000008     0.010346   107.775193
	   47 B(16,13,18)     =    107.616290     0.000000     0.005310   107.621601
	   48 B(17,13,18)     =    107.744569     0.000004     0.023425   107.767994
	   49 D(1,2,3,4)      =    177.157453     0.000011     0.327537   177.484990
	   50 D(1,2,3,5)      =    -62.099560     0.000001    -0.046193   -62.145754
	   51 D(1,2,3,6)      =     57.025423    -0.000012    -0.287558    56.737865
	   52 D(2,3,4,7)      =    -60.699743    -0.000011    -1.485692   -62.185435
	   53 D(2,3,4,8)      =     61.146752    -0.000014    -1.467370    59.679381
	   54 D(2,3,4,9)      =    176.041229     0.000003    -0.969738   175.071491
	   55 D(3,4,7,10)     =   -140.041976     0.000005     0.240487  -139.801489
	   56 D(3,4,7,11)     =     96.799904    -0.000001     0.079745    96.879649
	   57 D(3,4,7,12)     =    -18.830780     0.000004     0.156385   -18.674395
	   58 D(4,7,10,13)    =   -177.467029    -0.000002    -1.178890  -178.645919
	   59 D(4,7,10,14)    =    -55.312301    -0.000003    -1.113668   -56.425969
	   60 D(4,7,10,15)    =     60.441286     0.000000    -1.039649    59.401638
	   61 D(5,3,4,7)      =    178.184502    -0.000002    -1.075864   177.108637
	   62 D(5,3,4,8)      =    -59.969003    -0.000006    -1.057543   -61.026546
	   63 D(5,3,4,9)      =     54.925474     0.000012    -0.559910    54.365563
	   64 D(6,3,4,7)      =     59.961590    -0.000003    -1.116256    58.845334
	   65 D(6,3,4,8)      =   -178.191915    -0.000007    -1.097934  -179.289849
	   66 D(6,3,4,9)      =    -63.297438     0.000010    -0.600302   -63.897740
	   67 D(7,10,13,16)   =     60.115490     0.000002     0.560954    60.676444
	   68 D(7,10,13,17)   =   -179.745094     0.000002     0.533642  -179.211452
	   69 D(7,10,13,18)   =    -59.671322     0.000002     0.555576   -59.115746
	   70 *D(8,4,7,10)    =    100.000029     0.000000    -0.000000   100.000029
	   71 D(8,4,7,11)     =    -23.158092    -0.000006    -0.160742   -23.318834
	   72 D(8,4,7,12)     =   -138.788776    -0.000001    -0.084102  -138.872878
	   73 D(9,4,7,10)     =    -18.532098     0.000004     0.015381   -18.516717
	   74 D(9,4,7,11)     =   -141.690218    -0.000002    -0.145361  -141.835580
	   75 D(9,4,7,12)     =    102.679098     0.000003    -0.068721   102.610377
	   76 D(11,7,10,13)   =    -53.945959    -0.000010    -1.340336   -55.286295
	   77 D(11,7,10,14)   =     68.208769    -0.000011    -1.275114    66.933655
	   78 D(11,7,10,15)   =   -176.037644    -0.000007    -1.201095  -177.238739
	   79 D(12,7,10,13)   =     60.633023     0.000006    -0.887066    59.745957
	   80 D(12,7,10,14)   =   -177.212249     0.000005    -0.821844  -178.034093
	   81 D(12,7,10,15)   =    -61.458661     0.000009    -0.747825   -62.206486
	   82 D(14,10,13,16)  =    -62.048868    -0.000001     0.387662   -61.661206
	   83 D(14,10,13,17)  =     58.090549    -0.000002     0.360350    58.450898
	   84 D(14,10,13,18)  =    178.164321    -0.000001     0.382283   178.546604
	   85 D(15,10,13,16)  =   -177.963886     0.000001     0.440128  -177.523758
	   86 D(15,10,13,17)  =    -57.824470    -0.000000     0.412816   -57.411654
	   87 D(15,10,13,18)  =     62.249303     0.000000     0.434750    62.684052
	 ---------------------------------------------------------------------------
	Successfully symmetrized geometry.

  ==> Convergence Check <==

  Measures of convergence in internal coordinates in au.
  Criteria marked as inactive (o), active & met (*), and active & unmet ( ).
  ---------------------------------------------------------------------------------------------
   Step     Total Energy     Delta E     MAX Force     RMS Force      MAX Disp      RMS Disp   
  ---------------------------------------------------------------------------------------------
    Convergence Criteria    1.00e-06 *    3.00e-04 *             o    1.20e-03 *             o
  ---------------------------------------------------------------------------------------------
      2    -271.28295141   -2.18e-04      3.54e-03      6.64e-04 o    2.59e-02      9.36e-03 o  ~
  ---------------------------------------------------------------------------------------------

	Writing optimization data to binary file.
	Structure for next step:
	Cartesian Geometry (in Angstrom)
	    H    -3.0772459363  -1.3084952518  -0.3416508470
	    O    -2.2572940155  -0.9575336925  -0.6358131421
	    C    -1.9990827709   0.2678376544   0.0000139974
	    C    -0.6426462097   0.7746229234  -0.4495223620
	    H    -2.7660439772   0.9946284815  -0.2570193256
	    H    -2.0098073788   0.1442085984   1.0816386580
	    C     0.5196744498  -0.1561505713  -0.0658184167
	    H    -0.6861050706   0.8931633553  -1.5269357917
	    H    -0.4969332325   1.7608386520  -0.0192995025
	    C     1.7636690451   0.5931982692   0.4061625059
	    H     0.7715835685  -0.7966338222  -0.9030578742
	    H     0.1983852343  -0.8240802682   0.7279719066
	    C     2.9240301354  -0.3325972635   0.7541206745
	    H     2.0802256387   1.2933263176  -0.3633689539
	    H     1.5085337391   1.1936413299   1.2754813502
	    H     3.2309468887  -0.9155184882  -0.1079063764
	    H     3.7856242952   0.2283191629   1.0981247584
	    H     2.6467899202  -1.0283814806   1.5393808560
			--------------------------
			 OPTKING Finished Execution 
			--------------------------

    Structure for next step:
    Molecular point group: c1
    Full point group: C1

    Geometry (in Angstrom), charge = 0, multiplicity = 1:

    H           -3.076213395321    -1.309574539014    -0.339270295913
    O           -2.256261474527    -0.958612979760    -0.633432591026
    C           -1.998050229924     0.266758367175     0.002394548459
[...]
	             0.0000091187       -0.0000050513        0.0000058052
	            -0.0000062401       -0.0000062213        0.0000022270
	            -0.0000073277       -0.0000030797       -0.0000085115
	            -0.0000021573        0.0000045707        0.0000053004
	             0.0000036103       -0.0000034180        0.0000020524
	             0.0000011479        0.0000010471       -0.0000036335

	---Fragment 1 Intrafragment Coordinates---
	 - Coordinate -           - BOHR/RAD -       - ANG/DEG -
	 R(1,2)           =         1.774677	       0.939119
	 R(2,3)           =         2.652981	       1.403897
	 R(3,4)           =         2.865647	       1.516435
	 R(3,5)           =         2.054747	       1.087325
	 R(3,6)           =         2.056723	       1.088371
	 R(4,7)           =         2.905204	       1.537368
	 R(4,8)           =         2.049754	       1.084683
	 R(4,9)           =         2.051373	       1.085540
	 R(7,10)          =         2.885226	       1.526796
	 R(7,11)          =         2.047902	       1.083703
	 R(7,12)          =         2.052626	       1.086203
	 R(10,13)         =         2.881168	       1.524648
	 R(10,14)         =         2.054673	       1.087286
	 R(10,15)         =         2.053751	       1.086798
	 R(13,16)         =         2.050066	       1.084848
	 R(13,17)         =         2.048703	       1.084127
	 R(13,18)         =         2.050535	       1.085096
	 B(1,2,3)         =         1.923473	     110.206869
	 B(2,3,4)         =         1.897983	     108.746430
	 B(2,3,5)         =         1.926258	     110.366427
	 B(2,3,6)         =         1.927422	     110.433159
	 B(3,4,7)         =         1.982115	     113.566841
	 B(3,4,8)         =         1.869821	     107.132878
	 B(3,4,9)         =         1.882855	     107.879652
	 B(4,3,5)         =         1.915200	     109.732881
	 B(4,3,6)         =         1.917755	     109.879292
	 B(4,7,10)        =         1.977846	     113.322229
	 B(4,7,11)        =         1.917392	     109.858469
	 B(4,7,12)        =         1.908106	     109.326415
	 B(5,3,6)         =         1.879285	     107.675119
	 B(7,4,8)         =         1.921919	     110.117871
	 B(7,4,9)         =         1.926984	     110.408050
	 B(7,10,13)       =         1.974534	     113.132439
	 B(7,10,14)       =         1.911615	     109.527470
	 B(7,10,15)       =         1.903378	     109.055516
	 B(8,4,9)         =         1.876223	     107.499659
	 B(10,7,11)       =         1.917437	     109.861029
	 B(10,7,12)       =         1.892898	     108.455073
	 B(10,13,16)      =         1.939279	     111.112487
	 B(10,13,17)      =         1.942735	     111.310490
	 B(10,13,18)      =         1.939187	     111.107239
	 B(11,7,12)       =         1.845266	     105.725936
	 B(13,10,14)      =         1.907821	     109.310081
	 B(13,10,15)      =         1.909418	     109.401593
	 B(14,10,15)      =         1.853132	     106.176668
	 B(16,13,17)      =         1.880878	     107.766360
	 B(16,13,18)      =         1.878175	     107.611525
	 B(17,13,18)      =         1.880788	     107.761187
	 D(1,2,3,4)       =         3.094558	     177.305122
	 D(1,2,3,5)       =        -1.086924	     -62.276137
	 D(1,2,3,6)       =         0.988996	      56.665273
	 D(2,3,4,7)       =        -1.084000	     -62.108601
	 D(2,3,4,8)       =         1.042031	      59.704002
	 D(2,3,4,9)       =         3.057408	     175.176580
	 D(3,4,7,10)      =        -2.441081	    -139.863639
	 D(3,4,7,11)      =         1.690053	      96.832910
	 D(3,4,7,12)      =        -0.327508	     -18.764817
	 D(4,7,10,13)     =        -3.118388	    -178.670463
	 D(4,7,10,14)     =        -0.985391	     -56.458743
	 D(4,7,10,15)     =         1.035714	      59.342024
	 D(5,3,4,7)       =         3.090662	     177.081913
	 D(5,3,4,8)       =        -1.066492	     -61.105483
	 D(5,3,4,9)       =         0.948885	      54.367095
	 D(6,3,4,7)       =         1.027513	      58.872153
	 D(6,3,4,8)       =        -3.129641	    -179.315243
	 D(6,3,4,9)       =        -1.114265	     -63.842666
	 D(7,10,13,16)    =         1.056010	      60.504912
	 D(7,10,13,17)    =        -3.130791	    -179.381133
	 D(7,10,13,18)    =        -1.034584	     -59.277273
	*D(8,4,7,10)      =         1.745330	     100.000029
	 D(8,4,7,11)      =        -0.406721	     -23.303423
	 D(8,4,7,12)      =        -2.424282	    -138.901149
	 D(9,4,7,10)      =        -0.323809	     -18.552900
	 D(9,4,7,11)      =        -2.475860	    -141.856352
	 D(9,4,7,12)      =         1.789764	     102.545922
	 D(11,7,10,13)    =        -0.966361	     -55.368419
	 D(11,7,10,14)    =         1.166636	      66.843301
	 D(11,7,10,15)    =        -3.095445	    -177.355932
	 D(12,7,10,13)    =         1.042680	      59.741144
	 D(12,7,10,14)    =        -3.107509	    -178.047135
	 D(12,7,10,15)    =        -1.086404	     -62.246368
	 D(14,10,13,16)   =        -1.079105	     -61.828162
	 D(14,10,13,17)   =         1.017279	      58.285792
	 D(14,10,13,18)   =         3.113487	     178.389652
	 D(15,10,13,16)   =        -3.101478	    -177.701576
	 D(15,10,13,17)   =        -1.005094	     -57.587622
	 D(15,10,13,18)   =         1.091114	      62.516239

	Current energy   :      -271.2830414233

	Energy change for the previous step:
		Projected    :        -0.0000017177
		Actual       :        -0.0000002306
	Energy ratio indicates iffy step: Trust radius decreased to 1.562e-02.


	Performing BFGS update.
	Previous computed or guess Hessian on step 1.
	Steps to be used in Hessian update: 4 3
	Taking RFO optimization step.
	Going to follow RFO solution 1.
	Rejecting RFO root 1 because normalization gives large value.
	Using RFO vector 2.
	Norm of target step-size    0.00319
	Projected energy change by RFO approximation:        -0.0000000523

	Back-transformation to cartesian coordinates...
	Could not converge backtransformation.
	Using first guess instead.

	Back-transformation to cartesian coordinates to adjust frozen coordinates...
	Successfully converged to displaced geometry.

	--- Internal Coordinate Step in ANG or DEG, aJ/ANG or AJ/DEG ---
	 ---------------------------------------------------------------------------
	   Coordinate                Previous        Force       Change         New 
	   ----------                --------       ------       ------       ------
	    1 R(1,2)          =      0.939119     0.000028     0.000002     0.939121
	    2 R(2,3)          =      1.403897    -0.000330    -0.000059     1.403838
	    3 R(3,4)          =      1.516435     0.000127     0.000039     1.516474
	    4 R(3,5)          =      1.087325     0.000066     0.000012     1.087337
	    5 R(3,6)          =      1.088371     0.000145     0.000024     1.088395
	    6 R(4,7)          =      1.537368    -0.000057    -0.000019     1.537348
	    7 R(4,8)          =      1.084683     0.000035     0.000006     1.084690
	    8 R(4,9)          =      1.085540     0.000065     0.000006     1.085546
	    9 R(7,10)         =      1.526796     0.000151     0.000025     1.526821
	   10 R(7,11)         =      1.083703     0.000034     0.000004     1.083707
	   11 R(7,12)         =      1.086203    -0.000012     0.000004     1.086207
	   12 R(10,13)        =      1.524648    -0.000106    -0.000021     1.524627
	   13 R(10,14)        =      1.087286     0.000061     0.000008     1.087294
	   14 R(10,15)        =      1.086798     0.000056     0.000009     1.086807
	   15 R(13,16)        =      1.084848     0.000060     0.000009     1.084857
	   16 R(13,17)        =      1.084127    -0.000014    -0.000002     1.084125
	   17 R(13,18)        =      1.085096     0.000030     0.000005     1.085101
	   18 B(1,2,3)        =    110.206869     0.000001     0.004176   110.211044
	   19 B(2,3,4)        =    108.746430     0.000001     0.004011   108.750441
	   20 B(2,3,5)        =    110.366427    -0.000000    -0.001910   110.364517
	   21 B(2,3,6)        =    110.433159    -0.000001    -0.001423   110.431736
	   22 B(3,4,7)        =    113.566841    -0.000001    -0.002508   113.564334
	   23 B(3,4,8)        =    107.132878     0.000001     0.003292   107.136170
	   24 B(3,4,9)        =    107.879652     0.000000     0.001250   107.880902
	   25 B(4,3,5)        =    109.732881    -0.000001    -0.003794   109.729087
	   26 B(4,3,6)        =    109.879292     0.000001     0.005461   109.884754
	   27 B(4,7,10)       =    113.322229    -0.000001    -0.002729   113.319500
	   28 B(4,7,11)       =    109.858469     0.000000    -0.001100   109.857370
	   29 B(4,7,12)       =    109.326415     0.000000    -0.000014   109.326401
	   30 B(5,3,6)        =    107.675119    -0.000000    -0.002410   107.672709
	   31 B(7,4,8)        =    110.117871     0.000000    -0.001461   110.116410
	   32 B(7,4,9)        =    110.408050     0.000001     0.000776   110.408825
	   33 B(7,10,13)      =    113.132439    -0.000001    -0.002638   113.129801
	   34 B(7,10,14)      =    109.527470     0.000000     0.001535   109.529005
	   35 B(7,10,15)      =    109.055516     0.000001     0.004811   109.060327
	   36 B(8,4,9)        =    107.499659    -0.000000    -0.001206   107.498453
	   37 B(10,7,11)      =    109.861029     0.000000     0.002991   109.864019
	   38 B(10,7,12)      =    108.455073     0.000001     0.001855   108.456928
	   39 B(10,13,16)     =    111.112487     0.000000     0.000465   111.112952
	   40 B(10,13,17)     =    111.310490    -0.000001    -0.002433   111.308057
	   41 B(10,13,18)     =    111.107239     0.000000     0.000894   111.108133
	   42 B(11,7,12)      =    105.725936    -0.000000    -0.000851   105.725086
	   43 B(13,10,14)     =    109.310081    -0.000000    -0.002709   109.307372
	   44 B(13,10,15)     =    109.401593    -0.000000    -0.000826   109.400767
	   45 B(14,10,15)     =    106.176668    -0.000000     0.000005   106.176673
	   46 B(16,13,17)     =    107.766360     0.000000     0.000282   107.766642
	   47 B(16,13,18)     =    107.611525     0.000000     0.000666   107.612192
	   48 B(17,13,18)     =    107.761187     0.000000     0.000199   107.761385
	   49 D(1,2,3,4)      =    177.305122     0.000000    -0.011869   177.293253
	   50 D(1,2,3,5)      =    -62.276137     0.000000    -0.015175   -62.291312
	   51 D(1,2,3,6)      =     56.665273    -0.000000    -0.020264    56.645009
	   52 D(2,3,4,7)      =    -62.108601     0.000000     0.007135   -62.101467
	   53 D(2,3,4,8)      =     59.704002     0.000000     0.006023    59.710025
	   54 D(2,3,4,9)      =    175.176580     0.000000     0.006901   175.183481
	   55 D(3,4,7,10)     =   -139.863639     0.000000     0.001482  -139.862157
	   56 D(3,4,7,11)     =     96.832910    -0.000000     0.000366    96.833276
	   57 D(3,4,7,12)     =    -18.764817     0.000000     0.002015   -18.762801
	   58 D(4,7,10,13)    =   -178.670463     0.000000     0.059514  -178.610949
	   59 D(4,7,10,14)    =    -56.458743    -0.000000     0.055331   -56.403412
	   60 D(4,7,10,15)    =     59.342024     0.000000     0.058888    59.400912
	   61 D(5,3,4,7)      =    177.081913     0.000000     0.009297   177.091210
	   62 D(5,3,4,8)      =    -61.105483    -0.000000     0.008186   -61.097297
	   63 D(5,3,4,9)      =     54.367095    -0.000000     0.009064    54.376158
	   64 D(6,3,4,7)      =     58.872153     0.000000     0.011246    58.883399
	   65 D(6,3,4,8)      =   -179.315243    -0.000000     0.010135  -179.305108
	   66 D(6,3,4,9)      =    -63.842666     0.000000     0.011013   -63.831653
	   67 D(7,10,13,16)   =     60.504912    -0.000000    -0.013886    60.491026
	   68 D(7,10,13,17)   =   -179.381133    -0.000000    -0.014851  -179.395984
	   69 D(7,10,13,18)   =    -59.277273    -0.000000    -0.015632   -59.292905
	   70 *D(8,4,7,10)    =    100.000029     0.000000     0.000000   100.000029
	   71 D(8,4,7,11)     =    -23.303423    -0.000000    -0.001116   -23.304539
	   72 D(8,4,7,12)     =   -138.901149     0.000000     0.000533  -138.900616
	   73 D(9,4,7,10)     =    -18.552900    -0.000000     0.001917   -18.550983
	   74 D(9,4,7,11)     =   -141.856352    -0.000000     0.000801  -141.855551
	   75 D(9,4,7,12)     =    102.545922     0.000000     0.002450   102.548372
	   76 D(11,7,10,13)   =    -55.368419     0.000000     0.058381   -55.310038
	   77 D(11,7,10,14)   =     66.843301    -0.000000     0.054198    66.897499
	   78 D(11,7,10,15)   =   -177.355932     0.000000     0.057755  -177.298177
	   79 D(12,7,10,13)   =     59.741144     0.000000     0.060006    59.801150
	   80 D(12,7,10,14)   =   -178.047135    -0.000000     0.055823  -177.991313
	   81 D(12,7,10,15)   =    -62.246368     0.000000     0.059380   -62.186988
	   82 D(14,10,13,16)  =    -61.828162    -0.000000    -0.012082   -61.840244
	   83 D(14,10,13,17)  =     58.285792    -0.000000    -0.013047    58.272745
	   84 D(14,10,13,18)  =    178.389652    -0.000000    -0.013828   178.375824
	   85 D(15,10,13,16)  =   -177.701576     0.000000    -0.010105  -177.711681
	   86 D(15,10,13,17)  =    -57.587622     0.000000    -0.011070   -57.598692
	   87 D(15,10,13,18)  =     62.516239     0.000000    -0.011851    62.504388
	 ---------------------------------------------------------------------------
	Successfully symmetrized geometry.

  ==> Convergence Check <==

  Measures of convergence in internal coordinates in au.
  Criteria marked as inactive (o), active & met (*), and active & unmet ( ).
  ---------------------------------------------------------------------------------------------
   Step     Total Energy     Delta E     MAX Force     RMS Force      MAX Disp      RMS Disp   
  ---------------------------------------------------------------------------------------------
    Convergence Criteria    1.00e-06 *    3.00e-04 *             o    1.20e-03 *             o
  ---------------------------------------------------------------------------------------------
      5    -271.28304142   -2.31e-07 *    4.00e-05 *    7.62e-06 o    1.05e-03 *    3.42e-04 o  ~
  ---------------------------------------------------------------------------------------------


  **** Optimization is complete! (in 5 steps) ****

  ==> Optimization Summary <==

  Measures of convergence in internal coordinates in au.
  --------------------------------------------------------------------------------------------------------------- ~
   Step         Total Energy             Delta E       MAX Force       RMS Force        MAX Disp        RMS Disp  ~
  --------------------------------------------------------------------------------------------------------------- ~
      1    -271.282733342636   -271.282733342636      0.00866130      0.00109897      0.07980380      0.02820106  ~
      2    -271.282951406004     -0.000218063368      0.00353922      0.00066435      0.02593022      0.00935707  ~
      3    -271.283039644382     -0.000088238378      0.00033170      0.00008126      0.00495508      0.00186007  ~
      4    -271.283041192702     -0.000001548320      0.00009864      0.00002462      0.00227518      0.00090532  ~
      5    -271.283041423316     -0.000000230614      0.00004001      0.00000762      0.00104730      0.00034155  ~
  --------------------------------------------------------------------------------------------------------------- ~

	Writing optimization data to binary file.
	Final energy is   -271.2830414233161
	Final (previous) structure:
	Cartesian Geometry (in Angstrom)
	    H    -3.0725654755  -1.3134629685  -0.3402478798
	    O    -2.2541536515  -0.9593670856  -0.6348018986
	    C    -1.9986070889   0.2655689303   0.0017154352
	    C    -0.6419922092   0.7739247732  -0.4463303761
	    H    -2.7658265509   0.9923114005  -0.2542061768
	    H    -2.0086453090   0.1413100492   1.0829232352
	    C     0.5202862922  -0.1566070637  -0.0632921021
	    H    -0.6851873398   0.8929098705  -1.5236022120
	    H    -0.4961018664   1.7592146378  -0.0146868305
	    C     1.7639382988   0.5925751333   0.4091070016
	    H     0.7717329077  -0.7957877772  -0.9015252244
	    H     0.1991631206  -0.8248430216   0.7305452282
	    C     2.9245481789  -0.3328437484   0.7571547022
	    H     2.0805588663   1.2927033494  -0.3601545254
	    H     1.5078056807   1.1929480290   1.2780596715
	    H     3.2298833255  -0.9176058904  -0.1040765926
	    H     3.7870497611   0.2281975918   1.0987017068
	    H     2.6483855700  -1.0270004969   1.5441202348
	Saving final (previous) structure.
			--------------------------
			 OPTKING Finished Execution 
			--------------------------

    Final optimized geometry and variables:
    Molecular point group: c1
    Full point group: C1

    Geometry (in Angstrom), charge = 0, multiplicity = 1:

    H           -3.072565475544    -1.313462968511    -0.340247879769
    O           -2.254153651509    -0.959367085599    -0.634801898621
    C           -1.998607088901     0.265568930277     0.001715435157
    C           -0.641992209158     0.773924773168    -0.446330376063
    H           -2.765826550939     0.992311400535    -0.254206176784
    H           -2.008645309005     0.141310049233     1.082923235228
    C            0.520286292188    -0.156607063730    -0.063292102066
    H           -0.685187339790     0.892909870504    -1.523602211969
    H           -0.496101866401     1.759214637834    -0.014686830528
    C            1.763938298771     0.592575133340     0.409107001637
    H            0.771732907708    -0.795787777198    -0.901525224400
    H            0.199163120559    -0.824843021589     0.730545228197
    C            2.924548178855    -0.332843748423     0.757154702231
    H            2.080558866336     1.292703349402    -0.360154525410
    H            1.507805680707     1.192948029027     1.278059671504
    H            3.229883325537    -0.917605890407    -0.104076592590
    H            3.787049761130     0.228197591818     1.098701706771
    H            2.648385569962    -1.027000496851     1.544120234837

	Cleaning optimization helper files.


Properties will be evaluated at   0.000000,   0.000000,   0.000000 Bohr

Properties computed using the  density matrix

  Nuclear Dipole Moment: (a.u.)
     X:     4.8605      Y:     1.5149      Z:     2.0930

  Electronic Dipole Moment: (a.u.)
     X:    -5.2583      Y:    -1.2698      Z:    -1.7044

  Dipole Moment: (a.u.)
     X:    -0.3978      Y:     0.2452      Z:     0.3886     Total:     0.6077

  Dipole Moment: (Debye)
     X:    -1.0111      Y:     0.6232      Z:     0.9877     Total:     1.5447

  Quadrupole Moment: (Debye Ang)
    XX:   -34.8652     YY:   -40.4885     ZZ:   -40.9084
    XY:     0.8072     XZ:    -2.5242     YZ:    -1.1190

  Traceless Quadrupole Moment: (Debye Ang)
    XX:     3.8888     YY:    -1.7344     ZZ:    -2.1544
    XY:     0.8072     XZ:    -2.5242     YZ:    -1.1190

  Mulliken Charges: (a.u.)
   Center  Symbol    Alpha    Beta     Spin     Total
       1     H     0.39610  0.39610  0.00000  0.20781
       2     O     4.19938  4.19938  0.00000 -0.39876
       3     C     2.97209  2.97209  0.00000  0.05582
       4     C     3.09492  3.09492  0.00000 -0.18985
       5     H     0.46568  0.46568  0.00000  0.06864
       6     H     0.47482  0.47482  0.00000  0.05036
       7     C     3.08492  3.08492  0.00000 -0.16984
       8     H     0.45030  0.45030  0.00000  0.09940
       9     H     0.45390  0.45390  0.00000  0.09220
      10     C     3.08493  3.08493  0.00000 -0.16985
      11     H     0.44751  0.44751  0.00000  0.10499
      12     H     0.45452  0.45452  0.00000  0.09095
      13     C     3.14975  3.14975  0.00000 -0.29949
      14     H     0.45468  0.45468  0.00000  0.09064
      15     H     0.45697  0.45697  0.00000  0.08606
      16     H     0.45459  0.45459  0.00000  0.09082
      17     H     0.44947  0.44947  0.00000  0.10106
      18     H     0.45547  0.45547  0.00000  0.08906

   Total alpha = 25.00000, Total beta = 25.00000, Total charge =  0.00000


*** Psi4 exiting successfully. Buy a developer a beer!
