    -----------------------------------------------------------------------
          Psi4: An Open-Source Ab Initio Electronic Structure Package
                              Psi4 (no tag) Driver

                          Git: Rev {detached?}  

    J. M. Turney, A. C. Simmonett, R. M. Parrish, E. G. Hohenstein,
    F. A. Evangelista, J. T. Fermann, B. J. Mintz, L. A. Burns, J. J. Wilke,
    M. L. Abrams, N. J. Russ, M. L. Leininger, C. L. Janssen, E. T. Seidl,
    W. D. Allen, H. F. Schaefer, R. A. King, E. F. Valeev, C. D. Sherrill,
    and T. D. Crawford, WIREs Comput. Mol. Sci. 2, 556-565 (2012)
    (doi: 10.1002/wcms.93)

                         Additional Contributions by
    A. E. DePrince, M. Saitow, U. Bozkaya, A. Yu. Sokolov
    -----------------------------------------------------------------------


    Psi4 started on: Fri Sep  2 12:35:59 2016

    Process ID:  11946
    PSI4DATADIR: /export131/home/mjharvey/miniconda3/share
    Memory level set to 256.000 MB

  ==> Input File <==

--------------------------------------------------------------------------
set {
	reference rhf
	basis 6-31G*
}


set_num_threads( 4 )
memory 2 gb

molecule MOL {
0 1

H	 -2.138899	 -0.630570	 -0.647413
O	 -2.035884	 -0.060112	 0.102722
C	 -0.955155	 0.788182	 -0.092531
C	 0.353668	 0.040312	 -0.004810
H	 -0.985057	 1.290372	 -1.054184
H	 -0.974469	 1.533190	 0.688632
F	 0.394464	 -0.937475	 -0.903053
F	 1.368604	 0.853376	 -0.249821
F	 0.546173	 -0.502608	 1.179981

	symmetry c1
}
set optking {
	frozen_dihedral = ("
		1 2 3 5
	")
}

ee = optimize('scf')
oeprop('DIPOLE', 'QUADRUPOLE', 'MULLIKEN_CHARGES')
f=open( 'psi4out.xyz', 'w' )
f.write( "9  " )
f.write( str(ee) + "\n" )
f.write( MOL.save_string_xyz() )
f.close()
--------------------------------------------------------------------------

  Memory set to   2.000 GiB by Python script.
gradient() will perform analytic gradient computation.

*** tstart() called on cx1-1-1-2.cx1.hpc.ic.ac.uk
*** at Fri Sep  2 12:35:59 2016


         ---------------------------------------------------------
                                   SCF
            by Justin Turney, Rob Parrish, and Andy Simmonett
                              RHF Reference
                        4 Threads,   2000 MiB Core
         ---------------------------------------------------------

  ==> Geometry <==

    Molecular point group: c1
    Full point group: C1

    Geometry (in Angstrom), charge = 0, multiplicity = 1:

       Center              X                  Y                   Z               Mass       
    ------------   -----------------  -----------------  -----------------  -----------------
           H         -2.138496670684    -0.631010917686    -0.647103400625     1.007825032070
           O         -2.035481670684    -0.060552917686     0.103031599375    15.994914619560
           C         -0.954752670684     0.787741082314    -0.092221400625    12.000000000000
           C          0.354070329316     0.039871082314    -0.004500400625    12.000000000000
           H         -0.984654670684     1.289931082314    -1.053874400625     1.007825032070
           H         -0.974066670684     1.532749082314     0.688941599375     1.007825032070
           F          0.394866329316    -0.937915917686    -0.902743400625    18.998403224000
           F          1.369006329316     0.852935082314    -0.249511400625    18.998403224000
           F          0.546575329316    -0.503048917686     1.180290599375    18.998403224000

  Running in c1 symmetry.

  Rotational constants: A =      0.18190  B =      0.09636  C =      0.09533 [cm^-1]
  Rotational constants: A =   5453.25587  B =   2888.67351  C =   2857.78102 [MHz]
  Nuclear repulsion =  277.028131307056242

  Charge       = 0
  Multiplicity = 1
  Electrons    = 50
  Nalpha       = 25
  Nbeta        = 25

  ==> Algorithm <==

  SCF Algorithm Type is DF.
  DIIS enabled.
  MOM disabled.
  Fractional occupation disabled.
  Guess Type is CORE.
  Energy threshold   = 1.00e-08
  Density threshold  = 1.00e-08
  Integral threshold = 0.00e+00

  ==> Primary Basis <==

  Basis Set: 6-31G*
    Number of shells: 42
    Number of basis function: 96
    Number of Cartesian functions: 96
    Spherical Harmonics?: false
    Max angular momentum: 2

  ==> Pre-Iterations <==

   -------------------------------------------------------
    Irrep   Nso     Nmo     Nalpha   Nbeta   Ndocc  Nsocc
   -------------------------------------------------------
     A         96      96       0       0       0       0
   -------------------------------------------------------
    Total      96      96      25      25      25       0
   -------------------------------------------------------

 OEINTS: Overlap, kinetic, potential, dipole, and quadrupole integrals
         stored in file 35.

  ==> Integral Setup <==

  ==> DFJK: Density-Fitted J/K Matrices <==

    J tasked:                  Yes
    K tasked:                  Yes
    wK tasked:                  No
    OpenMP threads:              4
    Integrals threads:           4
    Memory (MB):              1430
    Algorithm:                Core
    Integral Cache:           NONE
    Schwarz Cutoff:          1E-12
    Fitting Condition:       1E-12

   => Auxiliary Basis Set <=

  Basis Set: 
    Number of shells: 171
    Number of basis function: 561
    Number of Cartesian functions: 561
    Spherical Harmonics?: false
    Max angular momentum: 3

  Minimum eigenvalue in the overlap matrix is 1.9627135253E-03.
  Using Symmetric Orthogonalization.
  SCF Guess: Core (One-Electron) Hamiltonian.

  ==> Iterations <==

                           Total Energy        Delta E     RMS |[F,P]|

   @DF-RHF iter   1:  -399.01684420593529   -3.99017e+02   8.97874e-02 
   @DF-RHF iter   2:  -270.05735880393638    1.28959e+02   9.71704e-02 DIIS
   @DF-RHF iter   3:  -397.40912238416729   -1.27352e+02   6.47603e-02 DIIS
   @DF-RHF iter   4:  -447.79506389164942   -5.03859e+01   2.67352e-02 DIIS
   @DF-RHF iter   5:  -450.32882029165899   -2.53376e+00   9.81414e-03 DIIS
   @DF-RHF iter   6:  -450.58022821717361   -2.51408e-01   4.45969e-03 DIIS
   @DF-RHF iter   7:  -450.64927386424199   -6.90456e-02   1.54888e-03 DIIS
   @DF-RHF iter   8:  -450.66154310071579   -1.22692e-02   4.66357e-04 DIIS
   @DF-RHF iter   9:  -450.66272574309721   -1.18264e-03   1.17863e-04 DIIS
   @DF-RHF iter  10:  -450.66279334660317   -6.76035e-05   4.27156e-05 DIIS
   @DF-RHF iter  11:  -450.66280577617681   -1.24296e-05   1.08403e-05 DIIS
   @DF-RHF iter  12:  -450.66280681855460   -1.04238e-06   3.84300e-06 DIIS
   @DF-RHF iter  13:  -450.66280689416874   -7.56141e-08   1.21165e-06 DIIS
   @DF-RHF iter  14:  -450.66280690141969   -7.25095e-09   1.90013e-07 DIIS
   @DF-RHF iter  15:  -450.66280690168458   -2.64890e-10   3.31210e-08 DIIS
   @DF-RHF iter  16:  -450.66280690169651   -1.19371e-11   9.51484e-09 DIIS

  ==> Post-Iterations <==

    Orbital Energies (a.u.)
    -----------------------

    Doubly Occupied:                                                      

       1A    -26.342882     2A    -26.342484     3A    -26.338400  
       4A    -20.590695     5A    -11.499359     6A    -11.309773  
       7A     -1.739339     8A     -1.638239     9A     -1.635871  
      10A     -1.402693    11A     -1.047938    12A     -0.923060  
      13A     -0.829682    14A     -0.828049    15A     -0.804238  
      16A     -0.727895    17A     -0.711024    18A     -0.697423  
      19A     -0.664052    20A     -0.657968    21A     -0.641722  
      22A     -0.628786    23A     -0.612946    24A     -0.531697  
      25A     -0.480524  

    Virtual:                                                              

      26A      0.214368    27A      0.268089    28A      0.287879  
      29A      0.338264    30A      0.417271    31A      0.431860  
      32A      0.473694    33A      0.482541    34A      0.695718  
      35A      0.744160    36A      0.752597    37A      0.779469  
      38A      0.814226    39A      0.876295    40A      0.938673  
      41A      1.054060    42A      1.129919    43A      1.150230  
      44A      1.189405    45A      1.241843    46A      1.316592  
      47A      1.343976    48A      1.356260    49A      1.365633  
      50A      1.448210    51A      1.472751    52A      1.597007  
      53A      1.618357    54A      1.627521    55A      1.642398  
      56A      1.670398    57A      1.672691    58A      1.683498  
      59A      1.746530    60A      1.877864    61A      1.907553  
      62A      1.955245    63A      1.964714    64A      1.995483  
      65A      2.113779    66A      2.132116    67A      2.142372  
      68A      2.158626    69A      2.268532    70A      2.271811  
      71A      2.323942    72A      2.373974    73A      2.376104  
      74A      2.400648    75A      2.417792    76A      2.433373  
      77A      2.503308    78A      2.592006    79A      2.656555  
      80A      2.700730    81A      2.756879    82A      2.850360  
      83A      2.926181    84A      3.114794    85A      3.136214  
      86A      3.176415    87A      3.271953    88A      3.414869  
      89A      3.424591    90A      3.449579    91A      4.137721  
      92A      4.602812    93A      4.766880    94A      4.895938  
      95A      5.114961    96A      5.702662  

    Final Occupation by Irrep:
              A 
    DOCC [    25 ]

  Energy converged.

  @DF-RHF Final Energy:  -450.66280690169651

   => Energetics <=

    Nuclear Repulsion Energy =            277.0281313070562419
    One-Electron Energy =               -1176.1283960006996949
    Two-Electron Energy =                 448.4374577919473950
    DFT Exchange-Correlation Energy =       0.0000000000000000
    Empirical Dispersion Energy =           0.0000000000000000
    PCM Polarization Energy =               0.0000000000000000
    EFP Energy =                            0.0000000000000000
    Total Energy =                       -450.6628069016960580

    Alert: EFP and PCM quantities not currently incorporated into SCF psivars.

Properties will be evaluated at   0.000000,   0.000000,   0.000000 Bohr
  ==> Properties <==


Properties computed using the SCF density matrix

  Nuclear Dipole Moment: (a.u.)
     X:    -6.0304      Y:     2.6091      Z:    -0.9747

  Electronic Dipole Moment: (a.u.)
     X:     5.6791      Y:    -2.2422      Z:     0.3729

  Dipole Moment: (a.u.)
     X:    -0.3513      Y:     0.3668      Z:    -0.6018     Total:     0.7875

  Dipole Moment: (Debye)
     X:    -0.8929      Y:     0.9324      Z:    -1.5296     Total:     2.0016


  Saving occupied orbitals to File 180.

*** tstop() called on cx1-1-1-2.cx1.hpc.ic.ac.uk at Fri Sep  2 12:36:02 2016
Module time:
	user time   =       7.20 seconds =       0.12 minutes
	system time =       0.14 seconds =       0.00 minutes
	total time  =          3 seconds =       0.05 minutes
Total time:
	user time   =       7.20 seconds =       0.12 minutes
	system time =       0.14 seconds =       0.00 minutes
	total time  =          3 seconds =       0.05 minutes

*** tstart() called on cx1-1-1-2.cx1.hpc.ic.ac.uk
*** at Fri Sep  2 12:36:02 2016


         ------------------------------------------------------------
                                   SCF GRAD                          
                          Rob Parrish, Justin Turney,                
                       Andy Simmonett, and Alex Sokolov              
         ------------------------------------------------------------

  ==> Geometry <==

    Molecular point group: c1
    Full point group: C1

    Geometry (in Angstrom), charge = 0, multiplicity = 1:

       Center              X                  Y                   Z               Mass       
    ------------   -----------------  -----------------  -----------------  -----------------
           H         -2.138496670684    -0.631010917686    -0.647103400625     1.007825032070
           O         -2.035481670684    -0.060552917686     0.103031599375    15.994914619560
           C         -0.954752670684     0.787741082314    -0.092221400625    12.000000000000
           C          0.354070329316     0.039871082314    -0.004500400625    12.000000000000
           H         -0.984654670684     1.289931082314    -1.053874400625     1.007825032070
           H         -0.974066670684     1.532749082314     0.688941599375     1.007825032070
           F          0.394866329316    -0.937915917686    -0.902743400625    18.998403224000
           F          1.369006329316     0.852935082314    -0.249511400625    18.998403224000
           F          0.546575329316    -0.503048917686     1.180290599375    18.998403224000

  Nuclear repulsion =  277.028131307056242

  ==> Basis Set <==

  Basis Set: 6-31G*
    Number of shells: 42
    Number of basis function: 96
    Number of Cartesian functions: 96
    Spherical Harmonics?: false
    Max angular momentum: 2

  ==> DFJKGrad: Density-Fitted SCF Gradients <==

    Gradient:                    1
    J tasked:                  Yes
    K tasked:                  Yes
    wK tasked:                  No
    OpenMP threads:              4
    Integrals threads:           4
    Memory (MB):              1430
    Schwarz Cutoff:          0E+00
    Fitting Condition:       1E-12

   => Auxiliary Basis Set <=

  Basis Set: 
    Number of shells: 171
    Number of basis function: 561
    Number of Cartesian functions: 561
    Spherical Harmonics?: false
    Max angular momentum: 3


  -Total Gradient:
     Atom            X                  Y                   Z
    ------   -----------------  -----------------  -----------------
       1       -0.000323990912     0.000335392799    -0.000421457468
       2        0.000320654334    -0.000121092524     0.000502838921
       3        0.000036311508    -0.000364771858    -0.000098411184
       4        0.000337137673     0.000938281738     0.000394862332
       5       -0.000019380205    -0.000055853014    -0.000187166466
       6       -0.000188243215    -0.000101504931    -0.000061784776
       7       -0.000095883788    -0.000281974333    -0.000100608086
       8       -0.000113787721    -0.000217835724    -0.000001947149
       9        0.000047182328    -0.000130642156    -0.000026326126


*** tstop() called on cx1-1-1-2.cx1.hpc.ic.ac.uk at Fri Sep  2 12:36:05 2016
Module time:
	user time   =       9.16 seconds =       0.15 minutes
	system time =       0.16 seconds =       0.00 minutes
	total time  =          3 seconds =       0.05 minutes
Total time:
	user time   =      16.38 seconds =       0.27 minutes
	system time =       0.30 seconds =       0.01 minutes
	total time  =          6 seconds =       0.10 minutes
CURRENT ENERGY: -450.6628069017

			-----------------------------------------
			 OPTKING 2.0: for geometry optimizations 
			  - R.A. King,  Bethel University        
			-----------------------------------------

	Internal coordinates to be generated automatically.
	Detected frag with atoms:  1 2 3 4 5 6 7 8 9
	---Fragment 1 Bond Connectivity---
	 1 : 2
	 2 : 1 3
	 3 : 2 4 5 6
	 4 : 3 7 8 9
	 5 : 3
	 6 : 3
	 7 : 4
	 8 : 4
	 9 : 4

	Assuming in current code that numbering for constraints corresponds to unified fragment.
	Frozen dihedral atom list: 
	     1     2     3     5
	---Fragment 1 Geometry and Gradient---
	 H          -4.0411730437       -1.1924378213       -1.2228482068
	 O          -3.8465029061       -0.1144284310        0.1947015059
	 C          -1.8042210722        1.4886149092       -0.1742731908
	 C           0.6690959542        0.0753454262       -0.0085045247
	 H          -1.8607276631        2.4376164759       -1.9915339956
	 H          -1.8407192428        2.8964759960        1.3019109444
	 F           0.7461892215       -1.7724042201       -1.7059377955
	 F           2.5870470366        1.6118137147       -0.4715082142
	 F           1.0328776834       -0.9506246859        2.2304259900
	            -0.0003239909        0.0003353928       -0.0004214575
	             0.0003206543       -0.0001210925        0.0005028389
	             0.0000363115       -0.0003647719       -0.0000984112
	             0.0003371377        0.0009382817        0.0003948623
	            -0.0000193802       -0.0000558530       -0.0001871665
	            -0.0001882432       -0.0001015049       -0.0000617848
	            -0.0000958838       -0.0002819743       -0.0001006081
	            -0.0001137877       -0.0002178357       -0.0000019471
	             0.0000471823       -0.0001306422       -0.0000263261

	Previous optimization step data not found.  Starting new optimization.

	---Fragment 1 Intrafragment Coordinates---
	 - Coordinate -           - BOHR/RAD -       - ANG/DEG -
	 R(1,2)           =         1.791493	       0.948017
	 R(2,3)           =         2.622366	       1.387697
	 R(3,4)           =         2.853438	       1.509974
	 R(3,5)           =         2.050910	       1.085295
	 R(3,6)           =         2.040227	       1.079641
	 R(4,7)           =         2.510259	       1.328372
	 R(4,8)           =         2.500729	       1.323329
	 R(4,9)           =         2.489530	       1.317403
	 B(1,2,3)         =         1.918918	     109.945928
	 B(2,3,4)         =         1.943469	     111.352544
	 B(2,3,5)         =         1.967171	     112.710586
	 B(2,3,6)         =         1.881879	     107.823740
	 B(3,4,7)         =         1.930404	     110.603995
	 B(3,4,8)         =         1.928071	     110.470345
	 B(3,4,9)         =         1.963859	     112.520852
	 B(4,3,5)         =         1.880249	     107.730350
	 B(4,3,6)         =         1.891512	     108.375652
	 B(5,3,6)         =         1.897914	     108.742489
	 B(7,4,8)         =         1.879163	     107.668091
	 B(7,4,9)         =         1.875798	     107.475327
	 B(8,4,9)         =         1.883514	     107.917375
	 D(1,2,3,4)       =        -1.242741	     -71.203832
	*D(1,2,3,5)       =         0.872665	      49.999996
	 D(1,2,3,6)       =         2.967578	     170.029683
	 D(2,3,4,7)       =         1.016265	      58.227704
	 D(2,3,4,8)       =         3.095072	     177.334536
	 D(2,3,4,9)       =        -1.081814	     -61.983379
	 D(5,3,4,7)       =        -1.149154	     -65.841656
	 D(5,3,4,8)       =         0.929653	      53.265176
	 D(5,3,4,9)       =         3.035952	     173.947260
	 D(6,3,4,7)       =         3.083357	     176.663345
	 D(6,3,4,8)       =        -1.121022	     -64.229823
	 D(6,3,4,9)       =         0.985278	      56.452262

	Current energy   :      -450.6628069017

	Generating empirical Hessian (Schlegel '84) for each fragment.
	Taking RFO optimization step.
	Going to follow RFO solution 1.
	Using RFO vector 1.
	Norm of target step-size    0.02652
	Projected energy change by RFO approximation:        -0.0000026650

	Back-transformation to cartesian coordinates...
	Successfully converged to displaced geometry.

	Back-transformation to cartesian coordinates to adjust frozen coordinates...
	Successfully converged to displaced geometry.

	--- Internal Coordinate Step in ANG or DEG, aJ/ANG or AJ/DEG ---
	 ---------------------------------------------------------------------------
	   Coordinate                Previous        Force       Change         New 
	   ----------                --------       ------       ------       ------
	    1 R(1,2)          =      0.948017    -0.001375    -0.000152     0.947866
	    2 R(2,3)          =      1.387697     0.000964     0.000130     1.387826
	    3 R(3,4)          =      1.509974    -0.000118    -0.000024     1.509950
	    4 R(3,5)          =      1.085295    -0.001158    -0.000210     1.085085
	    5 R(3,6)          =      1.079641     0.000918     0.000164     1.079805
	    6 R(4,7)          =      1.328372    -0.002246    -0.000241     1.328131
	    7 R(4,8)          =      1.323329     0.001819     0.000191     1.323520
	    8 R(4,9)          =      1.317403    -0.000305    -0.000031     1.317372
	    9 B(1,2,3)        =    109.945928     0.000010     0.047038   109.992966
	   10 B(2,3,4)        =    111.352544    -0.000038    -0.170755   111.181789
	   11 B(2,3,5)        =    112.710586     0.000020     0.042643   112.753230
	   12 B(2,3,6)        =    107.823740     0.000019     0.177966   108.001706
	   13 B(3,4,7)        =    110.603995     0.000013     0.060483   110.664478
	   14 B(3,4,8)        =    110.470345    -0.000015    -0.067415   110.402930
	   15 B(3,4,9)        =    112.520852    -0.000011    -0.030508   112.490344
	   16 B(4,3,5)        =    107.730350    -0.000008    -0.195603   107.534746
	   17 B(4,3,6)        =    108.375652     0.000008     0.037168   108.412819
	   18 B(5,3,6)        =    108.742489    -0.000000     0.115326   108.857815
	   19 B(7,4,8)        =    107.668091    -0.000001    -0.007541   107.660549
	   20 B(7,4,9)        =    107.475327     0.000008     0.066754   107.542081
	   21 B(8,4,9)        =    107.917375     0.000006    -0.019490   107.897885
	   22 D(1,2,3,4)      =    -71.203832     0.000006     0.346457   -70.857375
	   23 *D(1,2,3,5)     =     49.999996    -0.000000    -0.000000    49.999996
	   24 D(1,2,3,6)      =    170.029683     0.000006     0.289923   170.319605
	   25 D(2,3,4,7)      =     58.227704     0.000001     0.388394    58.616098
	   26 D(2,3,4,8)      =    177.334536     0.000000     0.374451   177.708987
	   27 D(2,3,4,9)      =    -61.983379    -0.000002     0.281514   -61.701865
	   28 D(5,3,4,7)      =    -65.841656     0.000002     0.578922   -65.262734
	   29 D(5,3,4,8)      =     53.265176     0.000002     0.564979    53.830155
	   30 D(5,3,4,9)      =    173.947260    -0.000001     0.472043   174.419303
	   31 D(6,3,4,7)      =    176.663345     0.000002     0.528774   177.192119
	   32 D(6,3,4,8)      =    -64.229823     0.000002     0.514831   -63.714992
	   33 D(6,3,4,9)      =     56.452262    -0.000001     0.421894    56.874156
	 ---------------------------------------------------------------------------

  ==> Convergence Check <==

  Measures of convergence in internal coordinates in au.
  Criteria marked as inactive (o), active & met (*), and active & unmet ( ).
  --------------------------------------------------------------------------------------------- ~
   Step     Total Energy     Delta E     MAX Force     RMS Force      MAX Disp      RMS Disp    ~
  --------------------------------------------------------------------------------------------- ~
    Convergence Criteria    1.00e-06 *    3.00e-04 *             o    1.20e-03 *             o  ~
  --------------------------------------------------------------------------------------------- ~
      1    -450.66280690   -4.51e+02      5.04e-04      1.74e-04 o    1.01e-02      4.62e-03 o  ~
  ---------------------------------------------------------------------------------------------

	Writing optimization data to binary file.
	Structure for next step:
	Cartesian Geometry (in Angstrom)
	    H    -2.1355017168  -0.6348661921  -0.6416044505
	    O    -2.0346859508  -0.0599112811   0.1051968079
	    C    -0.9551601204   0.7896039450  -0.0923119213
	    C     0.3524208900   0.0395332424  -0.0052768003
	    H    -0.9832897950   1.2868140686  -1.0563658612
	    H    -0.9719863960   1.5372514344   0.6866097921
	    F     0.3953096164  -0.9339297829  -0.9077527610
	    F     1.3681672310   0.8536820026  -0.2442871109
	    F     0.5417918678  -0.5074785150   1.1781016249
			--------------------------
			 OPTKING Finished Execution 
			--------------------------

    Structure for next step:
    Molecular point group: c1
    Full point group: C1

    Geometry (in Angstrom), charge = 0, multiplicity = 1:

    H           -2.134463068960    -0.635184491724    -0.641478484137
    O           -2.033647310646    -0.060229624689     0.105322717245
    C           -0.954121562648     0.789285536532    -0.092185996798
    C            0.353459347902     0.039214891247    -0.005150882532
    H           -0.982251235104     1.286495622228    -1.056239863108
    H           -0.970947837001     1.536932968888     0.686735657076
    F            0.396348071023    -0.934248059732    -0.907626774288
    F            1.369205611333     0.853363589321    -0.244161174797
    F            0.542830311202    -0.507796824362     1.178227452361

gradient() will perform analytic gradient computation.

*** tstart() called on cx1-1-1-2.cx1.hpc.ic.ac.uk
*** at Fri Sep  2 12:36:05 2016


         ---------------------------------------------------------
                                   SCF
            by Justin Turney, Rob Parrish, and Andy Simmonett
                              RHF Reference
                        4 Threads,   2000 MiB Core
         ---------------------------------------------------------

  ==> Geometry <==

    Molecular point group: c1
    Full point group: C1

    Geometry (in Angstrom), charge = 0, multiplicity = 1:

       Center              X                  Y                   Z               Mass       
    ------------   -----------------  -----------------  -----------------  -----------------
           H         -2.134463068960    -0.635184491724    -0.641478484137     1.007825032070
           O         -2.033647310646    -0.060229624689     0.105322717245    15.994914619560
           C         -0.954121562648     0.789285536532    -0.092185996798    12.000000000000
           C          0.353459347902     0.039214891247    -0.005150882532    12.000000000000
           H         -0.982251235104     1.286495622228    -1.056239863108     1.007825032070
           H         -0.970947837001     1.536932968888     0.686735657076     1.007825032070
           F          0.396348071023    -0.934248059732    -0.907626774288    18.998403224000
           F          1.369205611333     0.853363589321    -0.244161174797    18.998403224000
           F          0.542830311202    -0.507796824362     1.178227452361    18.998403224000

  Running in c1 symmetry.

  Rotational constants: A =      0.18183  B =      0.09646  C =      0.09543 [cm^-1]
  Rotational constants: A =   5451.17278  B =   2891.70661  C =   2860.96907 [MHz]
  Nuclear repulsion =  277.079378332588874

  Charge       = 0
  Multiplicity = 1
  Electrons    = 50
  Nalpha       = 25
  Nbeta        = 25

  ==> Algorithm <==

  SCF Algorithm Type is DF.
  DIIS enabled.
  MOM disabled.
  Fractional occupation disabled.
  Guess Type is READ.
  Energy threshold   = 1.00e-08
  Density threshold  = 1.00e-08
  Integral threshold = 0.00e+00

  ==> Primary Basis <==

  Basis Set: 6-31G*
    Number of shells: 42
    Number of basis function: 96
    Number of Cartesian functions: 96
    Spherical Harmonics?: false
    Max angular momentum: 2

  ==> Pre-Iterations <==

   -------------------------------------------------------
    Irrep   Nso     Nmo     Nalpha   Nbeta   Ndocc  Nsocc
   -------------------------------------------------------
     A         96      96       0       0       0       0
   -------------------------------------------------------
    Total      96      96      25      25      25       0
   -------------------------------------------------------

 OEINTS: Overlap, kinetic, potential, dipole, and quadrupole integrals
         stored in file 35.

  ==> Integral Setup <==

  ==> DFJK: Density-Fitted J/K Matrices <==

    J tasked:                  Yes
    K tasked:                  Yes
    wK tasked:                  No
    OpenMP threads:              4
    Integrals threads:           4
    Memory (MB):              1430
    Algorithm:                Core
    Integral Cache:           NONE
    Schwarz Cutoff:          1E-12
    Fitting Condition:       1E-12

   => Auxiliary Basis Set <=

  Basis Set: 
    Number of shells: 171
    Number of basis function: 561
    Number of Cartesian functions: 561
    Spherical Harmonics?: false
    Max angular momentum: 3

  Minimum eigenvalue in the overlap matrix is 1.9630880160E-03.
  Using Symmetric Orthogonalization.
  SCF Guess: Reading in previously saved MOs, projecting if necessary.

  Using orbitals from previous SCF, no projection.
  Recomputing DOCC and SOCC from number of alpha and beta electrons from previous calculation.
              A 
    DOCC [    25 ]

  ==> Iterations <==

                           Total Energy        Delta E     RMS |[F,P]|

   @DF-RHF iter   0:  -450.66311889254126   -4.50663e+02   1.22596e-04 
   @DF-RHF iter   1:  -450.66280654744975    3.12345e-04   1.99757e-05 
   @DF-RHF iter   2:  -450.66280965577999   -3.10833e-06   7.42725e-06 DIIS
   @DF-RHF iter   3:  -450.66281014541261   -4.89633e-07   3.34437e-06 DIIS
   @DF-RHF iter   4:  -450.66281020506864   -5.96560e-08   7.79705e-07 DIIS
   @DF-RHF iter   5:  -450.66281021244873   -7.38009e-09   2.15245e-07 DIIS
   @DF-RHF iter   6:  -450.66281021292474   -4.76007e-10   4.72026e-08 DIIS
   @DF-RHF iter   7:  -450.66281021294407   -1.93268e-11   1.16612e-08 DIIS
   @DF-RHF iter   8:  -450.66281021294509   -1.02318e-12   4.42736e-09 DIIS

  ==> Post-Iterations <==

    Orbital Energies (a.u.)
    -----------------------

    Doubly Occupied:                                                      

       1A    -26.342793     2A    -26.342659     3A    -26.338363  
       4A    -20.590620     5A    -11.499248     6A    -11.309809  
       7A     -1.739347     8A     -1.638212     9A     -1.635972  
      10A     -1.402671    11A     -1.047968    12A     -0.923072  
      13A     -0.829790    14A     -0.827998    15A     -0.804189  
      16A     -0.727953    17A     -0.711045    18A     -0.697344  
      19A     -0.664137    20A     -0.657988    21A     -0.641754  
      22A     -0.628992    23A     -0.612871    24A     -0.531810  
      25A     -0.480358  

    Virtual:                                                              

      26A      0.214532    27A      0.267908    28A      0.288075  
      29A      0.338390    30A      0.417512    31A      0.431808  
      32A      0.473117    33A      0.482240    34A      0.695711  
      35A      0.744414    36A      0.752698    37A      0.779223  
      38A      0.814225    39A      0.876057    40A      0.939021  
      41A      1.054131    42A      1.130166    43A      1.150134  
      44A      1.189765    45A      1.241804    46A      1.316253  
      47A      1.344016    48A      1.356186    49A      1.365604  
      50A      1.448241    51A      1.472170    52A      1.596611  
      53A      1.619165    54A      1.627311    55A      1.642443  
      56A      1.670382    57A      1.672750    58A      1.683886  
      59A      1.746866    60A      1.878038    61A      1.907851  
      62A      1.955419    63A      1.964824    64A      1.995369  
      65A      2.113861    66A      2.132395    67A      2.142566  
      68A      2.158688    69A      2.268590    70A      2.271971  
      71A      2.324243    72A      2.372632    73A      2.375845  
      74A      2.400803    75A      2.417149    76A      2.433801  
      77A      2.503619    78A      2.592920    79A      2.657373  
      80A      2.700409    81A      2.757727    82A      2.850137  
      83A      2.927064    84A      3.114945    85A      3.135762  
      86A      3.176757    87A      3.271302    88A      3.414824  
      89A      3.424325    90A      3.450255    91A      4.137805  
      92A      4.603136    93A      4.768524    94A      4.895877  
      95A      5.116990    96A      5.702588  

    Final Occupation by Irrep:
              A 
    DOCC [    25 ]

  Energy converged.

  @DF-RHF Final Energy:  -450.66281021294509

   => Energetics <=

    Nuclear Repulsion Energy =            277.0793783325888739
    One-Electron Energy =               -1176.2304506691386905
    Two-Electron Energy =                 448.4882621236047839
    DFT Exchange-Correlation Energy =       0.0000000000000000
    Empirical Dispersion Energy =           0.0000000000000000
    PCM Polarization Energy =               0.0000000000000000
    EFP Energy =                            0.0000000000000000
    Total Energy =                       -450.6628102129449758

    Alert: EFP and PCM quantities not currently incorporated into SCF psivars.

Properties will be evaluated at   0.000000,   0.000000,   0.000000 Bohr
  ==> Properties <==


Properties computed using the SCF density matrix

  Nuclear Dipole Moment: (a.u.)
     X:    -6.0195      Y:     2.6065      Z:    -0.9722

  Electronic Dipole Moment: (a.u.)
     X:     5.6697      Y:    -2.2433      Z:     0.3715

  Dipole Moment: (a.u.)
     X:    -0.3497      Y:     0.3631      Z:    -0.6007     Total:     0.7842

  Dipole Moment: (Debye)
     X:    -0.8889      Y:     0.9230      Z:    -1.5268     Total:     1.9933


  Saving occupied orbitals to File 180.

*** tstop() called on cx1-1-1-2.cx1.hpc.ic.ac.uk at Fri Sep  2 12:36:08 2016
Module time:
	user time   =       6.33 seconds =       0.11 minutes
	system time =       0.10 seconds =       0.00 minutes
	total time  =          3 seconds =       0.05 minutes
Total time:
	user time   =      24.08 seconds =       0.40 minutes
	system time =       0.42 seconds =       0.01 minutes
	total time  =          9 seconds =       0.15 minutes

*** tstart() called on cx1-1-1-2.cx1.hpc.ic.ac.uk
*** at Fri Sep  2 12:36:08 2016


         ------------------------------------------------------------
                                   SCF GRAD                          
                          Rob Parrish, Justin Turney,                
                       Andy Simmonett, and Alex Sokolov              
         ------------------------------------------------------------

  ==> Geometry <==

    Molecular point group: c1
    Full point group: C1

    Geometry (in Angstrom), charge = 0, multiplicity = 1:

       Center              X                  Y                   Z               Mass       
    ------------   -----------------  -----------------  -----------------  -----------------
           H         -2.134463068960    -0.635184491724    -0.641478484137     1.007825032070
           O         -2.033647310646    -0.060229624689     0.105322717245    15.994914619560
           C         -0.954121562648     0.789285536532    -0.092185996798    12.000000000000
           C          0.353459347902     0.039214891247    -0.005150882532    12.000000000000
           H         -0.982251235104     1.286495622228    -1.056239863108     1.007825032070
           H         -0.970947837001     1.536932968888     0.686735657076     1.007825032070
           F          0.396348071023    -0.934248059732    -0.907626774288    18.998403224000
           F          1.369205611333     0.853363589321    -0.244161174797    18.998403224000
           F          0.542830311202    -0.507796824362     1.178227452361    18.998403224000

  Nuclear repulsion =  277.079378332588874

  ==> Basis Set <==

  Basis Set: 6-31G*
    Number of shells: 42
    Number of basis function: 96
    Number of Cartesian functions: 96
    Spherical Harmonics?: false
    Max angular momentum: 2

  ==> DFJKGrad: Density-Fitted SCF Gradients <==

    Gradient:                    1
    J tasked:                  Yes
    K tasked:                  Yes
    wK tasked:                  No
    OpenMP threads:              4
    Integrals threads:           4
    Memory (MB):              1430
    Schwarz Cutoff:          0E+00
    Fitting Condition:       1E-12

   => Auxiliary Basis Set <=

  Basis Set: 
    Number of shells: 171
    Number of basis function: 561
    Number of Cartesian functions: 561
    Spherical Harmonics?: false
    Max angular momentum: 3


  -Total Gradient:
     Atom            X                  Y                   Z
    ------   -----------------  -----------------  -----------------
       1       -0.000358568855     0.000316273555    -0.000203451389
       2        0.000630319505    -0.000679980251     0.000104437291
       3       -0.000471615185     0.000754312202     0.000414169228
       4       -0.000006380609     0.000015707892    -0.000131513585
       5        0.000351392204    -0.000430393572    -0.000183365132
       6        0.000078543884     0.000139573888     0.000030615548
       7        0.000040141281    -0.000132298894    -0.000209154147
       8       -0.000248778640    -0.000108419585     0.000102634533
       9       -0.000015053587     0.000125224765     0.000075627646


*** tstop() called on cx1-1-1-2.cx1.hpc.ic.ac.uk at Fri Sep  2 12:36:10 2016
Module time:
	user time   =       8.69 seconds =       0.14 minutes
	system time =       0.13 seconds =       0.00 minutes
	total time  =          2 seconds =       0.03 minutes
Total time:
	user time   =      32.78 seconds =       0.55 minutes
	system time =       0.55 seconds =       0.01 minutes
	total time  =         11 seconds =       0.18 minutes
CURRENT ENERGY: -450.6628102129

			-----------------------------------------
			 OPTKING 2.0: for geometry optimizations 
			  - R.A. King,  Bethel University        
			-----------------------------------------

	Previous internal coordinate definitions found.
	---Fragment 1 Geometry and Gradient---
	 H          -4.0335506411       -1.2003247332       -1.2122186552
	 O          -3.8430364680       -0.1138174957        0.1990310912
	 C          -1.8030284509        1.4915335047       -0.1742062872
	 C           0.6679413666        0.0741054048       -0.0097337573
	 H          -1.8561858280        2.4311243972       -1.9960040719
	 H          -1.8348255012        2.9043823958        1.2977423176
	 F           0.7489893075       -1.7654729731       -1.7151660343
	 F           2.5874236250        1.6126234756       -0.4613977527
	 F           1.0258006248       -0.9595969292        2.2265272072
	            -0.0003585689        0.0003162736       -0.0002034514
	             0.0006303195       -0.0006799803        0.0001044373
	            -0.0004716152        0.0007543122        0.0004141692
	            -0.0000063806        0.0000157079       -0.0001315136
	             0.0003513922       -0.0004303936       -0.0001833651
	             0.0000785439        0.0001395739        0.0000306155
	             0.0000401413       -0.0001322989       -0.0002091541
	            -0.0002487786       -0.0001084196        0.0001026345
	            -0.0000150536        0.0001252248        0.0000756276

	---Fragment 1 Intrafragment Coordinates---
	 - Coordinate -           - BOHR/RAD -       - ANG/DEG -
	 R(1,2)           =         1.791206	       0.947866
	 R(2,3)           =         2.622611	       1.387826
	 R(3,4)           =         2.853392	       1.509950
	 R(3,5)           =         2.050513	       1.085085
	 R(3,6)           =         2.040536	       1.079805
	 R(4,7)           =         2.509804	       1.328131
	 R(4,8)           =         2.501090	       1.323520
	 R(4,9)           =         2.489471	       1.317372
	 B(1,2,3)         =         1.919739	     109.992966
	 B(2,3,4)         =         1.940488	     111.181789
	 B(2,3,5)         =         1.967915	     112.753230
	 B(2,3,6)         =         1.884985	     108.001706
	 B(3,4,7)         =         1.931460	     110.664478
	 B(3,4,8)         =         1.926895	     110.402930
	 B(3,4,9)         =         1.963327	     112.490344
	 B(4,3,5)         =         1.876835	     107.534746
	 B(4,3,6)         =         1.892161	     108.412819
	 B(5,3,6)         =         1.899927	     108.857815
	 B(7,4,8)         =         1.879031	     107.660549
	 B(7,4,9)         =         1.876963	     107.542081
	 B(8,4,9)         =         1.883173	     107.897885
	 D(1,2,3,4)       =        -1.236694	     -70.857375
	*D(1,2,3,5)       =         0.872665	      49.999996
	 D(1,2,3,6)       =         2.972638	     170.319605
	 D(2,3,4,7)       =         1.023044	      58.616098
	 D(2,3,4,8)       =         3.101607	     177.708987
	 D(2,3,4,9)       =        -1.076901	     -61.701865
	 D(5,3,4,7)       =        -1.139050	     -65.262734
	 D(5,3,4,8)       =         0.939513	      53.830155
	 D(5,3,4,9)       =         3.044191	     174.419303
	 D(6,3,4,7)       =         3.092586	     177.192119
	 D(6,3,4,8)       =        -1.112036	     -63.714992
	 D(6,3,4,9)       =         0.992641	      56.874156

	Current energy   :      -450.6628102129

	Energy change for the previous step:
		Projected    :        -0.0000026650
		Actual       :        -0.0000033112
	Energy ratio indicates good step: Trust radius increased to 1.000e+00.


	Performing BFGS update.
	Previous computed or guess Hessian on step 1.
	Steps to be used in Hessian update: 1
	Taking RFO optimization step.
	Going to follow RFO solution 1.
	Using RFO vector 1.
	Norm of target step-size    0.00359
	Projected energy change by RFO approximation:        -0.0000013280

	Back-transformation to cartesian coordinates...
	Successfully converged to displaced geometry.

	Back-transformation to cartesian coordinates to adjust frozen coordinates...
	Successfully converged to displaced geometry.

	--- Internal Coordinate Step in ANG or DEG, aJ/ANG or AJ/DEG ---
	 ---------------------------------------------------------------------------
	   Coordinate                Previous        Force       Change         New 
	   ----------                --------       ------       ------       ------
	    1 R(1,2)          =      0.947866    -0.000054    -0.000012     0.947854
	    2 R(2,3)          =      1.387826     0.000023     0.000009     1.387835
	    3 R(3,4)          =      1.509950     0.001310     0.000194     1.510144
	    4 R(3,5)          =      1.085085     0.000358     0.000037     1.085122
	    5 R(3,6)          =      1.079805    -0.000968    -0.000118     1.079688
	    6 R(4,7)          =      1.328131    -0.001980    -0.000166     1.327965
	    7 R(4,8)          =      1.323520     0.002275     0.000183     1.323703
	    8 R(4,9)          =      1.317372    -0.000113    -0.000010     1.317362
	    9 B(1,2,3)        =    109.992966    -0.000008    -0.024575   109.968391
	   10 B(2,3,4)        =    111.181789     0.000020     0.048691   111.230480
	   11 B(2,3,5)        =    112.753230    -0.000008    -0.006935   112.746295
	   12 B(2,3,6)        =    108.001706    -0.000011    -0.063044   107.938662
	   13 B(3,4,7)        =    110.664478    -0.000006    -0.025032   110.639446
	   14 B(3,4,8)        =    110.402930     0.000009     0.029463   110.432392
	   15 B(3,4,9)        =    112.490344     0.000010     0.021386   112.511731
	   16 B(4,3,5)        =    107.534746     0.000001     0.045153   107.579899
	   17 B(4,3,6)        =    108.412819    -0.000005    -0.020864   108.391956
	   18 B(5,3,6)        =    108.857815     0.000004    -0.004394   108.853420
	   19 B(7,4,8)        =    107.660549    -0.000002    -0.008537   107.652013
	   20 B(7,4,9)        =    107.542081    -0.000008    -0.037275   107.504806
	   21 B(8,4,9)        =    107.897885    -0.000003     0.018150   107.916035
	   22 D(1,2,3,4)      =    -70.857375    -0.000002    -0.088581   -70.945956
	   23 *D(1,2,3,5)     =     49.999996     0.000000    -0.000000    49.999996
	   24 D(1,2,3,6)      =    170.319605    -0.000002    -0.052357   170.267248
	   25 D(2,3,4,7)      =     58.616098    -0.000000     0.001782    58.617880
	   26 D(2,3,4,8)      =    177.708987    -0.000000    -0.005936   177.703051
	   27 D(2,3,4,9)      =    -61.701865     0.000002     0.052409   -61.649456
	   28 D(5,3,4,7)      =    -65.262734    -0.000001    -0.051519   -65.314252
	   29 D(5,3,4,8)      =     53.830155    -0.000001    -0.059236    53.770919
	   30 D(5,3,4,9)      =    174.419303     0.000001    -0.000891   174.418412
	   31 D(6,3,4,7)      =    177.192119    -0.000001    -0.059664   177.132455
	   32 D(6,3,4,8)      =    -63.714992    -0.000001    -0.067381   -63.782373
	   33 D(6,3,4,9)      =     56.874156     0.000001    -0.009036    56.865120
	 ---------------------------------------------------------------------------

  ==> Convergence Check <==

  Measures of convergence in internal coordinates in au.
  Criteria marked as inactive (o), active & met (*), and active & unmet ( ).
  ---------------------------------------------------------------------------------------------
   Step     Total Energy     Delta E     MAX Force     RMS Force      MAX Disp      RMS Disp   
  ---------------------------------------------------------------------------------------------
    Convergence Criteria    1.00e-06 *    3.00e-04 *             o    1.20e-03 *             o
  ---------------------------------------------------------------------------------------------
      2    -450.66281021   -3.31e-06      2.76e-04 *    1.12e-04 o    1.55e-03      6.25e-04 o  ~
  ---------------------------------------------------------------------------------------------

	Writing optimization data to binary file.
	Structure for next step:
	Cartesian Geometry (in Angstrom)
	    H    -2.1354145681  -0.6343787948  -0.6418201319
	    O    -2.0340103134  -0.0600698185   0.1053834417
	    C    -0.9541208116   0.7889126644  -0.0924880493
	    C     0.3539690039   0.0394000333  -0.0049256329
	    H    -0.9827987869   1.2866152836  -1.0563133431
	    H    -0.9714178990   1.5361224103   0.6866804245
	    F     0.3968141004  -0.9343185134  -0.9068832603
	    F     1.3699179198   0.8534321614  -0.2444863794
	    F     0.5434733449  -0.5078816378   1.1782955071
			--------------------------
			 OPTKING Finished Execution 
			--------------------------

    Structure for next step:
    Molecular point group: c1
    Full point group: C1

    Geometry (in Angstrom), charge = 0, multiplicity = 1:

    H           -2.135743733380    -0.634366467541    -0.641908228409
    O           -2.034339486411    -0.060057535181     0.105295288150
    C           -0.954450067072     0.788924882973    -0.092576187774
    C            0.353639648544     0.039412309110    -0.005013778037
    H           -0.983128040206     1.286627464078    -1.056401407895
    H           -0.971747153171     1.536134571769     0.686592226586
    F            0.396484741726    -0.934306163322    -0.906971336533
    F            1.369588486787     0.853444374984    -0.244574506224
    F            0.543143975083    -0.507869320242     1.178207271659

gradient() will perform analytic gradient computation.

*** tstart() called on cx1-1-1-2.cx1.hpc.ic.ac.uk
*** at Fri Sep  2 12:36:10 2016


         ---------------------------------------------------------
                                   SCF
            by Justin Turney, Rob Parrish, and Andy Simmonett
                              RHF Reference
                        4 Threads,   2000 MiB Core
         ---------------------------------------------------------

  ==> Geometry <==

    Molecular point group: c1
    Full point group: C1

    Geometry (in Angstrom), charge = 0, multiplicity = 1:

       Center              X                  Y                   Z               Mass       
    ------------   -----------------  -----------------  -----------------  -----------------
           H         -2.135743733380    -0.634366467541    -0.641908228409     1.007825032070
           O         -2.034339486411    -0.060057535181     0.105295288150    15.994914619560
           C         -0.954450067072     0.788924882973    -0.092576187774    12.000000000000
           C          0.353639648544     0.039412309110    -0.005013778037    12.000000000000
           H         -0.983128040206     1.286627464078    -1.056401407895     1.007825032070
           H         -0.971747153171     1.536134571769     0.686592226586     1.007825032070
           F          0.396484741726    -0.934306163322    -0.906971336533    18.998403224000
           F          1.369588486787     0.853444374984    -0.244574506224    18.998403224000
           F          0.543143975083    -0.507869320242     1.178207271659    18.998403224000

  Running in c1 symmetry.

  Rotational constants: A =      0.18187  B =      0.09642  C =      0.09538 [cm^-1]
  Rotational constants: A =   5452.45971  B =   2890.52726  C =   2859.53258 [MHz]
  Nuclear repulsion =  277.058518377240603

  Charge       = 0
  Multiplicity = 1
  Electrons    = 50
  Nalpha       = 25
  Nbeta        = 25

  ==> Algorithm <==

  SCF Algorithm Type is DF.
  DIIS enabled.
  MOM disabled.
  Fractional occupation disabled.
  Guess Type is READ.
  Energy threshold   = 1.00e-08
  Density threshold  = 1.00e-08
  Integral threshold = 0.00e+00

  ==> Primary Basis <==

  Basis Set: 6-31G*
    Number of shells: 42
    Number of basis function: 96
    Number of Cartesian functions: 96
    Spherical Harmonics?: false
    Max angular momentum: 2

  ==> Pre-Iterations <==

   -------------------------------------------------------
    Irrep   Nso     Nmo     Nalpha   Nbeta   Ndocc  Nsocc
   -------------------------------------------------------
     A         96      96       0       0       0       0
   -------------------------------------------------------
    Total      96      96      25      25      25       0
   -------------------------------------------------------

 OEINTS: Overlap, kinetic, potential, dipole, and quadrupole integrals
         stored in file 35.

  ==> Integral Setup <==

  ==> DFJK: Density-Fitted J/K Matrices <==

    J tasked:                  Yes
    K tasked:                  Yes
    wK tasked:                  No
    OpenMP threads:              4
    Integrals threads:           4
    Memory (MB):              1430
    Algorithm:                Core
    Integral Cache:           NONE
    Schwarz Cutoff:          1E-12
    Fitting Condition:       1E-12

   => Auxiliary Basis Set <=

  Basis Set: 
    Number of shells: 171
    Number of basis function: 561
    Number of Cartesian functions: 561
    Spherical Harmonics?: false
    Max angular momentum: 3

  Minimum eigenvalue in the overlap matrix is 1.9634310460E-03.
  Using Symmetric Orthogonalization.
  SCF Guess: Reading in previously saved MOs, projecting if necessary.

  Using orbitals from previous SCF, no projection.
  Recomputing DOCC and SOCC from number of alpha and beta electrons from previous calculation.
              A 
    DOCC [    25 ]

  ==> Iterations <==

                           Total Energy        Delta E     RMS |[F,P]|

   @DF-RHF iter   0:  -450.66269045217030   -4.50663e+02   1.92236e-05 
   @DF-RHF iter   1:  -450.66281088043036   -1.20428e-04   2.61722e-06 
   @DF-RHF iter   2:  -450.66281093582018   -5.53898e-08   1.10199e-06 DIIS
   @DF-RHF iter   3:  -450.66281094673241   -1.09122e-08   5.44622e-07 DIIS
   @DF-RHF iter   4:  -450.66281094870385   -1.97144e-09   9.92996e-08 DIIS
   @DF-RHF iter   5:  -450.66281094881901   -1.15165e-10   2.17599e-08 DIIS
   @DF-RHF iter   6:  -450.66281094882493   -5.91172e-12   6.37518e-09 DIIS

  ==> Post-Iterations <==

    Orbital Energies (a.u.)
    -----------------------

    Doubly Occupied:                                                      

       1A    -26.342723     2A    -26.342666     3A    -26.338378  
       4A    -20.590666     5A    -11.499281     6A    -11.309824  
       7A     -1.739345     8A     -1.638179     9A     -1.635957  
      10A     -1.402698    11A     -1.047925    12A     -0.923078  
      13A     -0.829744    14A     -0.828002    15A     -0.804200  
      16A     -0.727959    17A     -0.711023    18A     -0.697361  
      19A     -0.664089    20A     -0.657967    21A     -0.641731  
      22A     -0.628934    23A     -0.612901    24A     -0.531833  
      25A     -0.480410  

    Virtual:                                                              

      26A      0.214480    27A      0.267976    28A      0.288020  
      29A      0.338346    30A      0.417373    31A      0.431715  
      32A      0.473410    33A      0.482195    34A      0.695707  
      35A      0.744390    36A      0.752630    37A      0.779241  
      38A      0.814142    39A      0.876131    40A      0.938926  
      41A      1.054170    42A      1.130122    43A      1.150175  
      44A      1.189705    45A      1.241830    46A      1.316359  
      47A      1.344019    48A      1.356166    49A      1.365586  
      50A      1.448160    51A      1.472240    52A      1.596719  
      53A      1.619034    54A      1.627389    55A      1.642429  
      56A      1.670395    57A      1.672776    58A      1.683678  
      59A      1.746785    60A      1.877848    61A      1.907867  
      62A      1.955296    63A      1.964611    64A      1.995328  
      65A      2.113862    66A      2.132264    67A      2.142519  
      68A      2.158707    69A      2.268485    70A      2.271833  
      71A      2.324075    72A      2.373096    73A      2.375778  
      74A      2.400845    75A      2.417690    76A      2.433700  
      77A      2.503442    78A      2.592796    79A      2.657009  
      80A      2.700401    81A      2.757875    82A      2.849697  
      83A      2.926840    84A      3.114954    85A      3.135723  
      86A      3.176653    87A      3.271405    88A      3.414784  
      89A      3.424479    90A      3.450017    91A      4.137696  
      92A      4.602986    93A      4.768091    94A      4.895781  
      95A      5.116168    96A      5.702847  

    Final Occupation by Irrep:
              A 
    DOCC [    25 ]

  Energy converged.

  @DF-RHF Final Energy:  -450.66281094882493

   => Energetics <=

    Nuclear Repulsion Energy =            277.0585183772406026
    One-Electron Energy =               -1176.1889088544371589
    Two-Electron Energy =                 448.4675795283718003
    DFT Exchange-Correlation Energy =       0.0000000000000000
    Empirical Dispersion Energy =           0.0000000000000000
    PCM Polarization Energy =               0.0000000000000000
    EFP Energy =                            0.0000000000000000
    Total Energy =                       -450.6628109488247560

    Alert: EFP and PCM quantities not currently incorporated into SCF psivars.

Properties will be evaluated at   0.000000,   0.000000,   0.000000 Bohr
  ==> Properties <==


Properties computed using the SCF density matrix

  Nuclear Dipole Moment: (a.u.)
     X:    -6.0230      Y:     2.6066      Z:    -0.9731

  Electronic Dipole Moment: (a.u.)
     X:     5.6724      Y:    -2.2432      Z:     0.3720

  Dipole Moment: (a.u.)
     X:    -0.3506      Y:     0.3634      Z:    -0.6011     Total:     0.7851

  Dipole Moment: (Debye)
     X:    -0.8911      Y:     0.9237      Z:    -1.5279     Total:     1.9954


  Saving occupied orbitals to File 180.

*** tstop() called on cx1-1-1-2.cx1.hpc.ic.ac.uk at Fri Sep  2 12:36:13 2016
Module time:
	user time   =       6.85 seconds =       0.11 minutes
	system time =       0.13 seconds =       0.00 minutes
	total time  =          3 seconds =       0.05 minutes
Total time:
	user time   =      40.27 seconds =       0.67 minutes
	system time =       0.70 seconds =       0.01 minutes
	total time  =         14 seconds =       0.23 minutes

*** tstart() called on cx1-1-1-2.cx1.hpc.ic.ac.uk
*** at Fri Sep  2 12:36:13 2016


         ------------------------------------------------------------
                                   SCF GRAD                          
                          Rob Parrish, Justin Turney,                
                       Andy Simmonett, and Alex Sokolov              
         ------------------------------------------------------------

  ==> Geometry <==

    Molecular point group: c1
    Full point group: C1

    Geometry (in Angstrom), charge = 0, multiplicity = 1:

       Center              X                  Y                   Z               Mass       
    ------------   -----------------  -----------------  -----------------  -----------------
           H         -2.135743733380    -0.634366467541    -0.641908228409     1.007825032070
           O         -2.034339486411    -0.060057535181     0.105295288150    15.994914619560
           C         -0.954450067072     0.788924882973    -0.092576187774    12.000000000000
           C          0.353639648544     0.039412309110    -0.005013778037    12.000000000000
           H         -0.983128040206     1.286627464078    -1.056401407895     1.007825032070
           H         -0.971747153171     1.536134571769     0.686592226586     1.007825032070
           F          0.396484741726    -0.934306163322    -0.906971336533    18.998403224000
           F          1.369588486787     0.853444374984    -0.244574506224    18.998403224000
           F          0.543143975083    -0.507869320242     1.178207271659    18.998403224000

  Nuclear repulsion =  277.058518377240603

  ==> Basis Set <==

  Basis Set: 6-31G*
    Number of shells: 42
    Number of basis function: 96
    Number of Cartesian functions: 96
    Spherical Harmonics?: false
    Max angular momentum: 2

  ==> DFJKGrad: Density-Fitted SCF Gradients <==

    Gradient:                    1
    J tasked:                  Yes
    K tasked:                  Yes
    wK tasked:                  No
    OpenMP threads:              4
    Integrals threads:           4
    Memory (MB):              1430
    Schwarz Cutoff:          0E+00
    Fitting Condition:       1E-12

   => Auxiliary Basis Set <=

  Basis Set: 
    Number of shells: 171
    Number of basis function: 561
    Number of Cartesian functions: 561
    Spherical Harmonics?: false
    Max angular momentum: 3


  -Total Gradient:
     Atom            X                  Y                   Z
    ------   -----------------  -----------------  -----------------
       1       -0.000315673701     0.000374172416    -0.000218819411
       2        0.000472291605    -0.000564435485     0.000233341454
       3       -0.000457221019     0.000529196499     0.000160954542
       4        0.000038007090     0.000135835717     0.000019549211
       5        0.000261095512    -0.000358982398    -0.000196793374
       6        0.000012368294    -0.000003095123     0.000004717295
       7        0.000009439897    -0.000007049088     0.000013947997
       8       -0.000014502075    -0.000046557065    -0.000019198915
       9       -0.000005805592    -0.000059085473     0.000002301200


*** tstop() called on cx1-1-1-2.cx1.hpc.ic.ac.uk at Fri Sep  2 12:36:15 2016
Module time:
	user time   =       8.85 seconds =       0.15 minutes
	system time =       0.16 seconds =       0.00 minutes
	total time  =          2 seconds =       0.03 minutes
Total time:
	user time   =      49.13 seconds =       0.82 minutes
	system time =       0.86 seconds =       0.01 minutes
	total time  =         16 seconds =       0.27 minutes
CURRENT ENERGY: -450.6628109488

			-----------------------------------------
			 OPTKING 2.0: for geometry optimizations 
			  - R.A. King,  Bethel University        
			-----------------------------------------

	Previous internal coordinate definitions found.
	---Fragment 1 Geometry and Gradient---
	 H          -4.0359707461       -1.1987788915       -1.2130307541
	 O          -3.8443444906       -0.1134922937        0.1989792577
	 C          -1.8036492343        1.4908519682       -0.1749436413
	 C           0.6682820855        0.0744784705       -0.0094746674
	 H          -1.8578427496        2.4313735422       -1.9963093473
	 H          -1.8363359899        2.9028736439        1.2974712732
	 F           0.7492475777       -1.7655827729       -1.7139274364
	 F           2.5881471548        1.6127761384       -0.4621788358
	 F           1.0263933636       -0.9597339266        2.2264890712
	            -0.0003156737        0.0003741724       -0.0002188194
	             0.0004722916       -0.0005644355        0.0002333415
	            -0.0004572210        0.0005291965        0.0001609545
	             0.0000380071        0.0001358357        0.0000195492
	             0.0002610955       -0.0003589824       -0.0001967934
	             0.0000123683       -0.0000030951        0.0000047173
	             0.0000094399       -0.0000070491        0.0000139480
	            -0.0000145021       -0.0000465571       -0.0000191989
	            -0.0000058056       -0.0000590855        0.0000023012

	---Fragment 1 Intrafragment Coordinates---
	 - Coordinate -           - BOHR/RAD -       - ANG/DEG -
	 R(1,2)           =         1.791184	       0.947854
	 R(2,3)           =         2.622628	       1.387835
	 R(3,4)           =         2.853759	       1.510144
	 R(3,5)           =         2.050583	       1.085122
	 R(3,6)           =         2.040314	       1.079688
	 R(4,7)           =         2.509490	       1.327965
	 R(4,8)           =         2.501436	       1.323703
	 R(4,9)           =         2.489452	       1.317362
	 B(1,2,3)         =         1.919310	     109.968391
	 B(2,3,4)         =         1.941338	     111.230480
	 B(2,3,5)         =         1.967794	     112.746295
	 B(2,3,6)         =         1.883885	     107.938662
	 B(3,4,7)         =         1.931023	     110.639446
	 B(3,4,8)         =         1.927409	     110.432392
	 B(3,4,9)         =         1.963700	     112.511731
	 B(4,3,5)         =         1.877623	     107.579899
	 B(4,3,6)         =         1.891797	     108.391956
	 B(5,3,6)         =         1.899851	     108.853420
	 B(7,4,8)         =         1.878882	     107.652013
	 B(7,4,9)         =         1.876313	     107.504806
	 B(8,4,9)         =         1.883490	     107.916035
	 D(1,2,3,4)       =        -1.238241	     -70.945956
	*D(1,2,3,5)       =         0.872665	      49.999996
	 D(1,2,3,6)       =         2.971724	     170.267248
	 D(2,3,4,7)       =         1.023075	      58.617880
	 D(2,3,4,8)       =         3.101503	     177.703051
	 D(2,3,4,9)       =        -1.075986	     -61.649456
	 D(5,3,4,7)       =        -1.139949	     -65.314252
	 D(5,3,4,8)       =         0.938480	      53.770919
	 D(5,3,4,9)       =         3.044176	     174.418412
	 D(6,3,4,7)       =         3.091545	     177.132455
	 D(6,3,4,8)       =        -1.113212	     -63.782373
	 D(6,3,4,9)       =         0.992484	      56.865120

	Current energy   :      -450.6628109488

	Energy change for the previous step:
		Projected    :        -0.0000013280
		Actual       :        -0.0000007359

	Performing BFGS update.
	Previous computed or guess Hessian on step 1.
	Steps to be used in Hessian update: 2 1
	Taking RFO optimization step.
	Going to follow RFO solution 1.
	Using RFO vector 1.
	Norm of target step-size    0.00202
	Projected energy change by RFO approximation:        -0.0000002424

	Back-transformation to cartesian coordinates...
	Successfully converged to displaced geometry.

	Back-transformation to cartesian coordinates to adjust frozen coordinates...
	Successfully converged to displaced geometry.

	--- Internal Coordinate Step in ANG or DEG, aJ/ANG or AJ/DEG ---
	 ---------------------------------------------------------------------------
	   Coordinate                Previous        Force       Change         New 
	   ----------                --------       ------       ------       ------
	    1 R(1,2)          =      0.947854     0.000168     0.000014     0.947868
	    2 R(2,3)          =      1.387835     0.000028     0.000006     1.387840
	    3 R(3,4)          =      1.510144    -0.000107    -0.000006     1.510138
	    4 R(3,5)          =      1.085122    -0.000027    -0.000004     1.085118
	    5 R(3,6)          =      1.079688    -0.000009    -0.000008     1.079680
	    6 R(4,7)          =      1.327965     0.000033    -0.000012     1.327953
	    7 R(4,8)          =      1.323703     0.000299     0.000043     1.323747
	    8 R(4,9)          =      1.317362    -0.000212    -0.000021     1.317341
	    9 B(1,2,3)        =    109.968391     0.000001     0.003408   109.971799
	   10 B(2,3,4)        =    111.230480     0.000000     0.001880   111.232359
	   11 B(2,3,5)        =    112.746295    -0.000001    -0.009113   112.737182
	   12 B(2,3,6)        =    107.938662    -0.000000    -0.001555   107.937107
	   13 B(3,4,7)        =    110.639446    -0.000000     0.004790   110.644236
	   14 B(3,4,8)        =    110.432392    -0.000003    -0.012583   110.419809
	   15 B(3,4,9)        =    112.511731    -0.000001    -0.003962   112.507769
	   16 B(4,3,5)        =    107.579899     0.000000     0.003322   107.583221
	   17 B(4,3,6)        =    108.391956     0.000001     0.006978   108.398934
	   18 B(5,3,6)        =    108.853420    -0.000000    -0.000953   108.852467
	   19 B(7,4,8)        =    107.652013     0.000002     0.007790   107.659803
	   20 B(7,4,9)        =    107.504806     0.000003     0.014845   107.519651
	   21 B(8,4,9)        =    107.916035    -0.000000    -0.010024   107.906011
	   22 D(1,2,3,4)      =    -70.945956     0.000000     0.000766   -70.945189
	   23 *D(1,2,3,5)     =     49.999996    -0.000000    -0.000000    49.999996
	   24 D(1,2,3,6)      =    170.267248    -0.000000    -0.007883   170.259365
	   25 D(2,3,4,7)      =     58.617880     0.000000    -0.034456    58.583424
	   26 D(2,3,4,8)      =    177.703051     0.000000    -0.029756   177.673295
	   27 D(2,3,4,9)      =    -61.649456    -0.000001    -0.054084   -61.703540
	   28 D(5,3,4,7)      =    -65.314252     0.000000    -0.026530   -65.340782
	   29 D(5,3,4,8)      =     53.770919     0.000000    -0.021830    53.749089
	   30 D(5,3,4,9)      =    174.418412    -0.000000    -0.046158   174.372254
	   31 D(6,3,4,7)      =    177.132455     0.000000    -0.030905   177.101550
	   32 D(6,3,4,8)      =    -63.782373     0.000000    -0.026205   -63.808578
	   33 D(6,3,4,9)      =     56.865120    -0.000001    -0.050533    56.814586
	 ---------------------------------------------------------------------------

  ==> Convergence Check <==

  Measures of convergence in internal coordinates in au.
  Criteria marked as inactive (o), active & met (*), and active & unmet ( ).
  ---------------------------------------------------------------------------------------------
   Step     Total Energy     Delta E     MAX Force     RMS Force      MAX Disp      RMS Disp   
  ---------------------------------------------------------------------------------------------
    Convergence Criteria    1.00e-06 *    3.00e-04 *             o    1.20e-03 *             o
  ---------------------------------------------------------------------------------------------
      3    -450.66281095   -7.36e-07 *    4.37e-05 *    1.87e-05 o    9.44e-04 *    3.51e-04 o  ~
  ---------------------------------------------------------------------------------------------


  **** Optimization is complete! (in 3 steps) ****

  ==> Optimization Summary <==

  Measures of convergence in internal coordinates in au.
  --------------------------------------------------------------------------------------------------------------- ~
   Step         Total Energy             Delta E       MAX Force       RMS Force        MAX Disp        RMS Disp  ~
  --------------------------------------------------------------------------------------------------------------- ~
      1    -450.662806901697   -450.662806901697      0.00050355      0.00017355      0.01010410      0.00461619  ~
      2    -450.662810212945     -0.000003311249      0.00027615      0.00011161      0.00154603      0.00062482  ~
      3    -450.662810948825     -0.000000735880      0.00004367      0.00001872      0.00094394      0.00035090  ~
  --------------------------------------------------------------------------------------------------------------- ~

	Writing optimization data to binary file.
	Final energy is   -450.6628109488249
	Final (previous) structure:
	Cartesian Geometry (in Angstrom)
	    H    -2.1357438965  -0.6343665160  -0.6419082774
	    O    -2.0343396418  -0.0600575398   0.1052952962
	    C    -0.9544501400   0.7889249432  -0.0925761948
	    C     0.3536396755   0.0394123121  -0.0050137784
	    H    -0.9831281153   1.2866275623  -1.0564014886
	    H    -0.9717472274   1.5361346891   0.6865922790
	    F     0.3964847720  -0.9343062347  -0.9069714058
	    F     1.3695885914   0.8534444402  -0.2445745249
	    F     0.5431440166  -0.5078693590   1.1782073616
	Saving final (previous) structure.
			--------------------------
			 OPTKING Finished Execution 
			--------------------------

    Final optimized geometry and variables:
    Molecular point group: c1
    Full point group: C1

    Geometry (in Angstrom), charge = 0, multiplicity = 1:

    H           -2.135743733380    -0.634366467541    -0.641908228409
    O           -2.034339486411    -0.060057535181     0.105295288150
    C           -0.954450067072     0.788924882973    -0.092576187774
    C            0.353639648544     0.039412309110    -0.005013778037
    H           -0.983128040206     1.286627464078    -1.056401407895
    H           -0.971747153171     1.536134571769     0.686592226586
    F            0.396484741726    -0.934306163322    -0.906971336533
    F            1.369588486787     0.853444374984    -0.244574506224
    F            0.543143975083    -0.507869320242     1.178207271659

	Cleaning optimization helper files.


Properties will be evaluated at   0.000000,   0.000000,   0.000000 Bohr

Properties computed using the  density matrix

  Nuclear Dipole Moment: (a.u.)
     X:    -6.0230      Y:     2.6066      Z:    -0.9731

  Electronic Dipole Moment: (a.u.)
     X:     5.6724      Y:    -2.2432      Z:     0.3720

  Dipole Moment: (a.u.)
     X:    -0.3506      Y:     0.3634      Z:    -0.6011     Total:     0.7851

  Dipole Moment: (Debye)
     X:    -0.8911      Y:     0.9237      Z:    -1.5279     Total:     1.9954

  Quadrupole Moment: (Debye Ang)
    XX:   -35.2812     YY:   -30.8288     ZZ:   -32.0631
    XY:     0.2316     XZ:     3.5821     YZ:     1.0897

  Traceless Quadrupole Moment: (Debye Ang)
    XX:    -2.5569     YY:     1.8955     ZZ:     0.6613
    XY:     0.2316     XZ:     3.5821     YZ:     1.0897

  Mulliken Charges: (a.u.)
   Center  Symbol    Alpha    Beta     Spin     Total
       1     H     0.27239  0.27239  0.00000  0.45523
       2     O     4.36128  4.36128  0.00000 -0.72257
       3     C     3.05442  3.05442  0.00000 -0.10884
       4     C     2.46332  2.46332  0.00000  1.07336
       5     H     0.40976  0.40976  0.00000  0.18047
       6     H     0.39552  0.39552  0.00000  0.20897
       7     F     4.68616  4.68616  0.00000 -0.37232
       8     F     4.68205  4.68205  0.00000 -0.36410
       9     F     4.67510  4.67510  0.00000 -0.35020

   Total alpha = 25.00000, Total beta = 25.00000, Total charge = -0.00000


*** PSI4 exiting successfully. Buy a developer a beer!
