    -----------------------------------------------------------------------
          Psi4: An Open-Source Ab Initio Electronic Structure Package
                              Psi4 (no tag) Driver

                          Git: Rev {detached?}  

    J. M. Turney, A. C. Simmonett, R. M. Parrish, E. G. Hohenstein,
    F. A. Evangelista, J. T. Fermann, B. J. Mintz, L. A. Burns, J. J. Wilke,
    M. L. Abrams, N. J. Russ, M. L. Leininger, C. L. Janssen, E. T. Seidl,
    W. D. Allen, H. F. Schaefer, R. A. King, E. F. Valeev, C. D. Sherrill,
    and T. D. Crawford, WIREs Comput. Mol. Sci. 2, 556-565 (2012)
    (doi: 10.1002/wcms.93)

                         Additional Contributions by
    A. E. DePrince, M. Saitow, U. Bozkaya, A. Yu. Sokolov
    -----------------------------------------------------------------------


    Psi4 started on: Fri Sep  2 12:48:44 2016

    Process ID:  27358
    PSI4DATADIR: /export131/home/mjharvey/miniconda3/share
    Memory level set to 256.000 MB

  ==> Input File <==

--------------------------------------------------------------------------
set {
	reference rhf
	basis 6-31G*
}


set_num_threads( 4 )
memory 2 gb

molecule MOL {
0 1

O	 -2.042549	 -1.228399	 -0.269030
C	 -1.653912	 -0.146171	 0.050137
C	 -0.332303	 0.024011	 0.778412
C	 -2.438579	 1.106236	 -0.272369
C	 0.845713	 -0.001731	 -0.208243
H	 -0.323783	 0.953829	 1.340327
H	 -0.235459	 -0.796807	 1.480410
C	 2.200309	 0.136118	 0.488247
H	 0.733710	 0.800019	 -0.936072
H	 0.811185	 -0.933796	 -0.764304
C	 2.353347	 1.465872	 1.225500
H	 2.330998	 -0.684339	 1.190526
H	 2.993376	 0.037786	 -0.249278
H	 1.593811	 1.578652	 1.993899
H	 2.259822	 2.305178	 0.542665
H	 3.323554	 1.537053	 1.706808
H	 -3.277823	 0.863061	 -0.908988
H	 -1.806773	 1.843019	 -0.759671
H	 -2.802853	 1.554979	 0.648059

	symmetry c1
}
set optking {
	frozen_dihedral = ("
		11 8 5 9
	")
}

ee = optimize('scf')
oeprop('DIPOLE', 'QUADRUPOLE', 'MULLIKEN_CHARGES')
f=open( 'psi4out.xyz', 'w' )
f.write( "19  " )
f.write( str(ee) + "\n" )
f.write( MOL.save_string_xyz() )
f.close()
--------------------------------------------------------------------------

  Memory set to   2.000 GiB by Python script.
gradient() will perform analytic gradient computation.

*** tstart() called on cx1-1-3-4.cx1.hpc.ic.ac.uk
*** at Fri Sep  2 12:48:44 2016


         ---------------------------------------------------------
                                   SCF
            by Justin Turney, Rob Parrish, and Andy Simmonett
                              RHF Reference
                        4 Threads,   2000 MiB Core
         ---------------------------------------------------------

  ==> Geometry <==

    Molecular point group: c1
    Full point group: C1

    Geometry (in Angstrom), charge = 0, multiplicity = 1:

       Center              X                  Y                   Z               Mass       
    ------------   -----------------  -----------------  -----------------  -----------------
           O         -1.889365914359    -1.433151159139    -0.526429666182    15.994914619560
           C         -1.500728914359    -0.350923159139    -0.207262666182    12.000000000000
           C         -0.179119914359    -0.180741159139     0.521012333818    12.000000000000
           C         -2.285395914359     0.901483840861    -0.529768666182    12.000000000000
           C          0.998896085641    -0.206483159139    -0.465642666182    12.000000000000
           H         -0.170599914359     0.749076840861     1.082927333818     1.007825032070
           H         -0.082275914359    -1.001559159139     1.223010333818     1.007825032070
           C          2.353492085641    -0.068634159139     0.230847333818    12.000000000000
           H          0.886893085641     0.595266840861    -1.193471666182     1.007825032070
           H          0.964368085641    -1.138548159139    -1.021703666182     1.007825032070
           C          2.506530085641     1.261119840861     0.968100333818    12.000000000000
           H          2.484181085641    -0.889091159139     0.933126333818     1.007825032070
           H          3.146559085641    -0.166966159139    -0.506677666182     1.007825032070
           H          1.746994085641     1.373899840861     1.736499333818     1.007825032070
           H          2.413005085641     2.100425840861     0.285265333818     1.007825032070
           H          3.476737085641     1.332300840861     1.449408333818     1.007825032070
           H         -3.124639914359     0.658308840861    -1.166387666182     1.007825032070
           H         -1.653589914359     1.638266840861    -1.017070666182     1.007825032070
           H         -2.649669914359     1.350226840861     0.390659333818     1.007825032070

  Running in c1 symmetry.

  Rotational constants: A =      0.18323  B =      0.04106  C =      0.03665 [cm^-1]
  Rotational constants: A =   5492.95770  B =   1230.93378  C =   1098.73068 [MHz]
  Nuclear repulsion =  305.621411503894706

  Charge       = 0
  Multiplicity = 1
  Electrons    = 56
  Nalpha       = 28
  Nbeta        = 28

  ==> Algorithm <==

  SCF Algorithm Type is DF.
  DIIS enabled.
  MOM disabled.
  Fractional occupation disabled.
  Guess Type is CORE.
  Energy threshold   = 1.00e-08
  Density threshold  = 1.00e-08
  Integral threshold = 0.00e+00

  ==> Primary Basis <==

  Basis Set: 6-31G*
    Number of shells: 66
    Number of basis function: 129
    Number of Cartesian functions: 129
    Spherical Harmonics?: false
    Max angular momentum: 2

  ==> Pre-Iterations <==

   -------------------------------------------------------
    Irrep   Nso     Nmo     Nalpha   Nbeta   Ndocc  Nsocc
   -------------------------------------------------------
     A        129     129       0       0       0       0
   -------------------------------------------------------
    Total     129     129      28      28      28       0
   -------------------------------------------------------

 OEINTS: Overlap, kinetic, potential, dipole, and quadrupole integrals
         stored in file 35.

  ==> Integral Setup <==

  ==> DFJK: Density-Fitted J/K Matrices <==

    J tasked:                  Yes
    K tasked:                  Yes
    wK tasked:                  No
    OpenMP threads:              4
    Integrals threads:           4
    Memory (MB):              1430
    Algorithm:                Core
    Integral Cache:           NONE
    Schwarz Cutoff:          1E-12
    Fitting Condition:       1E-12

   => Auxiliary Basis Set <=

  Basis Set: 
    Number of shells: 276
    Number of basis function: 867
    Number of Cartesian functions: 867
    Spherical Harmonics?: false
    Max angular momentum: 3

  Minimum eigenvalue in the overlap matrix is 3.4552787779E-03.
  Using Symmetric Orthogonalization.
  SCF Guess: Core (One-Electron) Hamiltonian.

  ==> Iterations <==

                           Total Energy        Delta E     RMS |[F,P]|

   @DF-RHF iter   1:  -228.25366020259457   -2.28254e+02   7.20263e-02 
   @DF-RHF iter   2:  -159.16351540501091    6.90901e+01   7.75357e-02 DIIS
   @DF-RHF iter   3:  -249.35743062467373   -9.01939e+01   5.41158e-02 DIIS
   @DF-RHF iter   4:  -236.38770795607354    1.29697e+01   6.16365e-02 DIIS
   @DF-RHF iter   5:  -305.56046417406401   -6.91728e+01   1.55093e-02 DIIS
   @DF-RHF iter   6:  -308.77977438381276   -3.21931e+00   5.89031e-03 DIIS
   @DF-RHF iter   7:  -309.02065907095425   -2.40885e-01   2.19167e-03 DIIS
   @DF-RHF iter   8:  -309.05491757475215   -3.42585e-02   8.13769e-04 DIIS
   @DF-RHF iter   9:  -309.06191708531651   -6.99951e-03   2.72179e-04 DIIS
   @DF-RHF iter  10:  -309.06271329278297   -7.96207e-04   7.07550e-05 DIIS
   @DF-RHF iter  11:  -309.06282613168901   -1.12839e-04   3.01637e-05 DIIS
   @DF-RHF iter  12:  -309.06284306122654   -1.69295e-05   1.00350e-05 DIIS
   @DF-RHF iter  13:  -309.06284497797969   -1.91675e-06   3.04022e-06 DIIS
   @DF-RHF iter  14:  -309.06284514309857   -1.65119e-07   9.49202e-07 DIIS
   @DF-RHF iter  15:  -309.06284516039443   -1.72959e-08   2.04851e-07 DIIS
   @DF-RHF iter  16:  -309.06284516110168   -7.07246e-10   5.43447e-08 DIIS
   @DF-RHF iter  17:  -309.06284516114920   -4.75211e-11   1.61004e-08 DIIS
   @DF-RHF iter  18:  -309.06284516115534   -6.13909e-12   4.45263e-09 DIIS

  ==> Post-Iterations <==

    Orbital Energies (a.u.)
    -----------------------

    Doubly Occupied:                                                      

       1A    -20.547299     2A    -11.324488     3A    -11.230536  
       4A    -11.228724     5A    -11.228199     6A    -11.225015  
       7A    -11.216598     8A     -1.393076     9A     -1.093588  
      10A     -1.027503    11A     -0.981286    12A     -0.899816  
      13A     -0.799277    14A     -0.735806    15A     -0.660111  
      16A     -0.650870    17A     -0.618721    18A     -0.605954  
      19A     -0.598153    20A     -0.568729    21A     -0.552426  
      22A     -0.540776    23A     -0.522711    24A     -0.496862  
      25A     -0.480663    26A     -0.473178    27A     -0.464266  
      28A     -0.397446  

    Virtual:                                                              

      29A      0.169181    30A      0.219995    31A      0.246139  
      32A      0.263996    33A      0.272749    34A      0.294980  
      35A      0.304881    36A      0.314204    37A      0.324358  
      38A      0.329851    39A      0.335889    40A      0.345836  
      41A      0.369209    42A      0.395004    43A      0.419178  
      44A      0.438056    45A      0.441196    46A      0.493257  
      47A      0.515097    48A      0.712545    49A      0.716468  
      50A      0.726467    51A      0.746028    52A      0.761362  
      53A      0.772714    54A      0.801930    55A      0.832075  
      56A      0.867396    57A      0.905542    58A      0.935510  
      59A      0.957199    60A      0.968076    61A      0.981862  
      62A      0.990761    63A      1.056377    64A      1.087457  
      65A      1.107345    66A      1.128287    67A      1.129632  
      68A      1.151242    69A      1.157092    70A      1.163090  
      71A      1.184045    72A      1.189723    73A      1.205368  
      74A      1.224991    75A      1.230262    76A      1.241438  
      77A      1.255270    78A      1.287160    79A      1.343713  
      80A      1.365001    81A      1.419125    82A      1.453844  
      83A      1.473830    84A      1.608012    85A      1.668876  
      86A      1.716195    87A      1.789674    88A      1.815402  
      89A      1.831266    90A      1.870428    91A      2.002413  
      92A      2.027232    93A      2.064674    94A      2.096848  
      95A      2.134930    96A      2.159806    97A      2.170184  
      98A      2.211072    99A      2.237261   100A      2.282608  
     101A      2.303609   102A      2.322843   103A      2.350272  
     104A      2.406515   105A      2.461672   106A      2.514148  
     107A      2.531963   108A      2.624503   109A      2.637050  
     110A      2.670677   111A      2.691593   112A      2.729965  
     113A      2.754245   114A      2.774355   115A      2.851484  
     116A      2.935772   117A      2.989398   118A      3.014136  
     119A      3.083897   120A      3.144508   121A      3.376024  
     122A      3.379111   123A      4.458703   124A      4.529564  
     125A      4.601872   126A      4.709466   127A      4.834856  
     128A      4.888407   129A      5.006565  

    Final Occupation by Irrep:
              A 
    DOCC [    28 ]

  Energy converged.

  @DF-RHF Final Energy:  -309.06284516115534

   => Energetics <=

    Nuclear Repulsion Energy =            305.6214115038947057
    One-Electron Energy =               -1024.2443596261593939
    Two-Electron Energy =                 409.5601029611093509
    DFT Exchange-Correlation Energy =       0.0000000000000000
    Empirical Dispersion Energy =           0.0000000000000000
    PCM Polarization Energy =               0.0000000000000000
    EFP Energy =                            0.0000000000000000
    Total Energy =                       -309.0628451611553373

    Alert: EFP and PCM quantities not currently incorporated into SCF psivars.

Properties will be evaluated at   0.000000,   0.000000,   0.000000 Bohr
  ==> Properties <==


Properties computed using the SCF density matrix

  Nuclear Dipole Moment: (a.u.)
     X:     6.9638      Y:     6.1819      Z:     2.0558

  Electronic Dipole Moment: (a.u.)
     X:    -6.4319      Y:    -5.1338      Z:    -1.7560

  Dipole Moment: (a.u.)
     X:     0.5319      Y:     1.0481      Z:     0.2998     Total:     1.2129

  Dipole Moment: (Debye)
     X:     1.3518      Y:     2.6640      Z:     0.7620     Total:     3.0830


  Saving occupied orbitals to File 180.

*** tstop() called on cx1-1-3-4.cx1.hpc.ic.ac.uk at Fri Sep  2 12:48:52 2016
Module time:
	user time   =      20.69 seconds =       0.34 minutes
	system time =       0.22 seconds =       0.00 minutes
	total time  =          8 seconds =       0.13 minutes
Total time:
	user time   =      20.69 seconds =       0.34 minutes
	system time =       0.22 seconds =       0.00 minutes
	total time  =          8 seconds =       0.13 minutes

*** tstart() called on cx1-1-3-4.cx1.hpc.ic.ac.uk
*** at Fri Sep  2 12:48:52 2016


         ------------------------------------------------------------
                                   SCF GRAD                          
                          Rob Parrish, Justin Turney,                
                       Andy Simmonett, and Alex Sokolov              
         ------------------------------------------------------------

  ==> Geometry <==

    Molecular point group: c1
    Full point group: C1

    Geometry (in Angstrom), charge = 0, multiplicity = 1:

       Center              X                  Y                   Z               Mass       
    ------------   -----------------  -----------------  -----------------  -----------------
           O         -1.889365914359    -1.433151159139    -0.526429666182    15.994914619560
           C         -1.500728914359    -0.350923159139    -0.207262666182    12.000000000000
           C         -0.179119914359    -0.180741159139     0.521012333818    12.000000000000
           C         -2.285395914359     0.901483840861    -0.529768666182    12.000000000000
           C          0.998896085641    -0.206483159139    -0.465642666182    12.000000000000
           H         -0.170599914359     0.749076840861     1.082927333818     1.007825032070
           H         -0.082275914359    -1.001559159139     1.223010333818     1.007825032070
           C          2.353492085641    -0.068634159139     0.230847333818    12.000000000000
           H          0.886893085641     0.595266840861    -1.193471666182     1.007825032070
           H          0.964368085641    -1.138548159139    -1.021703666182     1.007825032070
           C          2.506530085641     1.261119840861     0.968100333818    12.000000000000
           H          2.484181085641    -0.889091159139     0.933126333818     1.007825032070
           H          3.146559085641    -0.166966159139    -0.506677666182     1.007825032070
           H          1.746994085641     1.373899840861     1.736499333818     1.007825032070
           H          2.413005085641     2.100425840861     0.285265333818     1.007825032070
           H          3.476737085641     1.332300840861     1.449408333818     1.007825032070
           H         -3.124639914359     0.658308840861    -1.166387666182     1.007825032070
           H         -1.653589914359     1.638266840861    -1.017070666182     1.007825032070
           H         -2.649669914359     1.350226840861     0.390659333818     1.007825032070

  Nuclear repulsion =  305.621411503894706

  ==> Basis Set <==

  Basis Set: 6-31G*
    Number of shells: 66
    Number of basis function: 129
    Number of Cartesian functions: 129
    Spherical Harmonics?: false
    Max angular momentum: 2

  ==> DFJKGrad: Density-Fitted SCF Gradients <==

    Gradient:                    1
    J tasked:                  Yes
    K tasked:                  Yes
    wK tasked:                  No
    OpenMP threads:              4
    Integrals threads:           4
    Memory (MB):              1430
    Schwarz Cutoff:          0E+00
    Fitting Condition:       1E-12

   => Auxiliary Basis Set <=

  Basis Set: 
    Number of shells: 276
    Number of basis function: 867
    Number of Cartesian functions: 867
    Spherical Harmonics?: false
    Max angular momentum: 3


  -Total Gradient:
     Atom            X                  Y                   Z
    ------   -----------------  -----------------  -----------------
       1        0.000137808594     0.000022776402     0.000002653973
       2       -0.000406658676     0.000137295899     0.000037483166
       3        0.001648142916    -0.001006399059    -0.000011345944
       4        0.000005070520    -0.000001298152    -0.000006410770
       5        0.000196845369     0.001766698819     0.001206240099
       6        0.002549195052     0.002023204644     0.001328830606
       7       -0.000202409714     0.000273336819    -0.000064037716
       8       -0.000384888255    -0.001113418016    -0.000856396457
       9       -0.000034874324    -0.000152633328    -0.000054467930
      10        0.000237500546    -0.000313032672    -0.000423157564
      11       -0.001563525981     0.000009645395    -0.001744038153
      12        0.000251191033     0.000039779651     0.000376298767
      13        0.000807315959    -0.000142671894    -0.000053002226
      14       -0.003379379386    -0.000963738802    -0.000169062594
      15        0.000018753559    -0.000370167479     0.000414355290
      16        0.000114086554    -0.000203638222     0.000016471657
      17        0.000003609086    -0.000002940331     0.000003170811
      18       -0.000006071487     0.000001557266    -0.000006476312
      19        0.000008288636    -0.000004356935     0.000002891298


*** tstop() called on cx1-1-3-4.cx1.hpc.ic.ac.uk at Fri Sep  2 12:48:57 2016
Module time:
	user time   =      20.51 seconds =       0.34 minutes
	system time =       0.21 seconds =       0.00 minutes
	total time  =          5 seconds =       0.08 minutes
Total time:
	user time   =      41.22 seconds =       0.69 minutes
	system time =       0.43 seconds =       0.01 minutes
	total time  =         13 seconds =       0.22 minutes
CURRENT ENERGY: -309.0628451612

			-----------------------------------------
			 OPTKING 2.0: for geometry optimizations 
			  - R.A. King,  Bethel University        
			-----------------------------------------

	Internal coordinates to be generated automatically.
	Detected frag with atoms:  1 2 3 4 5 6 7 8 9 10 11 12 13 14 15 16 17 18 19
	---Fragment 1 Bond Connectivity---
	 1 : 2
	 2 : 1 3 4
	 3 : 2 5 6 7
	 4 : 2 17 18 19
	 5 : 3 8 9 10
	 6 : 3
	 7 : 3
	 8 : 5 11 12 13
	 9 : 5
	 10 : 5
	 11 : 8 14 15 16
	 12 : 8
	 13 : 8
	 14 : 11
	 15 : 11
	 16 : 11
	 17 : 4
	 18 : 4
	 19 : 4

	Assuming in current code that numbering for constraints corresponds to unified fragment.
	Frozen dihedral atom list: 
	    11     8     5     9
	---Fragment 1 Geometry and Gradient---
	 O          -3.5703841429       -2.7082631978       -0.9948078973
	 C          -2.8359666478       -0.6631486645       -0.3916696767
	 C          -0.3384875831       -0.3415512917        0.9845706228
	 C          -4.3187723834        1.7035575724       -1.0011176929
	 C           1.8876400371       -0.3901966218       -0.8799371149
	 H          -0.3223871164        1.4155500817        2.0464360827
	 H          -0.1554789455       -1.8926725167        2.3111545886
	 C           4.4474554978       -0.1296997641        0.4362382394
	 H           1.6759850410        1.1248913052       -2.2553345964
	 H           1.8223915732       -2.1515442099       -1.9307401180
	 C           4.7366554057        2.3831711200        1.8294445001
	 H           4.6944219164       -1.6801387979        1.7633532183
	 H           5.9461349328       -0.3155203142       -0.9574820267
	 H           3.3013403776        2.5962944332        3.2815081709
	 H           4.5599187691        3.9692296017        0.5390733561
	 H           6.5700809279        2.5176837158        2.7389848056
	 H          -5.9047137020        1.2440234201       -2.2041532539
	 H          -3.1248320742        3.0958756618       -1.9219850169
	 H          -5.0071504807        2.5515589465        0.7382391522
	             0.0001378086        0.0000227764        0.0000026540
	            -0.0004066587        0.0001372959        0.0000374832
	             0.0016481429       -0.0010063991       -0.0000113459
	             0.0000050705       -0.0000012982       -0.0000064108
	             0.0001968454        0.0017666988        0.0012062401
	             0.0025491951        0.0020232046        0.0013288306
	            -0.0002024097        0.0002733368       -0.0000640377
	            -0.0003848883       -0.0011134180       -0.0008563965
	            -0.0000348743       -0.0001526333       -0.0000544679
	             0.0002375005       -0.0003130327       -0.0004231576
	            -0.0015635260        0.0000096454       -0.0017440382
	             0.0002511910        0.0000397797        0.0003762988
	             0.0008073160       -0.0001426719       -0.0000530022
	            -0.0033793794       -0.0009637388       -0.0001690626
	             0.0000187536       -0.0003701675        0.0004143553
	             0.0001140866       -0.0002036382        0.0000164717
	             0.0000036091       -0.0000029403        0.0000031708
	            -0.0000060715        0.0000015573       -0.0000064763
	             0.0000082886       -0.0000043569        0.0000028913

	Previous optimization step data not found.  Starting new optimization.

	---Fragment 1 Intrafragment Coordinates---
	 - Coordinate -           - BOHR/RAD -       - ANG/DEG -
	 R(1,2)           =         2.255136	       1.193367
	 R(2,3)           =         2.869645	       1.518551
	 R(2,4)           =         2.858573	       1.512692
	 R(3,5)           =         2.904204	       1.536839
	 R(3,6)           =         2.053101	       1.086454
	 R(3,7)           =         2.049218	       1.084400
	 R(4,17)          =         2.042958	       1.081087
	 R(4,18)          =         2.052325	       1.086044
	 R(4,19)          =         2.053858	       1.086855
	 R(5,8)           =         2.890127	       1.529389
	 R(5,9)           =         2.057184	       1.088615
	 R(5,10)          =         2.052021	       1.085883
	 R(8,11)          =         2.887764	       1.528139
	 R(8,12)          =         2.055745	       1.087854
	 R(8,13)          =         2.055000	       1.087459
	 R(11,14)         =         2.052813	       1.086302
	 R(11,15)         =         2.052285	       1.086023
	 R(11,16)         =         2.051050	       1.085369
	 B(1,2,3)         =         2.109852	     120.885632
	 B(1,2,4)         =         2.123367	     121.659979
	 B(2,3,5)         =         1.936211	     110.936693
	 B(2,3,6)         =         1.929199	     110.534943
	 B(2,3,7)         =         1.879014	     107.659575
	 B(2,4,17)        =         1.919838	     109.998643
	 B(2,4,18)        =         1.934323	     110.828559
	 B(2,4,19)        =         1.912552	     109.581178
	 B(3,2,4)         =         2.049818	     117.445927
	 B(3,5,8)         =         1.966040	     112.645819
	 B(3,5,9)         =         1.915621	     109.757018
	 B(3,5,10)        =         1.895220	     108.588096
	 B(5,3,6)         =         1.918105	     109.899331
	 B(5,3,7)         =         1.911843	     109.540555
	 B(5,8,11)        =         1.968002	     112.758235
	 B(5,8,12)        =         1.909663	     109.415644
	 B(5,8,13)        =         1.905962	     109.203562
	 B(6,3,7)         =         1.888398	     108.197214
	 B(8,5,9)         =         1.906274	     109.221452
	 B(8,5,10)        =         1.916366	     109.799707
	 B(8,11,14)       =         1.940762	     111.197495
	 B(8,11,15)       =         1.939634	     111.132834
	 B(8,11,16)       =         1.939635	     111.132914
	 B(9,5,10)        =         1.861390	     106.649773
	 B(11,8,12)       =         1.910071	     109.438978
	 B(11,8,13)       =         1.910123	     109.442002
	 B(12,8,13)       =         1.856693	     106.380671
	 B(14,11,15)      =         1.880000	     107.716046
	 B(14,11,16)      =         1.880233	     107.729395
	 B(15,11,16)      =         1.880856	     107.765089
	 B(17,4,18)       =         1.917699	     109.876061
	 B(17,4,19)       =         1.908566	     109.352762
	 B(18,4,19)       =         1.870111	     107.149457
	 D(1,2,3,5)       =         1.419639	      81.339340
	 D(1,2,3,6)       =        -2.731233	    -156.488130
	 D(1,2,3,7)       =        -0.672026	     -38.504249
	 D(1,2,4,17)      =        -0.123096	      -7.052904
	 D(1,2,4,18)      =        -2.247263	    -128.758683
	 D(1,2,4,19)      =         1.975639	     113.195760
	 D(2,3,5,8)       =        -3.119694	    -178.745300
	 D(2,3,5,9)       =         1.035412	      59.324765
	 D(2,3,5,10)      =        -0.993200	     -56.906146
	 D(3,2,4,17)      =         3.000178	     171.897516
	 D(3,2,4,18)      =         0.876011	      50.191737
	 D(3,2,4,19)      =        -1.184273	     -67.853820
	 D(3,5,8,11)      =        -1.086158	     -62.232287
	 D(3,5,8,12)      =         1.043853	      59.808384
	 D(3,5,8,13)      =         3.069588	     175.874429
	 D(4,2,3,5)       =        -1.703785	     -97.619661
	 D(4,2,3,6)       =         0.428528	      24.552869
	 D(4,2,3,7)       =         2.487736	     142.536749
	 D(5,8,11,14)     =         1.050157	      60.169563
	 D(5,8,11,15)     =        -1.044031	     -59.818542
	 D(5,8,11,16)     =        -3.138545	    -179.825396
	 D(6,3,5,8)       =         1.024730	      58.712715
	 D(6,3,5,9)       =        -1.103349	     -63.217220
	 D(6,3,5,10)      =        -3.131961	    -179.448132
	 D(7,3,5,8)       =        -1.047735	     -60.030774
	 D(7,3,5,9)       =         3.107372	     178.039291
	 D(7,3,5,10)      =         1.078760	      61.808379
	*D(9,5,8,11)      =         1.047198	      60.000025
	 D(9,5,8,12)      =        -3.105976	    -177.959305
	 D(9,5,8,13)      =        -1.080241	     -61.893260
	 D(10,5,8,11)     =         3.082548	     176.617001
	 D(10,5,8,12)     =        -1.070626	     -61.342328
	 D(10,5,8,13)     =         0.955109	      54.723716
	 D(12,8,11,14)    =        -1.079625	     -61.857954
	 D(12,8,11,15)    =         3.109373	     178.153941
	 D(12,8,11,16)    =         1.014858	      58.147087
	 D(13,8,11,14)    =        -3.107940	    -178.071860
	 D(13,8,11,15)    =         1.081058	      61.940035
	 D(13,8,11,16)    =        -1.013457	     -58.066819

	Current energy   :      -309.0628451612

	Generating empirical Hessian (Schlegel '84) for each fragment.
	Taking RFO optimization step.
	Going to follow RFO solution 1.
	Using RFO vector 1.
	Norm of target step-size    0.46812
	Projected energy change by RFO approximation:        -0.0039059118

	Back-transformation to cartesian coordinates...
	Successfully converged to displaced geometry.

	Back-transformation to cartesian coordinates to adjust frozen coordinates...
	Successfully converged to displaced geometry.

	--- Internal Coordinate Step in ANG or DEG, aJ/ANG or AJ/DEG ---
	 ---------------------------------------------------------------------------
	   Coordinate                Previous        Force       Change         New 
	   ----------                --------       ------       ------       ------
	    1 R(1,2)          =      1.193367     0.000546     0.000032     1.193399
	    2 R(2,3)          =      1.518551    -0.001577    -0.000329     1.518222
	    3 R(2,4)          =      1.512692     0.000083     0.000017     1.512709
	    4 R(3,5)          =      1.536839     0.016594     0.003663     1.540502
	    5 R(3,6)          =      1.086454    -0.020092    -0.003633     1.082821
	    6 R(3,7)          =      1.084400     0.002195     0.000394     1.084794
	    7 R(4,17)         =      1.081087     0.000033     0.000006     1.081093
	    8 R(4,18)         =      1.086044    -0.000004    -0.000001     1.086043
	    9 R(4,19)         =      1.086855     0.000018     0.000003     1.086858
	   10 R(5,8)          =      1.529389     0.039783     0.008582     1.537971
	   11 R(5,9)          =      1.088615     0.000597     0.000109     1.088724
	   12 R(5,10)         =      1.085883    -0.003937    -0.000710     1.085172
	   13 R(8,11)         =      1.528139     0.020814     0.004472     1.532611
	   14 R(8,12)         =      1.087854    -0.002003    -0.000364     1.087490
	   15 R(8,13)         =      1.087459    -0.005253    -0.000953     1.086506
	   16 R(11,14)        =      1.086302    -0.017657    -0.003191     1.083111
	   17 R(11,15)        =      1.086023     0.004517     0.000816     1.086838
	   18 R(11,16)        =      1.085369    -0.000790    -0.000142     1.085227
	   19 B(1,2,3)        =    120.885632     0.000012     0.037051   120.922683
	   20 B(1,2,4)        =    121.659979    -0.000006    -0.016148   121.643831
	   21 B(2,3,5)        =    110.936693    -0.000090    -0.378799   110.557894
	   22 B(2,3,6)        =    110.534943    -0.000089    -0.630498   109.904444
	   23 B(2,3,7)        =    107.659575     0.000030    -0.228933   107.430642
	   24 B(2,4,17)       =    109.998643     0.000000     0.002269   110.000912
	   25 B(2,4,18)       =    110.828559    -0.000001    -0.004514   110.824046
	   26 B(2,4,19)       =    109.581178     0.000001     0.004410   109.585588
	   27 B(3,2,4)        =    117.445927    -0.000006    -0.017966   117.427961
	   28 B(3,5,8)        =    112.645819     0.000702     2.753122   115.398941
	   29 B(3,5,9)        =    109.757018    -0.000149     0.788592   110.545609
	   30 B(3,5,10)       =    108.588096    -0.000274    -1.561649   107.026447
	   31 B(5,3,6)        =    109.899331     0.000174     1.179107   111.078438
	   32 B(5,3,7)        =    109.540555    -0.000016    -0.161791   109.378764
	   33 B(5,8,11)       =    112.758235     0.000847     3.137711   115.895946
	   34 B(5,8,12)       =    109.415644    -0.000235    -0.277175   109.138469
	   35 B(5,8,13)       =    109.203562    -0.000313    -1.499562   107.703999
	   36 B(6,3,7)        =    108.197214    -0.000010     0.194785   108.391998
	   37 B(8,5,9)        =    109.221452    -0.000190     0.141378   109.362830
	   38 B(8,5,10)       =    109.799707    -0.000228    -1.509789   108.289918
	   39 B(8,11,14)      =    111.197495     0.000246     1.281217   112.478711
	   40 B(8,11,15)      =    111.132834    -0.000039    -0.110362   111.022471
	   41 B(8,11,16)      =    111.132914    -0.000037    -0.394191   110.738724
	   42 B(9,5,10)       =    106.649773     0.000106    -0.923652   105.726121
	   43 B(11,8,12)      =    109.438978    -0.000196    -0.145745   109.293233
	   44 B(11,8,13)      =    109.442002    -0.000281    -1.012597   108.429404
	   45 B(12,8,13)      =    106.380671     0.000137    -0.471132   105.909539
	   46 B(14,11,15)     =    107.716046    -0.000048     0.187929   107.903976
	   47 B(14,11,16)     =    107.729395    -0.000131    -0.740561   106.988834
	   48 B(15,11,16)     =    107.765089    -0.000000    -0.283340   107.481748
	   49 B(17,4,18)      =    109.876061     0.000000     0.000865   109.876927
	   50 B(17,4,19)      =    109.352762    -0.000001    -0.001885   109.350877
	   51 B(18,4,19)      =    107.149457    -0.000000    -0.001210   107.148246
	   52 D(1,2,3,5)      =     81.339340    -0.000011    -0.169423    81.169917
	   53 D(1,2,3,6)      =   -156.488130     0.000011     0.635191  -155.852939
	   54 D(1,2,3,7)      =    -38.504249     0.000001     0.387134   -38.117115
	   55 D(1,2,4,17)     =     -7.052904    -0.000000    -0.138153    -7.191057
	   56 D(1,2,4,18)     =   -128.758683    -0.000000    -0.137775  -128.896459
	   57 D(1,2,4,19)     =    113.195760    -0.000000    -0.136290   113.059470
	   58 D(2,3,5,8)      =   -178.745300     0.000016     8.165031  -170.580269
	   59 D(2,3,5,9)      =     59.324765    -0.000014     5.350904    64.675669
	   60 D(2,3,5,10)     =    -56.906146     0.000011     6.905387   -50.000759
	   61 D(3,2,4,17)     =    171.897516     0.000000     0.063671   171.961187
	   62 D(3,2,4,18)     =     50.191737     0.000000     0.064049    50.255785
	   63 D(3,2,4,19)     =    -67.853820     0.000000     0.065534   -67.788286
	   64 D(3,5,8,11)     =    -62.232287    -0.000034    -3.123910   -65.356197
	   65 D(3,5,8,12)     =     59.808384     0.000002    -1.298764    58.509620
	   66 D(3,5,8,13)     =    175.874429    -0.000031    -2.822784   173.051645
	   67 D(4,2,3,5)      =    -97.619661    -0.000012    -0.369125   -97.988786
	   68 D(4,2,3,6)      =     24.552869     0.000011     0.435489    24.988358
	   69 D(4,2,3,7)      =    142.536749     0.000001     0.187432   142.724182
	   70 D(5,8,11,14)    =     60.169563     0.000027     6.335190    66.504753
	   71 D(5,8,11,15)    =    -59.818542     0.000009     5.296076   -54.522466
	   72 D(5,8,11,16)    =   -179.825396     0.000021     5.986210  -173.839186
	   73 D(6,3,5,8)      =     58.712715     0.000028     8.415013    67.127728
	   74 D(6,3,5,9)      =    -63.217220    -0.000002     5.600886   -57.616334
	   75 D(6,3,5,10)     =   -179.448132     0.000024     7.155370  -172.292762
	   76 D(7,3,5,8)      =    -60.030774     0.000009     7.553194   -52.477580
	   77 D(7,3,5,9)      =    178.039291    -0.000021     4.739067   182.778358
	   78 D(7,3,5,10)     =     61.808379     0.000005     6.293551    68.101930
	   79 *D(9,5,8,11)    =     60.000025    -0.000000    -0.000000    60.000025
	   80 D(9,5,8,12)     =   -177.959305     0.000036     1.825146  -176.134159
	   81 D(9,5,8,13)     =    -61.893260     0.000003     0.301127   -61.592134
	   82 D(10,5,8,11)    =    176.617001    -0.000026    -1.862578   174.754423
	   83 D(10,5,8,12)    =    -61.342328     0.000010    -0.037432   -61.379760
	   84 D(10,5,8,13)    =     54.723716    -0.000023    -1.561452    53.162265
	   85 D(12,8,11,14)   =    -61.857954    -0.000004     4.577391   -57.280563
	   86 D(12,8,11,15)   =    178.153941    -0.000022     3.538277   181.692218
	   87 D(12,8,11,16)   =     58.147087    -0.000010     4.228411    62.375498
	   88 D(13,8,11,14)   =   -178.071860     0.000020     5.781076  -172.290784
	   89 D(13,8,11,15)   =     61.940035     0.000003     4.741962    66.681997
	   90 D(13,8,11,16)   =    -58.066819     0.000014     5.432096   -52.634723
	 ---------------------------------------------------------------------------

  ==> Convergence Check <==

  Measures of convergence in internal coordinates in au.
  Criteria marked as inactive (o), active & met (*), and active & unmet ( ).
  --------------------------------------------------------------------------------------------- ~
   Step     Total Energy     Delta E     MAX Force     RMS Force      MAX Disp      RMS Disp    ~
  --------------------------------------------------------------------------------------------- ~
    Convergence Criteria    1.00e-06 *    3.00e-04 *             o    1.20e-03 *             o  ~
  --------------------------------------------------------------------------------------------- ~
      1    -309.06284516   -3.09e+02      1.11e-02      2.09e-03 o    1.47e-01      4.93e-02 o  ~
  ---------------------------------------------------------------------------------------------

	Writing optimization data to binary file.
	Structure for next step:
	Cartesian Geometry (in Angstrom)
	    O    -1.8462975073  -1.4853649331  -0.5008098921
	    C    -1.5282070894  -0.3711124773  -0.2153961572
	    C    -0.2387176290  -0.0964673464   0.5374555221
	    C    -2.3763025827   0.8201611006  -0.6025505037
	    C     0.9619518577  -0.0977076594  -0.4277059719
	    H    -0.3134080525   0.8462527776   1.0649038336
	    H    -0.1140152271  -0.8885268822   1.2681185450
	    C     2.3461612647  -0.0561103034   0.2413144998
	    H     0.8805040805   0.7216886238  -1.1399387371
	    H     0.8954404773  -1.0068613802  -1.0164458192
	    C     2.6752303716   1.2224548362   1.0196988425
	    H     2.4494555782  -0.9147719207   0.9006052804
	    H     3.0932417255  -0.1864414205  -0.5367475361
	    H     2.0503012666   1.3464453967   1.8956089523
	    H     2.5518920611   2.1024940753   0.3939705366
	    H     3.7043686820   1.2087393693   1.3637963075
	    H    -3.1835808249   0.5049442460  -1.2488486940
	    H    -1.7764384936   1.5750544501  -1.1023395924
	    H    -2.7893097630   1.2794089223   0.2917520932
			--------------------------
			 OPTKING Finished Execution 
			--------------------------

    Structure for next step:
    Molecular point group: c1
    Full point group: C1

    Geometry (in Angstrom), charge = 0, multiplicity = 1:

    O           -1.846864454686    -1.484728519086    -0.508548185600
    C           -1.528774061027    -0.370476148364    -0.223134472456
    C           -0.239284699146    -0.095831038456     0.529717149404
    C           -2.376869489611     0.820797338519    -0.610288789363
    C            0.961384695944    -0.097071351376    -0.435444270933
    H           -0.313975116884     0.846889013615     1.057165420617
    H           -0.114582306740    -0.887890513751     1.260380116515
    C            2.345593997180    -0.055473998549     0.233576149725
    H            0.879936924928     0.722324869301    -1.147676981752
    H            0.894873320618    -1.006225002731    -1.024184073311
    C            2.674663078974     1.223091043464     1.011960432952
    H            2.448888302824    -0.914135550250     0.892866879946
    H            3.092674400938    -0.185805105662    -0.544485826775
    H            2.049734021651     1.347081594468     1.887870475891
    H            2.551324777861     2.103130215346     0.386232174850
    H            3.703801310754     1.209375577585     1.356057871626
    H           -3.184147670159     0.505580507983    -1.256586930299
    H           -1.777005446276     1.575690630418    -1.110077839922
    H           -2.789876638339     1.280045125144     0.284013739211

gradient() will perform analytic gradient computation.

*** tstart() called on cx1-1-3-4.cx1.hpc.ic.ac.uk
*** at Fri Sep  2 12:48:59 2016


         ---------------------------------------------------------
                                   SCF
            by Justin Turney, Rob Parrish, and Andy Simmonett
                              RHF Reference
                        4 Threads,   2000 MiB Core
         ---------------------------------------------------------

  ==> Geometry <==

    Molecular point group: c1
    Full point group: C1

    Geometry (in Angstrom), charge = 0, multiplicity = 1:

       Center              X                  Y                   Z               Mass       
    ------------   -----------------  -----------------  -----------------  -----------------
           O         -1.846864454686    -1.484728519086    -0.508548185600    15.994914619560
           C         -1.528774061027    -0.370476148364    -0.223134472456    12.000000000000
           C         -0.239284699146    -0.095831038456     0.529717149404    12.000000000000
           C         -2.376869489611     0.820797338519    -0.610288789363    12.000000000000
           C          0.961384695944    -0.097071351376    -0.435444270933    12.000000000000
           H         -0.313975116884     0.846889013615     1.057165420617     1.007825032070
           H         -0.114582306740    -0.887890513751     1.260380116515     1.007825032070
           C          2.345593997180    -0.055473998549     0.233576149725    12.000000000000
           H          0.879936924928     0.722324869301    -1.147676981752     1.007825032070
           H          0.894873320618    -1.006225002731    -1.024184073311     1.007825032070
           C          2.674663078974     1.223091043464     1.011960432952    12.000000000000
           H          2.448888302824    -0.914135550250     0.892866879946     1.007825032070
           H          3.092674400938    -0.185805105662    -0.544485826775     1.007825032070
           H          2.049734021651     1.347081594468     1.887870475891     1.007825032070
           H          2.551324777861     2.103130215346     0.386232174850     1.007825032070
           H          3.703801310754     1.209375577585     1.356057871626     1.007825032070
           H         -3.184147670159     0.505580507983    -1.256586930299     1.007825032070
           H         -1.777005446276     1.575690630418    -1.110077839922     1.007825032070
           H         -2.789876638339     1.280045125144     0.284013739211     1.007825032070

  Running in c1 symmetry.

  Rotational constants: A =      0.19104  B =      0.03896  C =      0.03532 [cm^-1]
  Rotational constants: A =   5727.21533  B =   1168.07607  C =   1058.74168 [MHz]
  Nuclear repulsion =  303.449653813942973

  Charge       = 0
  Multiplicity = 1
  Electrons    = 56
  Nalpha       = 28
  Nbeta        = 28

  ==> Algorithm <==

  SCF Algorithm Type is DF.
  DIIS enabled.
  MOM disabled.
  Fractional occupation disabled.
  Guess Type is READ.
  Energy threshold   = 1.00e-08
  Density threshold  = 1.00e-08
  Integral threshold = 0.00e+00

  ==> Primary Basis <==

  Basis Set: 6-31G*
    Number of shells: 66
    Number of basis function: 129
    Number of Cartesian functions: 129
    Spherical Harmonics?: false
    Max angular momentum: 2

  ==> Pre-Iterations <==

   -------------------------------------------------------
    Irrep   Nso     Nmo     Nalpha   Nbeta   Ndocc  Nsocc
   -------------------------------------------------------
     A        129     129       0       0       0       0
   -------------------------------------------------------
    Total     129     129      28      28      28       0
   -------------------------------------------------------

 OEINTS: Overlap, kinetic, potential, dipole, and quadrupole integrals
         stored in file 35.

  ==> Integral Setup <==

  ==> DFJK: Density-Fitted J/K Matrices <==

    J tasked:                  Yes
    K tasked:                  Yes
    wK tasked:                  No
    OpenMP threads:              4
    Integrals threads:           4
    Memory (MB):              1430
    Algorithm:                Core
    Integral Cache:           NONE
    Schwarz Cutoff:          1E-12
    Fitting Condition:       1E-12

   => Auxiliary Basis Set <=

  Basis Set: 
    Number of shells: 276
    Number of basis function: 867
    Number of Cartesian functions: 867
    Spherical Harmonics?: false
    Max angular momentum: 3

  Minimum eigenvalue in the overlap matrix is 3.5694450282E-03.
  Using Symmetric Orthogonalization.
  SCF Guess: Reading in previously saved MOs, projecting if necessary.

  Using orbitals from previous SCF, no projection.
  Recomputing DOCC and SOCC from number of alpha and beta electrons from previous calculation.
              A 
    DOCC [    28 ]

  ==> Iterations <==

                           Total Energy        Delta E     RMS |[F,P]|

   @DF-RHF iter   0:  -309.02326748352755   -3.09023e+02   1.85456e-03 
   @DF-RHF iter   1:  -309.06153656052504   -3.82691e-02   3.20971e-04 
   @DF-RHF iter   2:  -309.06300559111105   -1.46903e-03   1.04533e-04 DIIS
   @DF-RHF iter   3:  -309.06317783857219   -1.72247e-04   4.06830e-05 DIIS
   @DF-RHF iter   4:  -309.06319466228263   -1.68237e-05   9.16159e-06 DIIS
   @DF-RHF iter   5:  -309.06319577790771   -1.11563e-06   4.11577e-06 DIIS
   @DF-RHF iter   6:  -309.06319623223771   -4.54330e-07   1.61751e-06 DIIS
   @DF-RHF iter   7:  -309.06319635739351   -1.25156e-07   8.30239e-07 DIIS
   @DF-RHF iter   8:  -309.06319639699586   -3.96024e-08   2.60240e-07 DIIS
   @DF-RHF iter   9:  -309.06319640032632   -3.33046e-09   5.67939e-08 DIIS
   @DF-RHF iter  10:  -309.06319640041943   -9.31095e-11   1.48247e-08 DIIS
   @DF-RHF iter  11:  -309.06319640042454   -5.11591e-12   4.45062e-09 DIIS

  ==> Post-Iterations <==

    Orbital Energies (a.u.)
    -----------------------

    Doubly Occupied:                                                      

       1A    -20.547741     2A    -11.324817     3A    -11.231307  
       4A    -11.229306     5A    -11.228357     6A    -11.225703  
       7A    -11.216393     8A     -1.393514     9A     -1.088717  
      10A     -1.027973    11A     -0.982496    12A     -0.900086  
      13A     -0.799043    14A     -0.734738    15A     -0.658065  
      16A     -0.649693    17A     -0.619268    18A     -0.603130  
      19A     -0.597700    20A     -0.571165    21A     -0.551687  
      22A     -0.540000    23A     -0.522213    24A     -0.496534  
      25A     -0.479625    26A     -0.472117    27A     -0.465020  
      28A     -0.397668  

    Virtual:                                                              

      29A      0.168344    30A      0.218886    31A      0.244044  
      32A      0.269028    33A      0.275739    34A      0.292479  
      35A      0.306318    36A      0.313651    37A      0.323023  
      38A      0.324192    39A      0.334102    40A      0.339625  
      41A      0.369518    42A      0.394594    43A      0.410220  
      44A      0.437642    45A      0.444810    46A      0.487844  
      47A      0.513133    48A      0.706749    49A      0.714635  
      50A      0.728803    51A      0.746075    52A      0.761239  
      53A      0.767327    54A      0.801954    55A      0.830213  
      56A      0.868386    57A      0.906341    58A      0.930788  
      59A      0.949632    60A      0.970476    61A      0.981606  
      62A      0.990936    63A      1.043408    64A      1.088898  
      65A      1.108295    66A      1.123831    67A      1.129535  
      68A      1.146803    69A      1.157795    70A      1.162510  
      71A      1.183434    72A      1.185255    73A      1.205511  
      74A      1.222574    75A      1.230768    76A      1.236718  
      77A      1.254999    78A      1.271858    79A      1.340604  
      80A      1.364708    81A      1.417017    82A      1.450995  
      83A      1.463007    84A      1.588157    85A      1.671405  
      86A      1.714086    87A      1.781215    88A      1.811793  
      89A      1.842281    90A      1.881440    91A      1.988287  
      92A      2.029214    93A      2.053344    94A      2.098388  
      95A      2.139385    96A      2.150499    97A      2.171106  
      98A      2.210843    99A      2.231839   100A      2.281288  
     101A      2.297012   102A      2.314126   103A      2.341123  
     104A      2.408800   105A      2.461368   106A      2.509769  
     107A      2.531875   108A      2.624529   109A      2.629495  
     110A      2.674462   111A      2.689492   112A      2.728573  
     113A      2.752909   114A      2.772336   115A      2.848149  
     116A      2.943311   117A      2.991951   118A      3.013743  
     119A      3.082290   120A      3.128122   121A      3.375859  
     122A      3.377341   123A      4.457974   124A      4.521282  
     125A      4.595262   126A      4.703368   127A      4.838757  
     128A      4.886302   129A      4.999058  

    Final Occupation by Irrep:
              A 
    DOCC [    28 ]

  Energy converged.

  @DF-RHF Final Energy:  -309.06319640042454

   => Energetics <=

    Nuclear Repulsion Energy =            303.4496538139429731
    One-Electron Energy =               -1019.9175502589434927
    Two-Electron Energy =                 407.4047000445759181
    DFT Exchange-Correlation Energy =       0.0000000000000000
    Empirical Dispersion Energy =           0.0000000000000000
    PCM Polarization Energy =               0.0000000000000000
    EFP Energy =                            0.0000000000000000
    Total Energy =                       -309.0631964004246015

    Alert: EFP and PCM quantities not currently incorporated into SCF psivars.

Properties will be evaluated at   0.000000,   0.000000,   0.000000 Bohr
  ==> Properties <==


Properties computed using the SCF density matrix

  Nuclear Dipole Moment: (a.u.)
     X:     6.9674      Y:     6.1765      Z:     1.9115

  Electronic Dipole Moment: (a.u.)
     X:    -6.5101      Y:    -5.0980      Z:    -1.6477

  Dipole Moment: (a.u.)
     X:     0.4573      Y:     1.0785      Z:     0.2638     Total:     1.2008

  Dipole Moment: (Debye)
     X:     1.1624      Y:     2.7412      Z:     0.6705     Total:     3.0520


  Saving occupied orbitals to File 180.

*** tstop() called on cx1-1-3-4.cx1.hpc.ic.ac.uk at Fri Sep  2 12:49:05 2016
Module time:
	user time   =      18.70 seconds =       0.31 minutes
	system time =       0.24 seconds =       0.00 minutes
	total time  =          6 seconds =       0.10 minutes
Total time:
	user time   =      61.36 seconds =       1.02 minutes
	system time =       0.75 seconds =       0.01 minutes
	total time  =         21 seconds =       0.35 minutes

*** tstart() called on cx1-1-3-4.cx1.hpc.ic.ac.uk
*** at Fri Sep  2 12:49:05 2016


         ------------------------------------------------------------
                                   SCF GRAD                          
                          Rob Parrish, Justin Turney,                
                       Andy Simmonett, and Alex Sokolov              
         ------------------------------------------------------------

  ==> Geometry <==

    Molecular point group: c1
    Full point group: C1

    Geometry (in Angstrom), charge = 0, multiplicity = 1:

       Center              X                  Y                   Z               Mass       
    ------------   -----------------  -----------------  -----------------  -----------------
           O         -1.846864454686    -1.484728519086    -0.508548185600    15.994914619560
           C         -1.528774061027    -0.370476148364    -0.223134472456    12.000000000000
           C         -0.239284699146    -0.095831038456     0.529717149404    12.000000000000
           C         -2.376869489611     0.820797338519    -0.610288789363    12.000000000000
           C          0.961384695944    -0.097071351376    -0.435444270933    12.000000000000
           H         -0.313975116884     0.846889013615     1.057165420617     1.007825032070
           H         -0.114582306740    -0.887890513751     1.260380116515     1.007825032070
           C          2.345593997180    -0.055473998549     0.233576149725    12.000000000000
           H          0.879936924928     0.722324869301    -1.147676981752     1.007825032070
           H          0.894873320618    -1.006225002731    -1.024184073311     1.007825032070
           C          2.674663078974     1.223091043464     1.011960432952    12.000000000000
           H          2.448888302824    -0.914135550250     0.892866879946     1.007825032070
           H          3.092674400938    -0.185805105662    -0.544485826775     1.007825032070
           H          2.049734021651     1.347081594468     1.887870475891     1.007825032070
           H          2.551324777861     2.103130215346     0.386232174850     1.007825032070
           H          3.703801310754     1.209375577585     1.356057871626     1.007825032070
           H         -3.184147670159     0.505580507983    -1.256586930299     1.007825032070
           H         -1.777005446276     1.575690630418    -1.110077839922     1.007825032070
           H         -2.789876638339     1.280045125144     0.284013739211     1.007825032070

  Nuclear repulsion =  303.449653813943030

  ==> Basis Set <==

  Basis Set: 6-31G*
    Number of shells: 66
    Number of basis function: 129
    Number of Cartesian functions: 129
    Spherical Harmonics?: false
    Max angular momentum: 2

  ==> DFJKGrad: Density-Fitted SCF Gradients <==

    Gradient:                    1
    J tasked:                  Yes
    K tasked:                  Yes
    wK tasked:                  No
    OpenMP threads:              4
    Integrals threads:           4
    Memory (MB):              1430
    Schwarz Cutoff:          0E+00
    Fitting Condition:       1E-12

   => Auxiliary Basis Set <=

  Basis Set: 
    Number of shells: 276
    Number of basis function: 867
    Number of Cartesian functions: 867
    Spherical Harmonics?: false
    Max angular momentum: 3


  -Total Gradient:
     Atom            X                  Y                   Z
    ------   -----------------  -----------------  -----------------
       1       -0.000063931945    -0.000128968922     0.000045755485
       2        0.000462889598     0.000027782637     0.000507406670
       3       -0.002317159855    -0.000365898350     0.000050893602
       4        0.000028427717     0.000013505362     0.000039492250
       5       -0.001639950278     0.002072066467     0.001489988828
       6       -0.001074016230    -0.001632571578    -0.001356243967
       7       -0.000205848734    -0.000084790750     0.000056303080
       8        0.001146635995    -0.000207504984    -0.001393477142
       9        0.000823243351    -0.001497881972    -0.001904222864
      10       -0.001185790839     0.000780327646    -0.000070131277
      11        0.001070898690     0.000175844627     0.002577882576
      12        0.000628885667     0.000069742987    -0.000143666578
      13        0.000248048549    -0.000025679207     0.000578934254
      14        0.002196390445     0.000231877491    -0.000732194853
      15        0.000158136808    -0.000145841668    -0.000161794433
      16       -0.000259452014     0.000711342619     0.000431291818
      17        0.000008164934     0.000004232220    -0.000028137535
      18       -0.000046951437     0.000010717104     0.000002485329
      19        0.000021379587    -0.000008301727     0.000009434757


*** tstop() called on cx1-1-3-4.cx1.hpc.ic.ac.uk at Fri Sep  2 12:49:12 2016
Module time:
	user time   =      22.07 seconds =       0.37 minutes
	system time =       0.30 seconds =       0.01 minutes
	total time  =          7 seconds =       0.12 minutes
Total time:
	user time   =      83.45 seconds =       1.39 minutes
	system time =       1.05 seconds =       0.02 minutes
	total time  =         28 seconds =       0.47 minutes
CURRENT ENERGY: -309.0631964004

			-----------------------------------------
			 OPTKING 2.0: for geometry optimizations 
			  - R.A. King,  Bethel University        
			-----------------------------------------

	Previous internal coordinate definitions found.
	---Fragment 1 Geometry and Gradient---
	 O          -3.4900680239       -2.8057302828       -0.9610167962
	 C          -2.8889642944       -0.7000984592       -0.4216630437
	 C          -0.4521825492       -0.1810944177        1.0010203403
	 C          -4.4916323890        1.5510821804       -1.1532786739
	 C           1.8167537837       -0.1834382695       -0.8228704182
	 H          -0.5933269835        1.6003883007        1.9977531221
	 H          -0.2165291794       -1.6778699070        2.3817732435
	 C           4.4325302736       -0.1048306648        0.4413949542
	 H           1.6628398023        1.3649961820       -2.1687951845
	 H           1.6910654996       -1.9014896832       -1.9354274082
	 C           5.0543807170        2.3113071077        1.9123280756
	 H           4.6277282224       -1.7274658383        1.6872738762
	 H           5.8443076360       -0.3511207638       -1.0289290958
	 H           3.8734359462        2.5456152922        3.5675581738
	 H           4.8213051062        3.9743401288        0.7298730342
	 H           6.9991701279        2.2853886334        2.5625779977
	 H          -6.0171670633        0.9554086982       -2.3746051604
	 H          -3.3580536301        2.9776237616       -2.0977431036
	 H          -5.2721027910        2.4189347243        0.5367081851
	            -0.0000639319       -0.0001289689        0.0000457555
	             0.0004628896        0.0000277826        0.0005074067
	            -0.0023171599       -0.0003658984        0.0000508936
	             0.0000284277        0.0000135054        0.0000394923
	            -0.0016399503        0.0020720665        0.0014899888
	            -0.0010740162       -0.0016325716       -0.0013562440
	            -0.0002058487       -0.0000847908        0.0000563031
	             0.0011466360       -0.0002075050       -0.0013934771
	             0.0008232434       -0.0014978820       -0.0019042229
	            -0.0011857908        0.0007803276       -0.0000701313
	             0.0010708987        0.0001758446        0.0025778826
	             0.0006288857        0.0000697430       -0.0001436666
	             0.0002480485       -0.0000256792        0.0005789343
	             0.0021963904        0.0002318775       -0.0007321949
	             0.0001581368       -0.0001458417       -0.0001617944
	            -0.0002594520        0.0007113426        0.0004312918
	             0.0000081649        0.0000042322       -0.0000281375
	            -0.0000469514        0.0000107171        0.0000024853
	             0.0000213796       -0.0000083017        0.0000094348

	---Fragment 1 Intrafragment Coordinates---
	 - Coordinate -           - BOHR/RAD -       - ANG/DEG -
	 R(1,2)           =         2.255197	       1.193399
	 R(2,3)           =         2.869024	       1.518222
	 R(2,4)           =         2.858605	       1.512709
	 R(3,5)           =         2.911126	       1.540502
	 R(3,6)           =         2.046235	       1.082821
	 R(3,7)           =         2.049963	       1.084794
	 R(4,17)          =         2.042969	       1.081093
	 R(4,18)          =         2.052324	       1.086043
	 R(4,19)          =         2.053864	       1.086858
	 R(5,8)           =         2.906344	       1.537971
	 R(5,9)           =         2.057390	       1.088724
	 R(5,10)          =         2.050678	       1.085172
	 R(8,11)          =         2.896215	       1.532611
	 R(8,12)          =         2.055058	       1.087490
	 R(8,13)          =         2.053199	       1.086506
	 R(11,14)         =         2.046782	       1.083111
	 R(11,15)         =         2.053826	       1.086838
	 R(11,16)         =         2.050781	       1.085227
	 B(1,2,3)         =         2.110499	     120.922683
	 B(1,2,4)         =         2.123085	     121.643831
	 B(2,3,5)         =         1.929599	     110.557894
	 B(2,3,6)         =         1.918194	     109.904444
	 B(2,3,7)         =         1.875018	     107.430642
	 B(2,4,17)        =         1.919878	     110.000912
	 B(2,4,18)        =         1.934244	     110.824046
	 B(2,4,19)        =         1.912629	     109.585588
	 B(3,2,4)         =         2.049505	     117.427961
	 B(3,5,8)         =         2.014091	     115.398941
	 B(3,5,9)         =         1.929385	     110.545609
	 B(3,5,10)        =         1.867964	     107.026447
	 B(5,3,6)         =         1.938684	     111.078438
	 B(5,3,7)         =         1.909020	     109.378764
	 B(5,8,11)        =         2.022766	     115.895946
	 B(5,8,12)        =         1.904826	     109.138469
	 B(5,8,13)        =         1.879789	     107.703999
	 B(6,3,7)         =         1.891797	     108.391998
	 B(8,5,9)         =         1.908741	     109.362830
	 B(8,5,10)        =         1.890016	     108.289918
	 B(8,11,14)       =         1.963124	     112.478711
	 B(8,11,15)       =         1.937708	     111.022471
	 B(8,11,16)       =         1.932755	     110.738724
	 B(9,5,10)        =         1.845269	     105.726121
	 B(11,8,12)       =         1.907527	     109.293233
	 B(11,8,13)       =         1.892450	     108.429404
	 B(12,8,13)       =         1.848470	     105.909539
	 B(14,11,15)      =         1.883280	     107.903976
	 B(14,11,16)      =         1.867307	     106.988834
	 B(15,11,16)      =         1.875910	     107.481748
	 B(17,4,18)       =         1.917714	     109.876927
	 B(17,4,19)       =         1.908533	     109.350877
	 B(18,4,19)       =         1.870090	     107.148246
	 D(1,2,3,5)       =         1.416682	      81.169917
	 D(1,2,3,6)       =        -2.720147	    -155.852939
	 D(1,2,3,7)       =        -0.665269	     -38.117115
	 D(1,2,4,17)      =        -0.125508	      -7.191057
	 D(1,2,4,18)      =        -2.249668	    -128.896459
	 D(1,2,4,19)      =         1.973260	     113.059470
	 D(2,3,5,8)       =        -2.977187	    -170.580269
	 D(2,3,5,9)       =         1.128803	      64.675669
	 D(2,3,5,10)      =        -0.872678	     -50.000759
	 D(3,2,4,17)      =         3.001289	     171.961187
	 D(3,2,4,18)      =         0.877129	      50.255785
	 D(3,2,4,19)      =        -1.183129	     -67.788286
	 D(3,5,8,11)      =        -1.140681	     -65.356197
	 D(3,5,8,12)      =         1.021186	      58.509620
	 D(3,5,8,13)      =         3.020321	     173.051645
	 D(4,2,3,5)       =        -1.710227	     -97.988786
	 D(4,2,3,6)       =         0.436129	      24.988358
	 D(4,2,3,7)       =         2.491007	     142.724182
	 D(5,8,11,14)     =         1.160727	      66.504753
	 D(5,8,11,15)     =        -0.951597	     -54.522466
	 D(5,8,11,16)     =        -3.034066	    -173.839186
	 D(6,3,5,8)       =         1.171600	      67.127728
	 D(6,3,5,9)       =        -1.005595	     -57.616334
	 D(6,3,5,10)      =        -3.007076	    -172.292762
	 D(7,3,5,8)       =        -0.915907	     -52.477580
	 D(7,3,5,9)       =        -3.093101	    -177.221642
	 D(7,3,5,10)      =         1.188603	      68.101930
	*D(9,5,8,11)      =         1.047198	      60.000025
	 D(9,5,8,12)      =        -3.074121	    -176.134159
	 D(9,5,8,13)      =        -1.074986	     -61.592134
	 D(10,5,8,11)     =         3.050040	     174.754423
	 D(10,5,8,12)     =        -1.071279	     -61.379760
	 D(10,5,8,13)     =         0.927857	      53.162265
	 D(12,8,11,14)    =        -0.999734	     -57.280563
	 D(12,8,11,15)    =        -3.112058	    -178.307782
	 D(12,8,11,16)    =         1.088658	      62.375498
	 D(13,8,11,14)    =        -3.007041	    -172.290784
	 D(13,8,11,15)    =         1.163820	      66.681997
	 D(13,8,11,16)    =        -0.918649	     -52.634723

	Current energy   :      -309.0631964004

	Energy change for the previous step:
		Projected    :        -0.0039059118
		Actual       :        -0.0003512393
	Energy ratio indicates iffy step: Trust radius decreased to 1.250e-01.


	Performing BFGS update.
	Previous computed or guess Hessian on step 1.
	Steps to be used in Hessian update: 1
	Taking RFO optimization step.
	Going to follow RFO solution 1.
	Using RFO vector 1.

	Determining step-restricting scale parameter for RS-RFO.
	Maximum step size allowed    0.12500

	 Iter      |step|        alpha        rfo_root  
	------------------------------------------------
	    0     0.17097       1.00000           1
	    1     0.13848       1.42024           1
	    2     0.12710       1.66918           1
	    3     0.12507       1.72374           1
	    4     0.12500       1.72573           1
	------------------------------------------------
	Norm of target step-size    0.12500
	Projected energy change by RFO approximation:        -0.0003378145

	Back-transformation to cartesian coordinates...
	Successfully converged to displaced geometry.

	Back-transformation to cartesian coordinates to adjust frozen coordinates...
	Successfully converged to displaced geometry.

	--- Internal Coordinate Step in ANG or DEG, aJ/ANG or AJ/DEG ---
	 ---------------------------------------------------------------------------
	   Coordinate                Previous        Force       Change         New 
	   ----------                --------       ------       ------       ------
	    1 R(1,2)          =      1.193399    -0.001042    -0.000040     1.193359
	    2 R(2,3)          =      1.518222     0.005103     0.000691     1.518913
	    3 R(2,4)          =      1.512709    -0.000031    -0.000004     1.512704
	    4 R(3,5)          =      1.540502    -0.016979    -0.002466     1.538036
	    5 R(3,6)          =      1.082821     0.016542     0.001977     1.084799
	    6 R(3,7)          =      1.084794    -0.000628    -0.000078     1.084716
	    7 R(4,17)         =      1.081093    -0.000078    -0.000009     1.081084
	    8 R(4,18)         =      1.086043     0.000162     0.000019     1.086062
	    9 R(4,19)         =      1.086858     0.000032     0.000004     1.086862
	   10 R(5,8)          =      1.537971    -0.042808    -0.006069     1.531902
	   11 R(5,9)          =      1.088724    -0.000468    -0.000056     1.088667
	   12 R(5,10)         =      1.085172     0.004474     0.000530     1.085702
	   13 R(8,11)         =      1.532611    -0.021140    -0.002989     1.529623
	   14 R(8,12)         =      1.087490     0.000679     0.000085     1.087574
	   15 R(8,13)         =      1.086506     0.001985     0.000245     1.086751
	   16 R(11,14)        =      1.083111     0.015100     0.001802     1.084913
	   17 R(11,15)        =      1.086838     0.000353     0.000030     1.086868
	   18 R(11,16)        =      1.085227     0.000974     0.000115     1.085342
	   19 B(1,2,3)        =    120.922683    -0.000000    -0.002335   120.920348
	   20 B(1,2,4)        =    121.643831    -0.000002    -0.005752   121.638079
	   21 B(2,3,5)        =    110.557894    -0.000011     0.005514   110.563408
	   22 B(2,3,6)        =    109.904444     0.000053     0.245547   110.149991
	   23 B(2,3,7)        =    107.430642     0.000022     0.169843   107.600485
	   24 B(2,4,17)       =    110.000912     0.000000    -0.000044   110.000868
	   25 B(2,4,18)       =    110.824046    -0.000005    -0.014675   110.809371
	   26 B(2,4,19)       =    109.585588     0.000003     0.008885   109.594473
	   27 B(3,2,4)        =    117.427961     0.000002     0.002926   117.430887
	   28 B(3,5,8)        =    115.398941    -0.000392    -1.109101   114.289840
	   29 B(3,5,9)        =    110.545609     0.000046    -0.617981   109.927629
	   30 B(3,5,10)       =    107.026447     0.000215     0.950962   107.977408
	   31 B(5,3,6)        =    111.078438    -0.000051    -0.272068   110.806370
	   32 B(5,3,7)        =    109.378764    -0.000003    -0.045937   109.332827
	   33 B(5,8,11)       =    115.895946    -0.000405    -1.043034   114.852913
	   34 B(5,8,12)       =    109.138469     0.000093    -0.050644   109.087825
	   35 B(5,8,13)       =    107.703999     0.000106     0.241056   107.945056
	   36 B(6,3,7)        =    108.391998    -0.000007    -0.092674   108.299324
	   37 B(8,5,9)        =    109.362830     0.000126    -0.148341   109.214489
	   38 B(8,5,10)       =    108.289918     0.000062     0.403049   108.692968
	   39 B(8,11,14)      =    112.478711    -0.000109    -0.371878   112.106833
	   40 B(8,11,15)      =    111.022471     0.000046     0.122701   111.145173
	   41 B(8,11,16)      =    110.738724    -0.000065    -0.142378   110.596346
	   42 B(9,5,10)       =    105.726121    -0.000026     0.705821   106.431942
	   43 B(11,8,12)      =    109.293233     0.000103     0.177495   109.470728
	   44 B(11,8,13)      =    108.429404     0.000173     0.461532   108.890936
	   45 B(12,8,13)      =    105.909539    -0.000042     0.327337   106.236875
	   46 B(14,11,15)     =    107.903976     0.000011    -0.060444   107.843532
	   47 B(14,11,16)     =    106.988834     0.000100     0.336348   107.325182
	   48 B(15,11,16)     =    107.481748     0.000026     0.144757   107.626506
	   49 B(17,4,18)      =    109.876927     0.000003     0.007557   109.884484
	   50 B(17,4,19)      =    109.350877    -0.000002    -0.005351   109.345526
	   51 B(18,4,19)      =    107.148246     0.000001     0.003793   107.152040
	   52 D(1,2,3,5)      =     81.169917     0.000002    -0.099601    81.070316
	   53 D(1,2,3,6)      =   -155.852939    -0.000006    -0.272291  -156.125230
	   54 D(1,2,3,7)      =    -38.117115     0.000002    -0.150247   -38.267362
	   55 D(1,2,4,17)     =     -7.191057     0.000000     0.190395    -7.000662
	   56 D(1,2,4,18)     =   -128.896459     0.000000     0.190639  -128.705819
	   57 D(1,2,4,19)     =    113.059470     0.000000     0.189353   113.248823
	   58 D(2,3,5,8)      =   -170.580269    -0.000011    -2.514903  -173.095172
	   59 D(2,3,5,9)      =     64.675669     0.000012    -0.978893    63.696776
	   60 D(2,3,5,10)     =    -50.000759    -0.000013    -2.022561   -52.023320
	   61 D(3,2,4,17)     =    171.961187    -0.000000    -0.140865   171.820322
	   62 D(3,2,4,18)     =     50.255785    -0.000000    -0.140621    50.115164
	   63 D(3,2,4,19)     =    -67.788286    -0.000000    -0.141907   -67.930193
	   64 D(3,5,8,11)     =    -65.356197     0.000031     1.763669   -63.592528
	   65 D(3,5,8,12)     =     58.509620     0.000011     1.196274    59.705893
	   66 D(3,5,8,13)     =    173.051645     0.000023     1.683193   174.734837
	   67 D(4,2,3,5)      =    -97.988786     0.000003     0.229179   -97.759607
	   68 D(4,2,3,6)      =     24.988358    -0.000005     0.056488    25.044846
	   69 D(4,2,3,7)      =    142.724182     0.000003     0.178533   142.902714
	   70 D(5,8,11,14)    =     66.504753    -0.000012    -0.065083    66.439670
	   71 D(5,8,11,15)    =    -54.522466    -0.000005     0.183987   -54.338479
	   72 D(5,8,11,16)    =   -173.839186    -0.000010     0.016009  -173.823177
	   73 D(6,3,5,8)      =     67.127728    -0.000016    -2.644249    64.483478
	   74 D(6,3,5,9)      =    -57.616334     0.000006    -1.108239   -58.724573
	   75 D(6,3,5,10)     =   -172.292762    -0.000019    -2.151907  -174.444670
	   76 D(7,3,5,8)      =    -52.477580    -0.000006    -2.331764   -54.809344
	   77 D(7,3,5,9)      =   -177.221642     0.000016    -0.795754  -178.017395
	   78 D(7,3,5,10)     =     68.101930    -0.000009    -1.839422    66.262509
	   79 *D(9,5,8,11)    =     60.000025    -0.000000     0.000000    60.000025
	   80 D(9,5,8,12)     =   -176.134159    -0.000020    -0.567396  -176.701554
	   81 D(9,5,8,13)     =    -61.592134    -0.000008    -0.080477   -61.672610
	   82 D(10,5,8,11)    =    174.754423     0.000016     0.977843   175.732265
	   83 D(10,5,8,12)    =    -61.379760    -0.000004     0.410447   -60.969314
	   84 D(10,5,8,13)    =     53.162265     0.000008     0.897366    54.059630
	   85 D(12,8,11,14)   =    -57.280563     0.000010     0.626518   -56.654046
	   86 D(12,8,11,15)   =   -178.307782     0.000016     0.875588  -177.432194
	   87 D(12,8,11,16)   =     62.375498     0.000012     0.707610    63.083108
	   88 D(13,8,11,14)   =   -172.290784    -0.000013    -0.112645  -172.403429
	   89 D(13,8,11,15)   =     66.681997    -0.000007     0.136425    66.818423
	   90 D(13,8,11,16)   =    -52.634723    -0.000011    -0.031552   -52.666275
	 ---------------------------------------------------------------------------

  ==> Convergence Check <==

  Measures of convergence in internal coordinates in au.
  Criteria marked as inactive (o), active & met (*), and active & unmet ( ).
  ---------------------------------------------------------------------------------------------
   Step     Total Energy     Delta E     MAX Force     RMS Force      MAX Disp      RMS Disp   
  ---------------------------------------------------------------------------------------------
    Convergence Criteria    1.00e-06 *    3.00e-04 *             o    1.20e-03 *             o
  ---------------------------------------------------------------------------------------------
      2    -309.06319640   -3.51e-04      5.32e-03      1.27e-03 o    4.62e-02      1.32e-02 o  ~
  ---------------------------------------------------------------------------------------------

	Writing optimization data to binary file.
	Structure for next step:
	Cartesian Geometry (in Angstrom)
	    O    -1.8591204871  -1.4685207752  -0.5055965989
	    C    -1.5179441816  -0.3623369969  -0.2156630726
	    C    -0.2154439131  -0.1164725398   0.5260509159
	    C    -2.3444380054   0.8473294040  -0.5923451398
	    C     0.9735178623  -0.1349028210  -0.4494412739
	    H    -0.2615580560   0.8269379425   1.0595658608
	    H    -0.0962757502  -0.9131090575   1.2525337404
	    C     2.3455727075  -0.0617653368   0.2279360220
	    H     0.8816338121   0.6831004177  -1.1619191417
	    H     0.9190119190  -1.0527026147  -1.0268685052
	    C     2.6132810820   1.2313123007   0.9999643225
	    H     2.4582970169  -0.9126836652   0.8958049202
	    H     3.1050779842  -0.1762060879  -0.5408837671
	    H     1.9656400593   1.3322073921   1.8644975222
	    H     2.4638842216   2.1031228544   0.3683717848
	    H     3.6373586131   1.2568541131   1.3585441424
	    H    -3.1626621115   0.5509526275  -1.2337590250
	    H    -1.7327826323   1.5915530957  -1.0938824924
	    H    -2.7415546245   1.3116989343   0.3065029815
			--------------------------
			 OPTKING Finished Execution 
			--------------------------

    Structure for next step:
    Molecular point group: c1
    Full point group: C1

    Geometry (in Angstrom), charge = 0, multiplicity = 1:

    O           -1.859243546748    -1.468545524739    -0.504952977166
    C           -1.518067267317    -0.362361830923    -0.215019473001
    C           -0.215567098226    -0.116497392593     0.526694458912
    C           -2.344561027945     0.847304477604    -0.591701511423
    C            0.973394586331    -0.134927672316    -0.448797656377
    H           -0.261681237659     0.826913017660     1.060209363050
    H           -0.096398944452    -0.913133849423     1.253177227932
    C            2.345449326809    -0.061790193730     0.228579587730
    H            0.881510543139     0.683075503868    -1.161275469816
    H            0.918888647206    -1.052727395962    -1.026224843572
    C            2.613157680852     1.231287344995     1.000607829304
    H            2.458173627584    -0.912708457162     0.896448434974
    H            3.104954545501    -0.176230936115    -0.540240142663
    H            1.965516707557     1.332182428682     1.865140962938
    H            2.463760831873     2.103097832119     0.369015339841
    H            3.637235133749     1.256829155498     1.359187621867
    H           -3.162785071635     0.550927723757    -1.233115347572
    H           -1.732905701542     1.591528112517    -1.093238825713
    H           -2.741677616794     1.311673972444     0.307146541224

gradient() will perform analytic gradient computation.

*** tstart() called on cx1-1-3-4.cx1.hpc.ic.ac.uk
*** at Fri Sep  2 12:49:12 2016


         ---------------------------------------------------------
                                   SCF
            by Justin Turney, Rob Parrish, and Andy Simmonett
                              RHF Reference
                        4 Threads,   2000 MiB Core
         ---------------------------------------------------------

  ==> Geometry <==

    Molecular point group: c1
    Full point group: C1

    Geometry (in Angstrom), charge = 0, multiplicity = 1:

       Center              X                  Y                   Z               Mass       
    ------------   -----------------  -----------------  -----------------  -----------------
           O         -1.859243546748    -1.468545524739    -0.504952977166    15.994914619560
           C         -1.518067267317    -0.362361830923    -0.215019473001    12.000000000000
           C         -0.215567098226    -0.116497392593     0.526694458912    12.000000000000
           C         -2.344561027945     0.847304477604    -0.591701511423    12.000000000000
           C          0.973394586331    -0.134927672316    -0.448797656377    12.000000000000
           H         -0.261681237659     0.826913017660     1.060209363050     1.007825032070
           H         -0.096398944452    -0.913133849423     1.253177227932     1.007825032070
           C          2.345449326809    -0.061790193730     0.228579587730    12.000000000000
           H          0.881510543139     0.683075503868    -1.161275469816     1.007825032070
           H          0.918888647206    -1.052727395962    -1.026224843572     1.007825032070
           C          2.613157680852     1.231287344995     1.000607829304    12.000000000000
           H          2.458173627584    -0.912708457162     0.896448434974     1.007825032070
           H          3.104954545501    -0.176230936115    -0.540240142663     1.007825032070
           H          1.965516707557     1.332182428682     1.865140962938     1.007825032070
           H          2.463760831873     2.103097832119     0.369015339841     1.007825032070
           H          3.637235133749     1.256829155498     1.359187621867     1.007825032070
           H         -3.162785071635     0.550927723757    -1.233115347572     1.007825032070
           H         -1.732905701542     1.591528112517    -1.093238825713     1.007825032070
           H         -2.741677616794     1.311673972444     0.307146541224     1.007825032070

  Running in c1 symmetry.

  Rotational constants: A =      0.18839  B =      0.03974  C =      0.03586 [cm^-1]
  Rotational constants: A =   5647.76600  B =   1191.40085  C =   1075.15163 [MHz]
  Nuclear repulsion =  304.373459567866234

  Charge       = 0
  Multiplicity = 1
  Electrons    = 56
  Nalpha       = 28
  Nbeta        = 28

  ==> Algorithm <==

  SCF Algorithm Type is DF.
  DIIS enabled.
  MOM disabled.
  Fractional occupation disabled.
  Guess Type is READ.
  Energy threshold   = 1.00e-08
  Density threshold  = 1.00e-08
  Integral threshold = 0.00e+00

  ==> Primary Basis <==

  Basis Set: 6-31G*
    Number of shells: 66
    Number of basis function: 129
    Number of Cartesian functions: 129
    Spherical Harmonics?: false
    Max angular momentum: 2

  ==> Pre-Iterations <==

   -------------------------------------------------------
    Irrep   Nso     Nmo     Nalpha   Nbeta   Ndocc  Nsocc
   -------------------------------------------------------
     A        129     129       0       0       0       0
   -------------------------------------------------------
    Total     129     129      28      28      28       0
   -------------------------------------------------------

 OEINTS: Overlap, kinetic, potential, dipole, and quadrupole integrals
         stored in file 35.

  ==> Integral Setup <==

  ==> DFJK: Density-Fitted J/K Matrices <==

    J tasked:                  Yes
    K tasked:                  Yes
    wK tasked:                  No
    OpenMP threads:              4
    Integrals threads:           4
    Memory (MB):              1430
    Algorithm:                Core
    Integral Cache:           NONE
    Schwarz Cutoff:          1E-12
    Fitting Condition:       1E-12

   => Auxiliary Basis Set <=

  Basis Set: 
    Number of shells: 276
    Number of basis function: 867
    Number of Cartesian functions: 867
    Spherical Harmonics?: false
    Max angular momentum: 3

  Minimum eigenvalue in the overlap matrix is 3.5228057130E-03.
  Using Symmetric Orthogonalization.
  SCF Guess: Reading in previously saved MOs, projecting if necessary.

  Using orbitals from previous SCF, no projection.
  Recomputing DOCC and SOCC from number of alpha and beta electrons from previous calculation.
              A 
    DOCC [    28 ]

  ==> Iterations <==

                           Total Energy        Delta E     RMS |[F,P]|

   @DF-RHF iter   0:  -309.06210618983903   -3.09062e+02   5.81878e-04 
   @DF-RHF iter   1:  -309.06346346307362   -1.35727e-03   9.39719e-05 
   @DF-RHF iter   2:  -309.06359022438426   -1.26761e-04   3.01113e-05 DIIS
   @DF-RHF iter   3:  -309.06360488980238   -1.46654e-05   1.02660e-05 DIIS
   @DF-RHF iter   4:  -309.06360606063629   -1.17083e-06   1.72912e-06 DIIS
   @DF-RHF iter   5:  -309.06360614015114   -7.95148e-08   7.41025e-07 DIIS
   @DF-RHF iter   6:  -309.06360615220854   -1.20574e-08   3.73762e-07 DIIS
   @DF-RHF iter   7:  -309.06360615628023   -4.07169e-09   1.67137e-07 DIIS
   @DF-RHF iter   8:  -309.06360615736446   -1.08423e-09   7.02767e-08 DIIS
[...]
	 R(5,8)           =         2.895643	       1.532308
	 R(5,9)           =         2.057431	       1.088746
	 R(5,10)          =         2.051026	       1.085356
	 R(8,11)          =         2.890146	       1.529400
	 R(8,12)          =         2.055279	       1.087607
	 R(8,13)          =         2.053762	       1.086804
	 R(11,14)         =         2.050416	       1.085034
	 R(11,15)         =         2.053893	       1.086873
	 R(11,16)         =         2.050971	       1.085327
	 B(1,2,3)         =         2.110488	     120.922056
	 B(1,2,4)         =         2.123118	     121.645672
	 B(2,3,5)         =         1.929958	     110.578445
	 B(2,3,6)         =         1.923309	     110.197484
	 B(2,3,7)         =         1.878093	     107.606829
	 B(2,4,17)        =         1.919803	     109.996610
	 B(2,4,18)        =         1.934122	     110.817031
	 B(2,4,19)        =         1.912780	     109.594230
	 B(3,2,4)         =         2.049443	     117.424433
	 B(3,5,8)         =         1.991563	     114.108140
	 B(3,5,9)         =         1.917586	     109.869568
	 B(3,5,10)        =         1.884392	     107.967694
	 B(5,3,6)         =         1.931199	     110.649553
	 B(5,3,7)         =         1.909862	     109.427035
	 B(5,8,11)        =         2.002280	     114.722168
	 B(5,8,12)        =         1.904614	     109.126358
	 B(5,8,13)        =         1.886467	     108.086625
	 B(6,3,7)         =         1.890165	     108.298477
	 B(8,5,9)         =         1.906193	     109.216822
	 B(8,5,10)        =         1.900233	     108.875331
	 B(8,11,14)       =         1.955413	     112.036928
	 B(8,11,15)       =         1.939956	     111.151270
	 B(8,11,16)       =         1.931581	     110.671434
	 B(9,5,10)        =         1.859095	     106.518285
	 B(11,8,12)       =         1.909690	     109.417170
	 B(11,8,13)       =         1.900715	     108.902967
	 B(12,8,13)       =         1.854254	     106.240932
	 B(14,11,15)      =         1.881817	     107.820189
	 B(14,11,16)      =         1.873300	     107.332206
	 B(15,11,16)      =         1.878534	     107.632070
	 B(17,4,18)       =         1.917768	     109.880031
	 B(17,4,19)       =         1.908473	     109.347462
	 B(18,4,19)       =         1.870146	     107.151487
	 D(1,2,3,5)       =         1.416374	      81.152256
	 D(1,2,3,6)       =        -2.726188	    -156.199082
	 D(1,2,3,7)       =        -0.668675	     -38.312255
	 D(1,2,4,17)      =        -0.123808	      -7.093687
	 D(1,2,4,18)      =        -2.247905	    -128.795458
	 D(1,2,4,19)      =         1.974934	     113.155375
	 D(2,3,5,8)       =        -3.050853	    -174.800975
	 D(2,3,5,9)       =         1.084977	      62.164575
	 D(2,3,5,10)      =        -0.935877	     -53.621828
	 D(3,2,4,17)      =         3.000159	     171.896441
	 D(3,2,4,18)      =         0.876062	      50.194671
	 D(3,2,4,19)      =        -1.184284	     -67.854496
	 D(3,5,8,11)      =        -1.106335	     -63.388354
	 D(3,5,8,12)      =         1.043288	      59.775999
	 D(3,5,8,13)      =         3.052677	     174.905507
	 D(4,2,3,5)       =        -1.707728	     -97.845594
	 D(4,2,3,6)       =         0.432895	      24.803068
	 D(4,2,3,7)       =         2.490408	     142.689895
	 D(5,8,11,14)     =         1.135788	      65.075859
	 D(5,8,11,15)     =        -0.970898	     -55.628335
	 D(5,8,11,16)     =        -3.057352	    -175.173373
	 D(6,3,5,8)       =         1.096319	      62.814426
	 D(6,3,5,9)       =        -1.051038	     -60.220024
	 D(6,3,5,10)      =        -3.071892	    -176.006427
	 D(7,3,5,8)       =        -0.985069	     -56.440293
	 D(7,3,5,9)       =        -3.132425	    -179.474743
	 D(7,3,5,10)      =         1.129906	      64.738854
	*D(9,5,8,11)      =         1.047198	      60.000025
	 D(9,5,8,12)      =        -3.086364	    -176.835622
	 D(9,5,8,13)      =        -1.076975	     -61.706114
	 D(10,5,8,11)     =         3.070682	     175.937091
	 D(10,5,8,12)     =        -1.062880	     -60.898555
	 D(10,5,8,13)     =         0.946509	      54.230952
	 D(12,8,11,14)    =        -1.011112	     -57.932437
	 D(12,8,11,15)    =        -3.117797	    -178.636630
	 D(12,8,11,16)    =         1.078933	      61.818331
	 D(13,8,11,14)    =        -3.031007	    -173.663898
	 D(13,8,11,15)    =         1.145493	      65.631908
	 D(13,8,11,16)    =        -0.940962	     -53.913130

	Current energy   :      -309.0636347261

	Energy change for the previous step:
		Projected    :        -0.0000010164
		Actual       :        -0.0000002710

	Performing BFGS update.
	Previous computed or guess Hessian on step 1.
	Steps to be used in Hessian update: 9 8
	Taking RFO optimization step.
	Going to follow RFO solution 1.
	Using RFO vector 1.
	Norm of target step-size    0.00151
	Projected energy change by RFO approximation:        -0.0000000636

	Back-transformation to cartesian coordinates...
	Successfully converged to displaced geometry.

	Back-transformation to cartesian coordinates to adjust frozen coordinates...
	Successfully converged to displaced geometry.

	--- Internal Coordinate Step in ANG or DEG, aJ/ANG or AJ/DEG ---
	 ---------------------------------------------------------------------------
	   Coordinate                Previous        Force       Change         New 
	   ----------                --------       ------       ------       ------
	    1 R(1,2)          =      1.193346    -0.000040    -0.000002     1.193344
	    2 R(2,3)          =      1.518834     0.000006     0.000002     1.518836
	    3 R(2,4)          =      1.512735     0.000001     0.000000     1.512735
	    4 R(3,5)          =      1.538089    -0.000042    -0.000014     1.538075
	    5 R(3,6)          =      1.084865     0.000011     0.000004     1.084869
	    6 R(3,7)          =      1.084783    -0.000013    -0.000002     1.084781
	    7 R(4,17)         =      1.081084     0.000006     0.000001     1.081085
	    8 R(4,18)         =      1.086051     0.000007     0.000001     1.086052
	    9 R(4,19)         =      1.086860    -0.000003    -0.000000     1.086860
	   10 R(5,8)          =      1.532308    -0.000048    -0.000017     1.532292
	   11 R(5,9)          =      1.088746    -0.000070    -0.000011     1.088735
	   12 R(5,10)         =      1.085356     0.000134     0.000022     1.085378
	   13 R(8,11)         =      1.529400     0.000188     0.000027     1.529426
	   14 R(8,12)         =      1.087607    -0.000044    -0.000006     1.087601
	   15 R(8,13)         =      1.086804     0.000020     0.000004     1.086808
	   16 R(11,14)        =      1.085034     0.000009     0.000003     1.085037
	   17 R(11,15)        =      1.086873    -0.000026    -0.000005     1.086868
	   18 R(11,16)        =      1.085327     0.000038     0.000007     1.085334
	   19 B(1,2,3)        =    120.922056    -0.000001    -0.002043   120.920013
	   20 B(1,2,4)        =    121.645672     0.000000     0.000813   121.646485
	   21 B(2,3,5)        =    110.578445    -0.000001    -0.001691   110.576753
	   22 B(2,3,6)        =    110.197484    -0.000000    -0.001130   110.196354
	   23 B(2,3,7)        =    107.606829     0.000001     0.002704   107.609533
	   24 B(2,4,17)       =    109.996610     0.000000     0.000760   109.997370
	   25 B(2,4,18)       =    110.817031    -0.000000    -0.000997   110.816034
	   26 B(2,4,19)       =    109.594230     0.000000     0.000108   109.594338
	   27 B(3,2,4)        =    117.424433     0.000000     0.001250   117.425683
	   28 B(3,5,8)        =    114.108140     0.000000     0.000944   114.109083
	   29 B(3,5,9)        =    109.869568    -0.000000    -0.004790   109.864778
	   30 B(3,5,10)       =    107.967694    -0.000000     0.005489   107.973184
	   31 B(5,3,6)        =    110.649553     0.000001     0.005569   110.655121
	   32 B(5,3,7)        =    109.427035    -0.000001    -0.004724   109.422312
	   33 B(5,8,11)       =    114.722168     0.000001     0.003224   114.725392
	   34 B(5,8,12)       =    109.126358    -0.000001    -0.007284   109.119074
	   35 B(5,8,13)       =    108.086625    -0.000000    -0.000093   108.086532
	   36 B(6,3,7)        =    108.298477    -0.000000    -0.000852   108.297625
	   37 B(8,5,9)        =    109.216822    -0.000001    -0.007715   109.209106
	   38 B(8,5,10)       =    108.875331     0.000001     0.008286   108.883617
	   39 B(8,11,14)      =    112.036928     0.000000    -0.000238   112.036690
	   40 B(8,11,15)      =    111.151270    -0.000000    -0.000448   111.150822
	   41 B(8,11,16)      =    110.671434     0.000001     0.003197   110.674631
	   42 B(9,5,10)       =    106.518285    -0.000000    -0.002097   106.516188
	   43 B(11,8,12)      =    109.417170     0.000000     0.002629   109.419800
	   44 B(11,8,13)      =    108.902967    -0.000000     0.001805   108.904772
	   45 B(12,8,13)      =    106.240932     0.000000    -0.000550   106.240383
	   46 B(14,11,15)     =    107.820189    -0.000000    -0.001571   107.818618
	   47 B(14,11,16)     =    107.332206    -0.000000    -0.000829   107.331377
	   48 B(15,11,16)     =    107.632070    -0.000000    -0.000235   107.631836
	   49 B(17,4,18)      =    109.880031     0.000000     0.000405   109.880437
	   50 B(17,4,19)      =    109.347462    -0.000000    -0.000016   109.347446
	   51 B(18,4,19)      =    107.151487     0.000000    -0.000281   107.151206
	   52 D(1,2,3,5)      =     81.152256    -0.000000    -0.019049    81.133207
	   53 D(1,2,3,6)      =   -156.199082     0.000000    -0.013921  -156.213003
	   54 D(1,2,3,7)      =    -38.312255     0.000000    -0.013990   -38.326246
	   55 D(1,2,4,17)     =     -7.093687     0.000000     0.002867    -7.090820
	   56 D(1,2,4,18)     =   -128.795458    -0.000000     0.002507  -128.792951
	   57 D(1,2,4,19)     =    113.155375     0.000000     0.003390   113.158765
	   58 D(2,3,5,8)      =   -174.800975    -0.000000     0.013509  -174.787466
	   59 D(2,3,5,9)      =     62.164575     0.000000     0.026633    62.191207
	   60 D(2,3,5,10)     =    -53.621828     0.000000     0.028628   -53.593201
	   61 D(3,2,4,17)     =    171.896441     0.000000     0.004125   171.900567
	   62 D(3,2,4,18)     =     50.194671    -0.000000     0.003765    50.198436
	   63 D(3,2,4,19)     =    -67.854496     0.000000     0.004648   -67.849849
	   64 D(3,5,8,11)     =    -63.388354     0.000000     0.011494   -63.376860
	   65 D(3,5,8,12)     =     59.775999     0.000000     0.011594    59.787593
	   66 D(3,5,8,13)     =    174.905507     0.000000     0.007083   174.912591
	   67 D(4,2,3,5)      =    -97.845594    -0.000000    -0.020327   -97.865921
	   68 D(4,2,3,6)      =     24.803068     0.000000    -0.015199    24.787868
	   69 D(4,2,3,7)      =    142.689895     0.000000    -0.015269   142.674626
	   70 D(5,8,11,14)    =     65.075859    -0.000000    -0.001944    65.073914
	   71 D(5,8,11,15)    =    -55.628335    -0.000000     0.000545   -55.627790
	   72 D(5,8,11,16)    =   -175.173373    -0.000000    -0.000974  -175.174347
	   73 D(6,3,5,8)      =     62.814426    -0.000000     0.012293    62.826719
	   74 D(6,3,5,9)      =    -60.220024     0.000000     0.025417   -60.194607
	   75 D(6,3,5,10)     =   -176.006427     0.000000     0.027411  -175.979016
	   76 D(7,3,5,8)      =    -56.440293    -0.000000     0.012891   -56.427402
	   77 D(7,3,5,9)      =   -179.474743     0.000000     0.026015  -179.448728
	   78 D(7,3,5,10)     =     64.738854     0.000000     0.028010    64.766863
	   79 *D(9,5,8,11)    =     60.000025     0.000000     0.000000    60.000025
	   80 D(9,5,8,12)     =   -176.835622     0.000000     0.000100  -176.835522
	   81 D(9,5,8,13)     =    -61.706114    -0.000000    -0.004411   -61.710524
	   82 D(10,5,8,11)    =    175.937091    -0.000000    -0.002155   175.934936
	   83 D(10,5,8,12)    =    -60.898555     0.000000    -0.002055   -60.900610
	   84 D(10,5,8,13)    =     54.230952    -0.000000    -0.006565    54.224387
	   85 D(12,8,11,14)   =    -57.932437     0.000000     0.003270   -57.929166
	   86 D(12,8,11,15)   =   -178.636630     0.000000     0.005760  -178.630870
	   87 D(12,8,11,16)   =     61.818331     0.000000     0.004241    61.822572
	   88 D(13,8,11,14)   =   -173.663898    -0.000000     0.001476  -173.662422
	   89 D(13,8,11,15)   =     65.631908     0.000000     0.003965    65.635874
	   90 D(13,8,11,16)   =    -53.913130     0.000000     0.002447   -53.910683
	 ---------------------------------------------------------------------------

  ==> Convergence Check <==

  Measures of convergence in internal coordinates in au.
  Criteria marked as inactive (o), active & met (*), and active & unmet ( ).
  ---------------------------------------------------------------------------------------------
   Step     Total Energy     Delta E     MAX Force     RMS Force      MAX Disp      RMS Disp   
  ---------------------------------------------------------------------------------------------
    Convergence Criteria    1.00e-06 *    3.00e-04 *             o    1.20e-03 *             o
  ---------------------------------------------------------------------------------------------
     10    -309.06363473   -2.71e-07 *    2.28e-05 *    6.08e-06 o    5.00e-04 *    1.59e-04 o  ~
  ---------------------------------------------------------------------------------------------


  **** Optimization is complete! (in 10 steps) ****

  ==> Optimization Summary <==

  Measures of convergence in internal coordinates in au.
  --------------------------------------------------------------------------------------------------------------- ~
   Step         Total Energy             Delta E       MAX Force       RMS Force        MAX Disp        RMS Disp  ~
  --------------------------------------------------------------------------------------------------------------- ~
      1    -309.062845161155   -309.062845161155      0.01112908      0.00209257      0.14686968      0.04934268  ~
      2    -309.063196400425     -0.000351239269      0.00531988      0.00127390      0.04615086      0.01317580  ~
      3    -309.063606157638     -0.000409757213      0.00100278      0.00020381      0.12609275      0.03952916  ~
      4    -309.063457282836      0.000148874802      0.00203152      0.00042057      0.08820320      0.03095200  ~
      5    -309.063590227879     -0.000132945043      0.00070542      0.00023583      0.02386804      0.00988262  ~
      6    -309.063607162675     -0.000016934796      0.00067781      0.00018645      0.03023308      0.00988208  ~
      7    -309.063610741312     -0.000003578637      0.00106207      0.00024876      0.01531623      0.00520362  ~
      8    -309.063631898116     -0.000021156804      0.00031282      0.00007549      0.00788392      0.00247069  ~
      9    -309.063634455087     -0.000002556970      0.00011417      0.00002708      0.00380461      0.00120991  ~
     10    -309.063634726054     -0.000000270968      0.00002285      0.00000608      0.00049965      0.00015875  ~
  --------------------------------------------------------------------------------------------------------------- ~

	Writing optimization data to binary file.
	Final energy is   -309.0636347260544
	Final (previous) structure:
	Cartesian Geometry (in Angstrom)
	    O    -1.8680714169  -1.4602409296  -0.5180270656
	    C    -1.5155655534  -0.3607488610  -0.2164800049
	    C    -0.2107326049  -0.1360767125   0.5276910160
	    C    -2.3313966898   0.8610886550  -0.5768962535
	    C     0.9781478513  -0.1543433843  -0.4479867843
	    H    -0.2458876126   0.8026324792   1.0703884690
	    H    -0.1000715712  -0.9410498566   1.2463894257
	    C     2.3478251919  -0.0605260020   0.2325650242
	    H     0.8790606711   0.6569465201  -1.1672625243
	    H     0.9308755436  -1.0779265315  -1.0161049141
	    C     2.5958357002   1.2424901052   0.9939473243
	    H     2.4678846361  -0.9032987760   0.9094762678
	    H     3.1125841361  -0.1729410462  -0.5314044536
	    H     1.9270603910   1.3525196984   1.8412554995
	    H     2.4594722871   2.1060625854   0.3482373374
	    H     3.6108652938   1.2752785517   1.3767991011
	    H    -3.1532366217   0.5801592325  -1.2206357272
	    H    -1.7137473524   1.6058361100  -1.0702189639
	    H    -2.7228955877   1.3179422967   0.3282440835
	Saving final (previous) structure.
			--------------------------
			 OPTKING Finished Execution 
			--------------------------

    Final optimized geometry and variables:
    Molecular point group: c1
    Full point group: C1

    Geometry (in Angstrom), charge = 0, multiplicity = 1:

    O           -1.868071274245    -1.460240818067    -0.518027026088
    C           -1.515565437648    -0.360748833466    -0.216479988329
    C           -0.210732588761    -0.136076702076     0.527690975676
    C           -2.331396511765     0.861088589231    -0.576896209427
    C            0.978147776557    -0.154343372464    -0.447986750045
    H           -0.245887593869     0.802632417906     1.070388387263
    H           -0.100071563594    -0.941049784786     1.246389330547
    C            2.347825012653    -0.060525997412     0.232565006391
    H            0.879060603936     0.656946469930    -1.167262435211
    H            0.930875472515    -1.077926449147    -1.016104836550
    C            2.595835501991     1.242490010339     0.993947248393
    H            2.467884447631    -0.903298706999     0.909476198388
    H            3.112583898368    -0.172941033013    -0.531404413049
    H            1.927060243842     1.352519595084     1.841255358851
    H            2.459472099300     2.106062424526     0.348237310806
    H            3.610865018020     1.275278454302     1.376798995935
    H           -3.153236380861     0.580159188231    -1.220635634036
    H           -1.713747221531     1.605835987337    -1.070218882131
    H           -2.722895379787     1.317942196104     0.328244058447

	Cleaning optimization helper files.


Properties will be evaluated at   0.000000,   0.000000,   0.000000 Bohr

Properties computed using the  density matrix

  Nuclear Dipole Moment: (a.u.)
     X:     6.9770      Y:     6.1823      Z:     1.9804

  Electronic Dipole Moment: (a.u.)
     X:    -6.4823      Y:    -5.1177      Z:    -1.6991

  Dipole Moment: (a.u.)
     X:     0.4947      Y:     1.0646      Z:     0.2813     Total:     1.2072

  Dipole Moment: (Debye)
     X:     1.2574      Y:     2.7060      Z:     0.7149     Total:     3.0684

  Quadrupole Moment: (Debye Ang)
    XX:   -46.5878     YY:   -49.5530     ZZ:   -44.7469
    XY:    -6.1692     XZ:    -1.6263     YZ:    -2.0739

  Traceless Quadrupole Moment: (Debye Ang)
    XX:     0.3747     YY:    -2.5904     ZZ:     2.2157
    XY:    -6.1692     XZ:    -1.6263     YZ:    -2.0739

  Mulliken Charges: (a.u.)
   Center  Symbol    Alpha    Beta     Spin     Total
       1     O     4.26207  4.26207  0.00000 -0.52414
       2     C     2.73710  2.73710  0.00000  0.52579
       3     C     3.20177  3.20177  0.00000 -0.40354
       4     C     3.28949  3.28949  0.00000 -0.57897
       5     C     3.16316  3.16316  0.00000 -0.32632
       6     H     0.41484  0.41484  0.00000  0.17031
       7     H     0.40155  0.40155  0.00000  0.19690
       8     C     3.15298  3.15298  0.00000 -0.30596
       9     H     0.42124  0.42124  0.00000  0.15751
      10     H     0.40449  0.40449  0.00000  0.19102
      11     C     3.24283  3.24283  0.00000 -0.48567
      12     H     0.41920  0.41920  0.00000  0.16160
      13     H     0.41729  0.41729  0.00000  0.16542
      14     H     0.42019  0.42019  0.00000  0.15961
      15     H     0.42194  0.42194  0.00000  0.15612
      16     H     0.41624  0.41624  0.00000  0.16752
      17     H     0.39702  0.39702  0.00000  0.20595
      18     H     0.40976  0.40976  0.00000  0.18047
      19     H     0.40682  0.40682  0.00000  0.18636

   Total alpha = 28.00000, Total beta = 28.00000, Total charge =  0.00000


*** PSI4 exiting successfully. Buy a developer a beer!
