    -----------------------------------------------------------------------
          Psi4: An Open-Source Ab Initio Electronic Structure Package
                              Psi4 (no tag) Driver

                          Git: Rev {detached?}  

    J. M. Turney, A. C. Simmonett, R. M. Parrish, E. G. Hohenstein,
    F. A. Evangelista, J. T. Fermann, B. J. Mintz, L. A. Burns, J. J. Wilke,
    M. L. Abrams, N. J. Russ, M. L. Leininger, C. L. Janssen, E. T. Seidl,
    W. D. Allen, H. F. Schaefer, R. A. King, E. F. Valeev, C. D. Sherrill,
    and T. D. Crawford, WIREs Comput. Mol. Sci. 2, 556-565 (2012)
    (doi: 10.1002/wcms.93)

                         Additional Contributions by
    A. E. DePrince, M. Saitow, U. Bozkaya, A. Yu. Sokolov
    -----------------------------------------------------------------------


    Psi4 started on: Thu Sep  1 22:14:01 2016

    Process ID:  14120
    PSI4DATADIR: /export131/home/mjharvey/miniconda3/share
    Memory level set to 256.000 MB

  ==> Input File <==

--------------------------------------------------------------------------
set {
	reference rhf
	basis 6-31G*
}


set_num_threads( 1 )
memory 2 gb

molecule MOL {
0 1

H	 -2.611903	 0.297244	 0.765469
O	 -2.035884	 -0.060112	 0.102722
C	 -0.955155	 0.788182	 -0.092531
C	 0.353668	 0.040312	 -0.004810
H	 -0.985057	 1.290372	 -1.054184
H	 -0.974469	 1.533190	 0.688632
F	 0.394464	 -0.937475	 -0.903053
F	 1.368604	 0.853376	 -0.249821
F	 0.546173	 -0.502608	 1.179981

	symmetry c1
}
set optking {
	frozen_dihedral = ("
		7 4 3 5
	")
}

ee = energy('scf')
oeprop('DIPOLE', 'QUADRUPOLE', 'MULLIKEN_CHARGES')
f=open( 'psi4out.xyz', 'w' )
f.write( "9  " )
f.write( str(ee) + "\n" )
f.write( MOL.save_string_xyz() )
f.close()
--------------------------------------------------------------------------

  Memory set to   2.000 GiB by Python script.

*** tstart() called on cx1-3-6-1.cx1.hpc.ic.ac.uk
*** at Thu Sep  1 22:14:01 2016


         ---------------------------------------------------------
                                   SCF
            by Justin Turney, Rob Parrish, and Andy Simmonett
                              RHF Reference
                        1 Threads,   2000 MiB Core
         ---------------------------------------------------------

  ==> Geometry <==

    Molecular point group: c1
    Full point group: C1

    Geometry (in Angstrom), charge = 0, multiplicity = 1:

       Center              X                  Y                   Z               Mass       
    ------------   -----------------  -----------------  -----------------  -----------------
           H         -2.606734266171     0.287453612042     0.751541157110     1.007825032070
           O         -2.030715266171    -0.069902387958     0.088794157110    15.994914619560
           C         -0.949986266171     0.778391612042    -0.106458842890    12.000000000000
           C          0.358836733829     0.030521612042    -0.018737842890    12.000000000000
           H         -0.979888266171     1.280581612042    -1.068111842890     1.007825032070
           H         -0.969300266171     1.523399612042     0.674704157110     1.007825032070
           F          0.399632733829    -0.947265387958    -0.916980842890    18.998403224000
           F          1.373772733829     0.843585612042    -0.263748842890    18.998403224000
           F          0.551341733829    -0.512398387958     1.166053157110    18.998403224000

  Running in c1 symmetry.

  Rotational constants: A =      0.18269  B =      0.09509  C =      0.09412 [cm^-1]
  Rotational constants: A =   5476.86895  B =   2850.82105  C =   2821.78856 [MHz]
  Nuclear repulsion =  276.240934750086751

  Charge       = 0
  Multiplicity = 1
  Electrons    = 50
  Nalpha       = 25
  Nbeta        = 25

  ==> Algorithm <==

  SCF Algorithm Type is DF.
  DIIS enabled.
  MOM disabled.
  Fractional occupation disabled.
  Guess Type is CORE.
  Energy threshold   = 1.00e-06
  Density threshold  = 1.00e-06
  Integral threshold = 0.00e+00

  ==> Primary Basis <==

  Basis Set: 6-31G*
    Number of shells: 42
    Number of basis function: 96
    Number of Cartesian functions: 96
    Spherical Harmonics?: false
    Max angular momentum: 2

  ==> Pre-Iterations <==

   -------------------------------------------------------
    Irrep   Nso     Nmo     Nalpha   Nbeta   Ndocc  Nsocc
   -------------------------------------------------------
     A         96      96       0       0       0       0
   -------------------------------------------------------
    Total      96      96      25      25      25       0
   -------------------------------------------------------

 OEINTS: Overlap, kinetic, potential, dipole, and quadrupole integrals
         stored in file 35.

  ==> Integral Setup <==

  ==> DFJK: Density-Fitted J/K Matrices <==

    J tasked:                  Yes
    K tasked:                  Yes
    wK tasked:                  No
    OpenMP threads:              1
    Integrals threads:           1
    Memory (MB):              1430
    Algorithm:                Core
    Integral Cache:           NONE
    Schwarz Cutoff:          1E-12
    Fitting Condition:       1E-12

   => Auxiliary Basis Set <=

  Basis Set: 
    Number of shells: 171
    Number of basis function: 561
    Number of Cartesian functions: 561
    Spherical Harmonics?: false
    Max angular momentum: 3

  Minimum eigenvalue in the overlap matrix is 1.9728097975E-03.
  Using Symmetric Orthogonalization.
  SCF Guess: Core (One-Electron) Hamiltonian.

  ==> Iterations <==

                           Total Energy        Delta E     RMS |[F,P]|

   @DF-RHF iter   1:  -396.95011992122164   -3.96950e+02   8.85863e-02 
   @DF-RHF iter   2:  -264.75893107896246    1.32191e+02   9.82324e-02 DIIS
   @DF-RHF iter   3:  -398.57541890601971   -1.33816e+02   6.37371e-02 DIIS
   @DF-RHF iter   4:  -445.03911986186171   -4.64637e+01   3.20493e-02 DIIS
   @DF-RHF iter   5:  -450.00172032465963   -4.96260e+00   1.39961e-02 DIIS
   @DF-RHF iter   6:  -450.60122408372632   -5.99504e-01   3.62530e-03 DIIS
   @DF-RHF iter   7:  -450.64585400570382   -4.46299e-02   1.48050e-03 DIIS
   @DF-RHF iter   8:  -450.65608658461093   -1.02326e-02   6.23860e-04 DIIS
   @DF-RHF iter   9:  -450.65794707206811   -1.86049e-03   9.03174e-05 DIIS
   @DF-RHF iter  10:  -450.65800635236889   -5.92803e-05   3.52948e-05 DIIS
   @DF-RHF iter  11:  -450.65801416299479   -7.81063e-06   1.08411e-05 DIIS
   @DF-RHF iter  12:  -450.65801509501233   -9.32018e-07   2.25595e-06 DIIS
   @DF-RHF iter  13:  -450.65801513665832   -4.16460e-08   7.48077e-07 DIIS

  ==> Post-Iterations <==

    Orbital Energies (a.u.)
    -----------------------

    Doubly Occupied:                                                      

       1A    -26.340425     2A    -26.336377     3A    -26.329217  
       4A    -20.588778     5A    -11.497132     6A    -11.310360  
       7A     -1.733710     8A     -1.634866     9A     -1.626729  
      10A     -1.401845    11A     -1.047082    12A     -0.917666  
      13A     -0.824591    14A     -0.823242    15A     -0.787086  
      16A     -0.737078    17A     -0.706693    18A     -0.695320  
      19A     -0.665082    20A     -0.649871    21A     -0.636946  
      22A     -0.634873    23A     -0.597993    24A     -0.527632  
      25A     -0.478628  

    Virtual:                                                              

      26A      0.193351    27A      0.271990    28A      0.296178  
      29A      0.349174    30A      0.418183    31A      0.426152  
      32A      0.481813    33A      0.482579    34A      0.698920  
      35A      0.744092    36A      0.760122    37A      0.781735  
      38A      0.820316    39A      0.884513    40A      0.949046  
      41A      1.060857    42A      1.104270    43A      1.152011  
      44A      1.209673    45A      1.244585    46A      1.320401  
      47A      1.322668    48A      1.348263    49A      1.397288  
      50A      1.454812    51A      1.476889    52A      1.525582  
      53A      1.619730    54A      1.630694    55A      1.651292  
      56A      1.677165    57A      1.678754    58A      1.691730  
      59A      1.758688    60A      1.875421    61A      1.912952  
      62A      1.956865    63A      1.964117    64A      1.974484  
      65A      2.123696    66A      2.146595    67A      2.156353  
      68A      2.182715    69A      2.269680    70A      2.280282  
      71A      2.328553    72A      2.365161    73A      2.398501  
      74A      2.409858    75A      2.424769    76A      2.445713  
      77A      2.498706    78A      2.571789    79A      2.631150  
      80A      2.705654    81A      2.851404    82A      2.857856  
      83A      2.885538    84A      3.127044    85A      3.153370  
      86A      3.187116    87A      3.269287    88A      3.420691  
      89A      3.428115    90A      3.454648    91A      4.137209  
      92A      4.608287    93A      4.762312    94A      4.899390  
      95A      5.099269    96A      5.693615  

    Final Occupation by Irrep:
              A 
    DOCC [    25 ]

  Energy converged.

  @DF-RHF Final Energy:  -450.65801513665832

   => Energetics <=

    Nuclear Repulsion Energy =            276.2409347500867511
    One-Electron Energy =               -1174.7395422702061296
    Two-Electron Energy =                 447.8405923834615692
    DFT Exchange-Correlation Energy =       0.0000000000000000
    Empirical Dispersion Energy =           0.0000000000000000
    PCM Polarization Energy =               0.0000000000000000
    EFP Energy =                            0.0000000000000000
    Total Energy =                       -450.6580151366577525

    Alert: EFP and PCM quantities not currently incorporated into SCF psivars.

Properties will be evaluated at   0.000000,   0.000000,   0.000000 Bohr
  ==> Properties <==


Properties computed using the SCF density matrix

  Nuclear Dipole Moment: (a.u.)
     X:    -6.4739      Y:     3.4790      Z:     0.3500

  Electronic Dipole Moment: (a.u.)
     X:     5.7711      Y:    -2.4728      Z:     0.0456

  Dipole Moment: (a.u.)
     X:    -0.7027      Y:     1.0062      Z:     0.3956     Total:     1.2895

  Dipole Moment: (Debye)
     X:    -1.7861      Y:     2.5575      Z:     1.0055     Total:     3.2775


  Saving occupied orbitals to File 180.

*** tstop() called on cx1-3-6-1.cx1.hpc.ic.ac.uk at Thu Sep  1 22:14:06 2016
Module time:
	user time   =       4.18 seconds =       0.07 minutes
	system time =       0.04 seconds =       0.00 minutes
	total time  =          5 seconds =       0.08 minutes
Total time:
	user time   =       4.18 seconds =       0.07 minutes
	system time =       0.04 seconds =       0.00 minutes
	total time  =          5 seconds =       0.08 minutes


Properties will be evaluated at   0.000000,   0.000000,   0.000000 Bohr

Properties computed using the  density matrix

  Nuclear Dipole Moment: (a.u.)
     X:    -6.4739      Y:     3.4790      Z:     0.3500

  Electronic Dipole Moment: (a.u.)
     X:     5.7711      Y:    -2.4728      Z:     0.0456

  Dipole Moment: (a.u.)
     X:    -0.7027      Y:     1.0062      Z:     0.3956     Total:     1.2895

  Dipole Moment: (Debye)
     X:    -1.7861      Y:     2.5575      Z:     1.0055     Total:     3.2775

  Quadrupole Moment: (Debye Ang)
    XX:   -30.6665     YY:   -31.9538     ZZ:   -31.7808
    XY:    -4.0042     XZ:    -3.3275     YZ:     0.3606

  Traceless Quadrupole Moment: (Debye Ang)
    XX:     0.8005     YY:    -0.4867     ZZ:    -0.3138
    XY:    -4.0042     XZ:    -3.3275     YZ:     0.3606

  Mulliken Charges: (a.u.)
   Center  Symbol    Alpha    Beta     Spin     Total
       1     H     0.27052  0.27052  0.00000  0.45897
       2     O     4.36247  4.36247  0.00000 -0.72495
       3     C     3.05409  3.05409  0.00000 -0.10817
       4     C     2.45468  2.45468  0.00000  1.09064
       5     H     0.40469  0.40469  0.00000  0.19062
       6     H     0.41280  0.41280  0.00000  0.17441
       7     F     4.68099  4.68099  0.00000 -0.36198
       8     F     4.68236  4.68236  0.00000 -0.36472
       9     F     4.67740  4.67740  0.00000 -0.35481

   Total alpha = 25.00000, Total beta = 25.00000, Total charge =  0.00000


*** PSI4 exiting successfully. Buy a developer a beer!
