    -----------------------------------------------------------------------
          Psi4: An Open-Source Ab Initio Electronic Structure Package
                              Psi4 (no tag) Driver

                          Git: Rev {detached?}  

    J. M. Turney, A. C. Simmonett, R. M. Parrish, E. G. Hohenstein,
    F. A. Evangelista, J. T. Fermann, B. J. Mintz, L. A. Burns, J. J. Wilke,
    M. L. Abrams, N. J. Russ, M. L. Leininger, C. L. Janssen, E. T. Seidl,
    W. D. Allen, H. F. Schaefer, R. A. King, E. F. Valeev, C. D. Sherrill,
    and T. D. Crawford, WIREs Comput. Mol. Sci. 2, 556-565 (2012)
    (doi: 10.1002/wcms.93)

                         Additional Contributions by
    A. E. DePrince, M. Saitow, U. Bozkaya, A. Yu. Sokolov
    -----------------------------------------------------------------------


    Psi4 started on: Fri Sep  9 22:00:36 2016

    Process ID:  23354
    PSI4DATADIR: /export131/home/mjharvey/miniconda3/share
    Memory level set to 256.000 MB

  ==> Input File <==

--------------------------------------------------------------------------
set {
	reference rhf
	basis cc-pvtz
}


set_num_threads( 4 )
memory 2 gb

molecule MOL {
0 1

O	 -1.510770	 1.240811	 -0.054933
C	 -1.081510	 0.147522	 0.122720
C	 0.327029	 -0.064006	 0.641890
C	 -1.903028	 -1.084121	 -0.174656
C	 1.349460	 -0.017068	 -0.500215
H	 0.399029	 -1.014606	 1.159950
H	 0.538021	 0.726928	 1.350471
C	 1.814628	 -1.405989	 -0.922430
H	 0.919280	 0.494156	 -1.356622
H	 2.199297	 0.574086	 -0.179841
H	 2.543691	 -1.343910	 -1.721581
H	 0.984665	 -2.008069	 -1.276567
H	 2.275048	 -1.931262	 -0.092989
H	 -1.341891	 -1.779207	 -0.789259
H	 -2.820449	 -0.808163	 -0.671328
H	 -2.133314	 -1.593056	 0.755831

	symmetry c1
}
set optking {
	frozen_dihedral = ("
		9 5 3 2
	")
}

ee = optimize('scf')
oeprop('DIPOLE', 'QUADRUPOLE', 'MULLIKEN_CHARGES')
f=open( 'psi4out.xyz', 'w' )
f.write( "16  " )
f.write( str(ee) + "\n" )
f.write( MOL.save_string_xyz() )
f.close()
--------------------------------------------------------------------------

  Memory set to   2.000 GiB by Python script.
gradient() will perform analytic gradient computation.

*** tstart() called on cx1-27-4-1
*** at Fri Sep  9 22:00:37 2016


         ---------------------------------------------------------
                                   SCF
            by Justin Turney, Rob Parrish, and Andy Simmonett
                              RHF Reference
                        4 Threads,   2000 MiB Core
         ---------------------------------------------------------

  ==> Geometry <==

    Molecular point group: c1
    Full point group: C1

    Geometry (in Angstrom), charge = 0, multiplicity = 1:

       Center              X                  Y                   Z               Mass       
    ------------   -----------------  -----------------  -----------------  -----------------
           O         -1.342373396592     1.449799789571     0.104407688659    15.994914619560
           C         -0.913113396592     0.356510789571     0.282060688659    12.000000000000
           C          0.495425603408     0.144982789571     0.801230688659    12.000000000000
           C         -1.734631396592    -0.875132210429    -0.015315311341    12.000000000000
           C          1.517856603408     0.191920789571    -0.340874311341    12.000000000000
           H          0.567425603408    -0.805617210429     1.319290688659     1.007825032070
           H          0.706417603408     0.935916789571     1.509811688659     1.007825032070
           C          1.983024603408    -1.197000210429    -0.763089311341    12.000000000000
           H          1.087676603408     0.703144789571    -1.197281311341     1.007825032070
           H          2.367693603408     0.783074789571    -0.020500311341     1.007825032070
           H          2.712087603408    -1.134921210429    -1.562240311341     1.007825032070
           H          1.153061603408    -1.799080210429    -1.117226311341     1.007825032070
           H          2.443444603408    -1.722273210429     0.066351688659     1.007825032070
           H         -1.173494396592    -1.570218210429    -0.629918311341     1.007825032070
           H         -2.652052396592    -0.599174210429    -0.511987311341     1.007825032070
           H         -1.964917396592    -1.384067210429     0.915171688659     1.007825032070

  Running in c1 symmetry.

  Rotational constants: A =      0.19816  B =      0.07404  C =      0.06184 [cm^-1]
  Rotational constants: A =   5940.83119  B =   2219.60871  C =   1854.02908 [MHz]
  Nuclear repulsion =  240.733704160818746

  Charge       = 0
  Multiplicity = 1
  Electrons    = 48
  Nalpha       = 24
  Nbeta        = 24

  ==> Algorithm <==

  SCF Algorithm Type is DF.
  DIIS enabled.
  MOM disabled.
  Fractional occupation disabled.
  Guess Type is CORE.
  Energy threshold   = 1.00e-08
  Density threshold  = 1.00e-08
  Integral threshold = 0.00e+00

  ==> Primary Basis <==

  Basis Set: CC-PVTZ
    Number of shells: 120
    Number of basis function: 320
    Number of Cartesian functions: 360
    Spherical Harmonics?: true
    Max angular momentum: 3

  ==> Pre-Iterations <==

   -------------------------------------------------------
    Irrep   Nso     Nmo     Nalpha   Nbeta   Ndocc  Nsocc
   -------------------------------------------------------
     A        320     320       0       0       0       0
   -------------------------------------------------------
    Total     320     320      24      24      24       0
   -------------------------------------------------------

 OEINTS: Overlap, kinetic, potential, dipole, and quadrupole integrals
         stored in file 35.

  ==> Integral Setup <==

  ==> DFJK: Density-Fitted J/K Matrices <==

    J tasked:                  Yes
    K tasked:                  Yes
    wK tasked:                  No
    OpenMP threads:              4
    Integrals threads:           4
    Memory (MB):              1430
    Algorithm:                Core
    Integral Cache:           NONE
    Schwarz Cutoff:          1E-12
    Fitting Condition:       1E-12

   => Auxiliary Basis Set <=

  Basis Set: 
    Number of shells: 250
    Number of basis function: 774
    Number of Cartesian functions: 926
    Spherical Harmonics?: true
    Max angular momentum: 4

  Minimum eigenvalue in the overlap matrix is 4.5994896655E-04.
  Using Symmetric Orthogonalization.
  SCF Guess: Core (One-Electron) Hamiltonian.

  ==> Iterations <==

                           Total Energy        Delta E     RMS |[F,P]|

   @DF-RHF iter   1:  -182.87055721750497   -1.82871e+02   4.38679e-02 
   @DF-RHF iter   2:  -146.26155912255572    3.66090e+01   3.25247e-02 DIIS
   @DF-RHF iter   3:  -221.58734066069624   -7.53258e+01   2.09562e-02 DIIS
   @DF-RHF iter   4:  -191.39953967935563    3.01878e+01   2.91218e-02 DIIS
   @DF-RHF iter   5:  -267.39018474489706   -7.59906e+01   5.43777e-03 DIIS
   @DF-RHF iter   6:  -269.84020742086500   -2.45002e+00   2.44370e-03 DIIS
   @DF-RHF iter   7:  -270.08519649294749   -2.44989e-01   7.75540e-04 DIIS
   @DF-RHF iter   8:  -270.11345607619194   -2.82596e-02   4.08307e-04 DIIS
   @DF-RHF iter   9:  -270.12257624071879   -9.12016e-03   1.12802e-04 DIIS
   @DF-RHF iter  10:  -270.12365489438719   -1.07865e-03   2.54986e-05 DIIS
   @DF-RHF iter  11:  -270.12373443680178   -7.95424e-05   1.05279e-05 DIIS
   @DF-RHF iter  12:  -270.12374652309722   -1.20863e-05   3.54071e-06 DIIS
   @DF-RHF iter  13:  -270.12374841117389   -1.88808e-06   1.20246e-06 DIIS
   @DF-RHF iter  14:  -270.12374861803573   -2.06862e-07   3.98796e-07 DIIS
   @DF-RHF iter  15:  -270.12374863601713   -1.79814e-08   1.05864e-07 DIIS
   @DF-RHF iter  16:  -270.12374863714945   -1.13232e-09   2.28898e-08 DIIS
   @DF-RHF iter  17:  -270.12374863720709   -5.76392e-11   7.44356e-09 DIIS

  ==> Post-Iterations <==

    Orbital Energies (a.u.)
    -----------------------

    Doubly Occupied:                                                      

       1A    -20.536491     2A    -11.319808     3A    -11.230512  
       4A    -11.227545     5A    -11.227110     6A    -11.219391  
       7A     -1.397076     8A     -1.085333     9A     -1.012742  
      10A     -0.952468    11A     -0.831537    12A     -0.736121  
      13A     -0.661540    14A     -0.649432    15A     -0.619415  
      16A     -0.593812    17A     -0.590764    18A     -0.559977  
      19A     -0.549028    20A     -0.520602    21A     -0.494800  
      22A     -0.485072    23A     -0.473473    24A     -0.400112  

    Virtual:                                                              

      25A      0.128669    26A      0.150474    27A      0.161408  
      28A      0.181121    29A      0.186790    30A      0.207952  
      31A      0.213562    32A      0.216840    33A      0.230901  
      34A      0.235748    35A      0.275681    36A      0.292506  
      37A      0.318130    38A      0.344856    39A      0.362304  
      40A      0.370193    41A      0.393142    42A      0.404023  
      43A      0.414044    44A      0.428662    45A      0.455952  
      46A      0.478920    47A      0.509151    48A      0.523062  
      49A      0.566433    50A      0.573990    51A      0.580819  
      52A      0.590009    53A      0.598719    54A      0.611706  
      55A      0.624117    56A      0.638779    57A      0.639525  
      58A      0.649315    59A      0.656077    60A      0.669388  
      61A      0.673435    62A      0.679818    63A      0.689619  
      64A      0.704228    65A      0.710381    66A      0.729386  
      67A      0.752455    68A      0.797811    69A      0.825698  
      70A      0.852612    71A      0.871866    72A      0.893893  
      73A      0.920675    74A      0.946782    75A      0.976705  
      76A      0.992742    77A      1.014327    78A      1.030009  
      79A      1.045316    80A      1.068247    81A      1.098039  
      82A      1.106347    83A      1.131405    84A      1.157572  
      85A      1.169445    86A      1.176060    87A      1.201115  
      88A      1.211750    89A      1.226268    90A      1.246508  
      91A      1.261934    92A      1.269933    93A      1.295666  
      94A      1.303256    95A      1.322243    96A      1.328229  
      97A      1.363133    98A      1.371506    99A      1.376675  
     100A      1.392887   101A      1.402956   102A      1.423576  
     103A      1.448044   104A      1.459318   105A      1.471881  
     106A      1.490551   107A      1.506707   108A      1.514611  
     109A      1.527874   110A      1.536077   111A      1.545875  
     112A      1.564051   113A      1.588101   114A      1.611594  
     115A      1.623685   116A      1.636900   117A      1.658362  
     118A      1.679815   119A      1.708499   120A      1.725100  
     121A      1.744236   122A      1.759820   123A      1.791668  
     124A      1.817822   125A      1.824421   126A      1.873960  
     127A      1.909423   128A      1.941132   129A      2.024194  
     130A      2.093184   131A      2.190576   132A      2.259612  
     133A      2.426356   134A      2.441940   135A      2.490540  
     136A      2.516726   137A      2.541132   138A      2.575852  
     139A      2.616200   140A      2.639873   141A      2.661576  
     142A      2.688311   143A      2.736542   144A      2.747271  
     145A      2.759181   146A      2.784324   147A      2.807063  
     148A      2.814049   149A      2.840555   150A      2.866884  
     151A      2.920910   152A      2.935006   153A      2.948982  
     154A      2.951726   155A      2.987444   156A      3.002934  
     157A      3.035189   158A      3.036904   159A      3.082630  
     160A      3.089463   161A      3.107218   162A      3.124843  
     163A      3.144716   164A      3.149660   165A      3.161965  
     166A      3.194470   167A      3.197989   168A      3.233120  
     169A      3.249205   170A      3.253535   171A      3.273772  
     172A      3.281552   173A      3.309374   174A      3.341848  
     175A      3.349397   176A      3.378001   177A      3.387704  
     178A      3.401677   179A      3.412272   180A      3.417924  
     181A      3.431021   182A      3.444179   183A      3.461566  
     184A      3.469338   185A      3.486227   186A      3.491860  
     187A      3.516116   188A      3.523855   189A      3.572156  
     190A      3.590628   191A      3.606317   192A      3.636556  
     193A      3.651627   194A      3.669308   195A      3.693941  
     196A      3.701283   197A      3.729662   198A      3.742653  
     199A      3.746430   200A      3.760799   201A      3.768694  
     202A      3.803831   203A      3.818495   204A      3.826445  
     205A      3.850100   206A      3.884867   207A      3.900484  
     208A      3.905698   209A      3.916807   210A      3.938893  
     211A      3.971855   212A      3.989678   213A      4.027747  
     214A      4.056037   215A      4.085590   216A      4.098956  
     217A      4.110206   218A      4.125532   219A      4.144192  
     220A      4.151401   221A      4.172324   222A      4.195130  
     223A      4.202679   224A      4.223604   225A      4.226278  
     226A      4.261673   227A      4.274449   228A      4.279434  
     229A      4.293134   230A      4.301425   231A      4.336461  
     232A      4.347304   233A      4.377790   234A      4.380640  
     235A      4.408264   236A      4.413015   237A      4.432769  
     238A      4.446042   239A      4.451677   240A      4.479941  
     241A      4.498336   242A      4.526616   243A      4.547650  
     244A      4.561187   245A      4.588535   246A      4.608460  
     247A      4.632603   248A      4.641167   249A      4.647664  
     250A      4.672027   251A      4.700715   252A      4.732209  
     253A      4.750006   254A      4.772194   255A      4.779838  
     256A      4.818619   257A      4.915275   258A      4.922918  
     259A      4.939846   260A      4.984662   261A      5.012090  
     262A      5.046695   263A      5.136643   264A      5.156669  
     265A      5.189365   266A      5.208386   267A      5.234346  
     268A      5.248945   269A      5.258404   270A      5.263117  
     271A      5.293679   272A      5.378666   273A      5.396470  
     274A      5.410411   275A      5.413889   276A      5.455933  
     277A      5.482926   278A      5.511604   279A      5.528738  
     280A      5.543169   281A      5.557990   282A      5.593158  
     283A      5.602695   284A      5.648801   285A      5.665661  
     286A      5.692649   287A      5.713678   288A      5.736384  
     289A      5.745815   290A      5.762234   291A      5.763480  
     292A      5.784639   293A      5.806884   294A      5.843363  
     295A      5.876542   296A      5.898726   297A      5.928594  
     298A      6.105034   299A      6.132436   300A      6.234635  
     301A      6.253270   302A      6.279185   303A      6.311695  
     304A      6.327196   305A      6.395813   306A      6.425222  
     307A      6.821321   308A      6.837588   309A      6.957318  
     310A      7.022980   311A      7.238643   312A      7.394728  
     313A      7.571277   314A      7.611794   315A      9.712165  
     316A     12.758946   317A     13.756907   318A     14.259400  
     319A     14.333506   320A     14.505568  

    Final Occupation by Irrep:
              A 
    DOCC [    24 ]

  Energy converged.

  @DF-RHF Final Energy:  -270.12374863720709

   => Energetics <=

    Nuclear Repulsion Energy =            240.7337041608187462
    One-Electron Energy =                -842.9665799484155286
    Two-Electron Energy =                 332.1091271503897815
    DFT Exchange-Correlation Energy =       0.0000000000000000
    Empirical Dispersion Energy =           0.0000000000000000
    PCM Polarization Energy =               0.0000000000000000
    EFP Energy =                            0.0000000000000000
    Total Energy =                       -270.1237486372069725

    Alert: EFP and PCM quantities not currently incorporated into SCF psivars.

Properties will be evaluated at   0.000000,   0.000000,   0.000000 Bohr
  ==> Properties <==


Properties computed using the SCF density matrix

  Nuclear Dipole Moment: (a.u.)
     X:     4.9128      Y:    -6.1740      Z:    -1.1512

  Electronic Dipole Moment: (a.u.)
     X:    -4.3620      Y:     5.0831      Z:     1.2829

  Dipole Moment: (a.u.)
     X:     0.5508      Y:    -1.0909      Z:     0.1317     Total:     1.2291

  Dipole Moment: (Debye)
     X:     1.4000      Y:    -2.7728      Z:     0.3347     Total:     3.1242


  Saving occupied orbitals to File 180.

*** tstop() called on cx1-27-4-1 at Fri Sep  9 22:00:50 2016
Module time:
	user time   =      43.45 seconds =       0.72 minutes
	system time =       0.79 seconds =       0.01 minutes
	total time  =         13 seconds =       0.22 minutes
Total time:
	user time   =      43.45 seconds =       0.72 minutes
	system time =       0.79 seconds =       0.01 minutes
	total time  =         13 seconds =       0.22 minutes

*** tstart() called on cx1-27-4-1
*** at Fri Sep  9 22:00:50 2016


         ------------------------------------------------------------
                                   SCF GRAD                          
                          Rob Parrish, Justin Turney,                
                       Andy Simmonett, and Alex Sokolov              
         ------------------------------------------------------------

  ==> Geometry <==

    Molecular point group: c1
    Full point group: C1

    Geometry (in Angstrom), charge = 0, multiplicity = 1:

       Center              X                  Y                   Z               Mass       
    ------------   -----------------  -----------------  -----------------  -----------------
           O         -1.342373396592     1.449799789571     0.104407688659    15.994914619560
           C         -0.913113396592     0.356510789571     0.282060688659    12.000000000000
           C          0.495425603408     0.144982789571     0.801230688659    12.000000000000
           C         -1.734631396592    -0.875132210429    -0.015315311341    12.000000000000
           C          1.517856603408     0.191920789571    -0.340874311341    12.000000000000
           H          0.567425603408    -0.805617210429     1.319290688659     1.007825032070
           H          0.706417603408     0.935916789571     1.509811688659     1.007825032070
           C          1.983024603408    -1.197000210429    -0.763089311341    12.000000000000
           H          1.087676603408     0.703144789571    -1.197281311341     1.007825032070
           H          2.367693603408     0.783074789571    -0.020500311341     1.007825032070
           H          2.712087603408    -1.134921210429    -1.562240311341     1.007825032070
           H          1.153061603408    -1.799080210429    -1.117226311341     1.007825032070
           H          2.443444603408    -1.722273210429     0.066351688659     1.007825032070
           H         -1.173494396592    -1.570218210429    -0.629918311341     1.007825032070
           H         -2.652052396592    -0.599174210429    -0.511987311341     1.007825032070
           H         -1.964917396592    -1.384067210429     0.915171688659     1.007825032070

  Nuclear repulsion =  240.733704160818746

  ==> Basis Set <==

  Basis Set: CC-PVTZ
    Number of shells: 120
    Number of basis function: 320
    Number of Cartesian functions: 360
    Spherical Harmonics?: true
    Max angular momentum: 3

  ==> DFJKGrad: Density-Fitted SCF Gradients <==

    Gradient:                    1
    J tasked:                  Yes
    K tasked:                  Yes
    wK tasked:                  No
    OpenMP threads:              4
    Integrals threads:           4
    Memory (MB):              1430
    Schwarz Cutoff:          0E+00
    Fitting Condition:       1E-12

   => Auxiliary Basis Set <=

  Basis Set: 
    Number of shells: 250
    Number of basis function: 774
    Number of Cartesian functions: 926
    Spherical Harmonics?: true
    Max angular momentum: 4


  -Total Gradient:
     Atom            X                  Y                   Z
    ------   -----------------  -----------------  -----------------
       1        0.000111789750     0.000338779408     0.000117308479
       2        0.001000541774     0.000658798601    -0.002093696712
       3        0.003599100958    -0.002492889723    -0.004886547312
       4        0.000498430034    -0.000130915039     0.000766839361
       5       -0.002988393912     0.002371542039     0.004472475951
       6        0.000093461319    -0.001527725566    -0.000956198405
       7        0.002737200974     0.000559351740     0.000359233040
       8       -0.002223497130    -0.000493289478     0.002355479253
       9       -0.002127786300    -0.001214570999    -0.001841885084
      10       -0.000327435824     0.001328800566     0.001570855800
      11        0.000113397439     0.000650058897     0.000438621573
      12       -0.001144237665     0.000266286127     0.000166244775
      13       -0.000064924881     0.000029969685     0.000033820219
      14        0.000708347457    -0.000338873935    -0.000359088940
      15        0.000168003174    -0.000009142307    -0.000090953651
      16       -0.000153997166     0.000003819985    -0.000052508346


*** tstop() called on cx1-27-4-1 at Fri Sep  9 22:01:11 2016
Module time:
	user time   =      79.21 seconds =       1.32 minutes
	system time =       0.56 seconds =       0.01 minutes
	total time  =         21 seconds =       0.35 minutes
Total time:
	user time   =     122.68 seconds =       2.04 minutes
	system time =       1.35 seconds =       0.02 minutes
	total time  =         34 seconds =       0.57 minutes
CURRENT ENERGY: -270.1237486372

			-----------------------------------------
			 OPTKING 2.0: for geometry optimizations 
			  - R.A. King,  Bethel University        
			-----------------------------------------

	Internal coordinates to be generated automatically.
	Detected frag with atoms:  1 2 3 4 5 6 7 8 9 10 11 12 13 14 15 16
	---Fragment 1 Bond Connectivity---
	 1 : 2
	 2 : 1 3 4
	 3 : 2 5 6 7
	 4 : 2 14 15 16
	 5 : 3 8 9 10
	 6 : 3
	 7 : 3
	 8 : 5 11 12 13
	 9 : 5
	 10 : 5
	 11 : 8
	 12 : 8
	 13 : 8
	 14 : 4
	 15 : 4
	 16 : 4

	Assuming in current code that numbering for constraints corresponds to unified fragment.
	Frozen dihedral atom list: 
	     9     5     3     2
	---Fragment 1 Geometry and Gradient---
	 O          -2.5367180876        2.7397245498        0.1973019377
	 C          -1.7255342478        0.6737077557        0.5330174544
	 C           0.9362187097        0.2739777663        1.5141065708
	 C          -3.2779782811       -1.6537602078       -0.0289417441
	 C           2.8683332894        0.3626777315       -0.6441590942
	 H           1.0722789912       -1.5223958956        2.4930980912
	 H           1.3349358059        1.7686264155        2.8531306038
	 C           3.7473734152       -2.2620025787       -1.4420298134
	 H           2.0554109016        1.3287510841       -2.2625337825
	 H           4.4742924770        1.4797968939       -0.0387399741
	 H           5.1251028188       -2.1446902701       -2.9522063422
	 H           2.1789706448       -3.3997688888       -2.1112517569
	 H           4.6174411213       -3.2546246937        0.1253865200
	 H          -2.2175830280       -2.9672823866       -1.1903730945
	 H          -5.0116527196       -1.1322751636       -0.9675158019
	 H          -3.7131557533       -2.6155079772        1.7294238561
	             0.0001117898        0.0003387794        0.0001173085
	             0.0010005418        0.0006587986       -0.0020936967
	             0.0035991010       -0.0024928897       -0.0048865473
	             0.0004984300       -0.0001309150        0.0007668394
	            -0.0029883939        0.0023715420        0.0044724760
	             0.0000934613       -0.0015277256       -0.0009561984
	             0.0027372010        0.0005593517        0.0003592330
	            -0.0022234971       -0.0004932895        0.0023554793
	            -0.0021277863       -0.0012145710       -0.0018418851
	            -0.0003274358        0.0013288006        0.0015708558
	             0.0001133974        0.0006500589        0.0004386216
	            -0.0011442377        0.0002662861        0.0001662448
	            -0.0000649249        0.0000299697        0.0000338202
	             0.0007083475       -0.0003388739       -0.0003590889
	             0.0001680032       -0.0000091423       -0.0000909537
	            -0.0001539972        0.0000038200       -0.0000525083

	Previous optimization step data not found.  Starting new optimization.

	---Fragment 1 Intrafragment Coordinates---
	 - Coordinate -           - BOHR/RAD -       - ANG/DEG -
	 R(1,2)           =         2.244805	       1.187900
	 R(2,3)           =         2.864830	       1.516003
	 R(2,4)           =         2.853592	       1.510056
	 R(3,5)           =         2.898111	       1.533614
	 R(3,6)           =         2.050340	       1.084993
	 R(3,7)           =         2.045956	       1.082673
	 R(4,14)          =         2.049073	       1.084323
	 R(4,15)          =         2.039239	       1.079119
	 R(4,16)          =         2.050899	       1.085289
	 R(5,8)           =         2.880669	       1.524385
	 R(5,9)           =         2.052627	       1.086203
	 R(5,10)          =         2.047826	       1.083663
	 R(8,11)          =         2.047568	       1.083526
	 R(8,12)          =         2.049941	       1.084782
	 R(8,13)          =         2.049173	       1.084376
	 B(1,2,3)         =         2.112245	     121.022715
	 B(1,2,4)         =         2.123069	     121.642910
	 B(2,3,5)         =         1.939190	     111.107380
	 B(2,3,6)         =         1.925615	     110.329585
	 B(2,3,7)         =         1.878914	     107.653821
	 B(2,4,14)        =         1.931496	     110.666574
	 B(2,4,15)        =         1.922582	     110.155829
	 B(2,4,16)        =         1.906122	     109.212721
	 B(3,2,4)         =         2.047782	     117.329268
	 B(3,5,8)         =         1.962560	     112.446393
	 B(3,5,9)         =         1.915094	     109.726827
	 B(3,5,10)        =         1.895848	     108.624061
	 B(5,3,6)         =         1.915756	     109.764741
	 B(5,3,7)         =         1.912523	     109.579472
	 B(5,8,11)        =         1.936283	     110.940834
	 B(5,8,12)        =         1.941909	     111.263188
	 B(5,8,13)        =         1.938060	     111.042654
	 B(6,3,7)         =         1.890854	     108.337926
	 B(8,5,9)         =         1.908480	     109.347848
	 B(8,5,10)        =         1.917303	     109.853398
	 B(9,5,10)        =         1.861819	     106.674360
	 B(11,8,12)       =         1.881601	     107.807772
	 B(11,8,13)       =         1.882006	     107.831004
	 B(12,8,13)       =         1.881481	     107.800927
	 B(14,4,15)       =         1.920913	     110.060200
	 B(14,4,16)       =         1.870422	     107.167289
	 B(15,4,16)       =         1.911482	     109.519851
	 D(1,2,3,5)       =        -1.465247	     -83.952480
	 D(1,2,3,6)       =         2.689042	     154.070736
	 D(1,2,3,7)       =         0.628938	      36.035496
	 D(1,2,4,14)      =         2.260836	     129.536370
	 D(1,2,4,15)      =         0.132658	       7.600719
	 D(1,2,4,16)      =        -1.967332	    -112.719835
	 D(2,3,5,8)       =        -1.779088	    -101.934251
	*D(2,3,5,9)       =         0.349065	      19.999948
	 D(2,3,5,10)      =         2.378255	     136.263987
	 D(3,2,4,14)      =        -0.866545	     -49.649377
	 D(3,2,4,15)      =        -2.994724	    -171.585027
	 D(3,2,4,16)      =         1.188472	      68.094418
	 D(3,5,8,11)      =        -3.130234	    -179.349216
	 D(3,5,8,12)      =         1.058221	      60.631595
	 D(3,5,8,13)      =        -1.037551	     -59.447316
	 D(4,2,3,5)       =         1.662227	      95.238615
	 D(4,2,3,6)       =        -0.466669	     -26.738169
	 D(4,2,3,7)       =        -2.526773	    -144.773409
	 D(6,3,5,8)       =         0.355534	      20.370588
	 D(6,3,5,9)       =         2.483687	     142.304788
	 D(6,3,5,10)      =        -1.770308	    -101.431173
	 D(7,3,5,8)       =         2.429995	     139.228464
	 D(7,3,5,9)       =        -1.725037	     -98.837337
	 D(7,3,5,10)      =         0.304153	      17.426702
	 D(9,5,8,11)      =         1.021048	      58.501717
	 D(9,5,8,12)      =        -1.073682	     -61.517472
	 D(9,5,8,13)      =         3.113731	     178.403617
	 D(10,5,8,11)     =        -1.016636	     -58.248935
	 D(10,5,8,12)     =        -3.111366	    -178.268124
	 D(10,5,8,13)     =         1.076047	      61.652965

	Current energy   :      -270.1237486372

	Generating empirical Hessian (Schlegel '84) for each fragment.
	Taking RFO optimization step.
	Going to follow RFO solution 1.
	Using RFO vector 1.
	Norm of target step-size    0.18108
	Projected energy change by RFO approximation:        -0.0020744548

	Back-transformation to cartesian coordinates...
	Successfully converged to displaced geometry.

	Back-transformation to cartesian coordinates to adjust frozen coordinates...
	Successfully converged to displaced geometry.

	--- Internal Coordinate Step in ANG or DEG, aJ/ANG or AJ/DEG ---
	 ---------------------------------------------------------------------------
	   Coordinate                Previous        Force       Change         New 
	   ----------                --------       ------       ------       ------
	    1 R(1,2)          =      1.187900    -0.002091    -0.000121     1.187779
	    2 R(2,3)          =      1.516003     0.012428     0.002584     1.518586
	    3 R(2,4)          =      1.510056     0.002708     0.000552     1.510608
	    4 R(3,5)          =      1.533614     0.091538     0.020113     1.553727
	    5 R(3,6)          =      1.084993    -0.007317    -0.001322     1.083671
	    6 R(3,7)          =      1.082673    -0.009698    -0.001739     1.080934
	    7 R(4,14)         =      1.084323    -0.006487    -0.001170     1.083153
	    8 R(4,15)         =      1.079119     0.000851     0.000151     1.079270
	    9 R(4,16)         =      1.085289     0.000116     0.000021     1.085310
	   10 R(5,8)          =      1.524385     0.018578     0.003966     1.528351
	   11 R(5,9)          =      1.086203    -0.014198    -0.002576     1.083627
	   12 R(5,10)         =      1.083663    -0.007683    -0.001382     1.082281
	   13 R(8,11)         =      1.083526     0.001730     0.000311     1.083837
	   14 R(8,12)         =      1.084782    -0.005548    -0.001002     1.083780
	   15 R(8,13)         =      1.084376     0.000134     0.000024     1.084400
	   16 B(1,2,3)        =    121.022715    -0.000070    -0.220282   120.802432
	   17 B(1,2,4)        =    121.642910    -0.000116    -0.356021   121.286890
	   18 B(2,3,5)        =    111.107380     0.000327     1.276885   112.384265
	   19 B(2,3,6)        =    110.329585    -0.000080     0.294406   110.623992
	   20 B(2,3,7)        =    107.653821    -0.000247    -1.910723   105.743097
	   21 B(2,4,14)       =    110.666574     0.000041     0.215214   110.881788
	   22 B(2,4,15)       =    110.155829    -0.000001    -0.007622   110.148207
	   23 B(2,4,16)       =    109.212721    -0.000020    -0.112481   109.100240
	   24 B(3,2,4)        =    117.329268     0.000186     0.547278   117.876547
	   25 B(3,5,8)        =    112.446393     0.000501     1.958622   114.405014
	   26 B(3,5,9)        =    109.726827    -0.000145    -0.053776   109.673051
	   27 B(3,5,10)       =    108.624061    -0.000057     0.228854   108.852915
	   28 B(5,3,6)        =    109.764741    -0.000036     0.690233   110.454974
	   29 B(5,3,7)        =    109.579472     0.000025     0.123338   109.702809
	   30 B(5,8,11)       =    110.940834     0.000050     0.214750   111.155584
	   31 B(5,8,12)       =    111.263188     0.000090     0.424132   111.687320
	   32 B(5,8,13)       =    111.042654    -0.000019    -0.074137   110.968517
	   33 B(6,3,7)        =    108.337926     0.000001    -0.615915   107.722011
	   34 B(8,5,9)        =    109.347848    -0.000117    -0.284585   109.063264
	   35 B(8,5,10)       =    109.853398    -0.000249    -1.317026   108.536372
	   36 B(9,5,10)       =    106.674360     0.000043    -0.708250   105.966110
	   37 B(11,8,12)      =    107.807772    -0.000077    -0.384075   107.423697
	   38 B(11,8,13)      =    107.831004    -0.000018    -0.097873   107.733131
	   39 B(12,8,13)      =    107.800927    -0.000033    -0.116883   107.684045
	   40 B(14,4,15)      =    110.060200    -0.000013    -0.022349   110.037851
	   41 B(14,4,16)      =    107.167289    -0.000009    -0.038604   107.128684
	   42 B(15,4,16)      =    109.519851     0.000001    -0.038145   109.481706
	   43 D(1,2,3,5)      =    -83.952480     0.000005     1.400934   -82.551546
	   44 D(1,2,3,6)      =    154.070736    -0.000023    -0.597257   153.473478
	   45 D(1,2,3,7)      =     36.035496     0.000020     1.077783    37.113279
	   46 D(1,2,4,14)     =    129.536370     0.000001     0.062174   129.598544
	   47 D(1,2,4,15)     =      7.600719    -0.000002    -0.048587     7.552133
	   48 D(1,2,4,16)     =   -112.719835     0.000001     0.073638  -112.646197
	   49 D(2,3,5,8)      =   -101.934251    -0.000020    -0.961312  -102.895563
	   50 *D(2,3,5,9)     =     19.999948     0.000000    -0.000000    19.999948
	   51 D(2,3,5,10)     =    136.263987    -0.000014    -0.748293   135.515694
	   52 D(3,2,4,14)     =    -49.649377    -0.000004    -2.860836   -52.510212
	   53 D(3,2,4,15)     =   -171.585027    -0.000006    -2.971596  -174.556623
	   54 D(3,2,4,16)     =     68.094418    -0.000003    -2.849371    65.245047
	   55 D(3,5,8,11)     =   -179.349216    -0.000002    -0.729212  -180.078429
	   56 D(3,5,8,12)     =     60.631595    -0.000002    -0.672546    59.959050
	   57 D(3,5,8,13)     =    -59.447316    -0.000003    -0.759252   -60.206569
	   58 D(4,2,3,5)      =     95.238615     0.000009     4.307884    99.546499
	   59 D(4,2,3,6)      =    -26.738169    -0.000019     2.309693   -24.428476
	   60 D(4,2,3,7)      =   -144.773409     0.000024     3.984734  -140.788675
	   61 D(6,3,5,8)      =     20.370588     0.000001     0.802632    21.173220
	   62 D(6,3,5,9)      =    142.304788     0.000021     1.763943   144.068731
	   63 D(6,3,5,10)     =   -101.431173     0.000007     1.015650  -100.415523
	   64 D(7,3,5,8)      =    139.228464     0.000000     0.542513   139.770976
	   65 D(7,3,5,9)      =    -98.837337     0.000020     1.503824   -97.333513
	   66 D(7,3,5,10)     =     17.426702     0.000006     0.755531    18.182233
	   67 D(9,5,8,11)     =     58.501717    -0.000018    -1.804985    56.696732
	   68 D(9,5,8,12)     =    -61.517472    -0.000017    -1.748318   -63.265790
	   69 D(9,5,8,13)     =    178.403617    -0.000019    -1.835024   176.568592
	   70 D(10,5,8,11)    =    -58.248935     0.000018    -0.067157   -58.316092
	   71 D(10,5,8,12)    =   -178.268124     0.000019    -0.010490  -178.278614
	   72 D(10,5,8,13)    =     61.652965     0.000018    -0.097197    61.555768
	 ---------------------------------------------------------------------------

  ==> Convergence Check <==

  Measures of convergence in internal coordinates in au.
  Criteria marked as inactive (o), active & met (*), and active & unmet ( ).
  --------------------------------------------------------------------------------------------- ~
   Step     Total Energy     Delta E     MAX Force     RMS Force      MAX Disp      RMS Disp    ~
  --------------------------------------------------------------------------------------------- ~
    Convergence Criteria    1.00e-06 *    3.00e-04 *             o    1.20e-03 *             o  ~
  --------------------------------------------------------------------------------------------- ~
      1    -270.12374864   -2.70e+02      1.11e-02      1.90e-03 o    7.52e-02      2.13e-02 o  ~
  ---------------------------------------------------------------------------------------------

	Writing optimization data to binary file.
	Structure for next step:
	Cartesian Geometry (in Angstrom)
	    O    -1.3424263086   1.4485171785   0.0676513311
	    C    -0.9330545970   0.3491709898   0.2538549224
	    C     0.4720299978   0.1218547531   0.7831653638
	    C    -1.8042478304  -0.8624984244   0.0197237053
	    C     1.5436091710   0.1760205141  -0.3406020183
	    H     0.5310077849  -0.8189824432   1.3176648357
	    H     0.6495147954   0.9161141029   1.4945508700
	    C     2.0607016211  -1.1913191178  -0.7865316237
	    H     1.1443703866   0.7010384761  -1.2003765031
	    H     2.3830545871   0.7654325589   0.0047329820
	    H     2.8024043446  -1.0923342553  -1.5706123104
	    H     1.2625764813  -1.8151994487  -1.1716923393
	    H     2.5224064688  -1.7200352222   0.0400341902
	    H    -1.2950454645  -1.5901334108  -0.6003417332
	    H    -2.7338102056  -0.5681983387  -0.4430118555
	    H    -2.0095591769  -1.3415817772   0.9716821131
			--------------------------
			 OPTKING Finished Execution 
			--------------------------

    Structure for next step:
    Molecular point group: c1
    Full point group: C1

    Geometry (in Angstrom), charge = 0, multiplicity = 1:

    O           -1.341200757251     1.452323005873     0.078444755912
    C           -0.931829076869     0.352976901162     0.264648332987
    C            0.473255410624     0.125660681796     0.793958733941
    C           -1.803022243751    -0.858692420496     0.030517133723
    C            1.544834501971     0.179826438685    -0.329808562377
    H            0.532233193160    -0.815176442642     1.328458165046
    H            0.650740194642     0.919919970915     1.505344185814
    C            2.061926912609    -1.187513088839    -0.775738133708
    H            1.145595748036     0.704844360568    -1.189582981428
    H            2.384279853966     0.769238438483     0.015526411577
    H            2.803629579480    -1.088528233847    -1.559818760474
    H            1.263801833774    -1.811393372080    -1.160898819915
    H            2.523631725053    -1.716229152842     0.050827617069
    H           -1.293819916759    -1.586327351355    -0.589548257395
    H           -2.732584548009    -0.564392357308    -0.432218391734
    H           -2.008333574645    -1.337775736727     0.982475468839

gradient() will perform analytic gradient computation.

*** tstart() called on cx1-27-4-1
*** at Fri Sep  9 22:01:12 2016


         ---------------------------------------------------------
                                   SCF
            by Justin Turney, Rob Parrish, and Andy Simmonett
                              RHF Reference
                        4 Threads,   2000 MiB Core
         ---------------------------------------------------------

  ==> Geometry <==

    Molecular point group: c1
    Full point group: C1

    Geometry (in Angstrom), charge = 0, multiplicity = 1:

       Center              X                  Y                   Z               Mass       
    ------------   -----------------  -----------------  -----------------  -----------------
           O         -1.341200757251     1.452323005873     0.078444755912    15.994914619560
           C         -0.931829076869     0.352976901162     0.264648332987    12.000000000000
           C          0.473255410624     0.125660681796     0.793958733941    12.000000000000
           C         -1.803022243751    -0.858692420496     0.030517133723    12.000000000000
           C          1.544834501971     0.179826438685    -0.329808562377    12.000000000000
           H          0.532233193160    -0.815176442642     1.328458165046     1.007825032070
           H          0.650740194642     0.919919970915     1.505344185814     1.007825032070
           C          2.061926912609    -1.187513088839    -0.775738133708    12.000000000000
           H          1.145595748036     0.704844360568    -1.189582981428     1.007825032070
           H          2.384279853966     0.769238438483     0.015526411577     1.007825032070
           H          2.803629579480    -1.088528233847    -1.559818760474     1.007825032070
           H          1.263801833774    -1.811393372080    -1.160898819915     1.007825032070
           H          2.523631725053    -1.716229152842     0.050827617069     1.007825032070
           H         -1.293819916759    -1.586327351355    -0.589548257395     1.007825032070
           H         -2.732584548009    -0.564392357308    -0.432218391734     1.007825032070
           H         -2.008333574645    -1.337775736727     0.982475468839     1.007825032070

  Running in c1 symmetry.

  Rotational constants: A =      0.20013  B =      0.07092  C =      0.05988 [cm^-1]
  Rotational constants: A =   5999.76466  B =   2126.18636  C =   1795.18220 [MHz]
  Nuclear repulsion =  239.008869185540988

  Charge       = 0
  Multiplicity = 1
  Electrons    = 48
  Nalpha       = 24
  Nbeta        = 24

  ==> Algorithm <==

  SCF Algorithm Type is DF.
  DIIS enabled.
  MOM disabled.
  Fractional occupation disabled.
  Guess Type is READ.
  Energy threshold   = 1.00e-08
  Density threshold  = 1.00e-08
  Integral threshold = 0.00e+00

  ==> Primary Basis <==

  Basis Set: CC-PVTZ
    Number of shells: 120
    Number of basis function: 320
    Number of Cartesian functions: 360
    Spherical Harmonics?: true
    Max angular momentum: 3

  ==> Pre-Iterations <==

   -------------------------------------------------------
    Irrep   Nso     Nmo     Nalpha   Nbeta   Ndocc  Nsocc
   -------------------------------------------------------
     A        320     320       0       0       0       0
   -------------------------------------------------------
    Total     320     320      24      24      24       0
   -------------------------------------------------------

 OEINTS: Overlap, kinetic, potential, dipole, and quadrupole integrals
         stored in file 35.

  ==> Integral Setup <==

  ==> DFJK: Density-Fitted J/K Matrices <==

    J tasked:                  Yes
    K tasked:                  Yes
    wK tasked:                  No
    OpenMP threads:              4
    Integrals threads:           4
    Memory (MB):              1430
    Algorithm:                Core
    Integral Cache:           NONE
    Schwarz Cutoff:          1E-12
    Fitting Condition:       1E-12

   => Auxiliary Basis Set <=

  Basis Set: 
    Number of shells: 250
    Number of basis function: 774
    Number of Cartesian functions: 926
    Spherical Harmonics?: true
    Max angular momentum: 4

  Minimum eigenvalue in the overlap matrix is 4.8275749999E-04.
  Using Symmetric Orthogonalization.
  SCF Guess: Reading in previously saved MOs, projecting if necessary.

  Using orbitals from previous SCF, no projection.
  Recomputing DOCC and SOCC from number of alpha and beta electrons from previous calculation.
              A 
    DOCC [    24 ]

  ==> Iterations <==

                           Total Energy        Delta E     RMS |[F,P]|

   @DF-RHF iter   0:  -270.11542623817252   -2.70115e+02   3.09966e-04 
   @DF-RHF iter   1:  -270.12377098011257   -8.34474e-03   5.12774e-05 
   @DF-RHF iter   2:  -270.12402482352354   -2.53843e-04   1.77862e-05 DIIS
   @DF-RHF iter   3:  -270.12406952592050   -4.47024e-05   6.39437e-06 DIIS
   @DF-RHF iter   4:  -270.12407478968021   -5.26376e-06   3.19033e-06 DIIS
   @DF-RHF iter   5:  -270.12407694373212   -2.15405e-06   1.88733e-06 DIIS
   @DF-RHF iter   6:  -270.12407787392578   -9.30194e-07   7.45093e-07 DIIS
   @DF-RHF iter   7:  -270.12407804429790   -1.70372e-07   2.10625e-07 DIIS
   @DF-RHF iter   8:  -270.12407805486214   -1.05642e-08   6.25836e-08 DIIS
   @DF-RHF iter   9:  -270.12407805557098   -7.08837e-10   2.28072e-08 DIIS
   @DF-RHF iter  10:  -270.12407805565476   -8.37872e-11   7.73302e-09 DIIS

  ==> Post-Iterations <==

    Orbital Energies (a.u.)
    -----------------------

    Doubly Occupied:                                                      

       1A    -20.536740     2A    -11.320170     3A    -11.231907  
       4A    -11.229164     5A    -11.227272     6A    -11.219349  
       7A     -1.397469     8A     -1.079061     9A     -1.012862  
      10A     -0.953005    11A     -0.832213    12A     -0.734824  
      13A     -0.659543    14A     -0.646972    15A     -0.618422  
      16A     -0.595420    17A     -0.589664    18A     -0.560265  
      19A     -0.546318    20A     -0.521195    21A     -0.493198  
      22A     -0.485131    23A     -0.473406    24A     -0.400500  

    Virtual:                                                              

      25A      0.126533    26A      0.151374    27A      0.160028  
      28A      0.182103    29A      0.186760    30A      0.205907  
      31A      0.213360    32A      0.217114    33A      0.230152  
      34A      0.234199    35A      0.272523    36A      0.292020  
      37A      0.314512    38A      0.345789    39A      0.361895  
      40A      0.367450    41A      0.394664    42A      0.405556  
      43A      0.412703    44A      0.427777    45A      0.447817  
      46A      0.477603    47A      0.511308    48A      0.521780  
      49A      0.570770    50A      0.574001    51A      0.580988  
      52A      0.594739    53A      0.596239    54A      0.611901  
      55A      0.623001    56A      0.637344    57A      0.640208  
      58A      0.647821    59A      0.655651    60A      0.668534  
      61A      0.672642    62A      0.676012    63A      0.686323  
      64A      0.699160    65A      0.715913    66A      0.730926  
      67A      0.750980    68A      0.795300    69A      0.820142  
      70A      0.851628    71A      0.864812    72A      0.888089  
      73A      0.918921    74A      0.946408    75A      0.969487  
      76A      0.994646    77A      1.010958    78A      1.028601  
      79A      1.040126    80A      1.066966    81A      1.097448  
      82A      1.117049    83A      1.127450    84A      1.152111  
      85A      1.164864    86A      1.173003    87A      1.201675  
      88A      1.210680    89A      1.228532    90A      1.247705  
      91A      1.256536    92A      1.271235    93A      1.294753  
      94A      1.306297    95A      1.322419    96A      1.325376  
      97A      1.353655    98A      1.367789    99A      1.381157  
     100A      1.387266   101A      1.393307   102A      1.419817  
     103A      1.444680   104A      1.455180   105A      1.470131  
     106A      1.486242   107A      1.508878   108A      1.516554  
     109A      1.521425   110A      1.531365   111A      1.541176  
     112A      1.562239   113A      1.583588   114A      1.611862  
     115A      1.613230   116A      1.635756   117A      1.655302  
     118A      1.672554   119A      1.707476   120A      1.721129  
     121A      1.736972   122A      1.755978   123A      1.788725  
     124A      1.814988   125A      1.818133   126A      1.864090  
     127A      1.910222   128A      1.946208   129A      2.028465  
     130A      2.089312   131A      2.188693   132A      2.254691  
     133A      2.425999   134A      2.442944   135A      2.488692  
     136A      2.517420   137A      2.541965   138A      2.569736  
     139A      2.604637   140A      2.635582   141A      2.655116  
     142A      2.675224   143A      2.730210   144A      2.740619  
     145A      2.754376   146A      2.777555   147A      2.804569  
     148A      2.809102   149A      2.827775   150A      2.858335  
     151A      2.919320   152A      2.926856   153A      2.944241  
     154A      2.954557   155A      2.985618   156A      2.999226  
     157A      3.025683   158A      3.040329   159A      3.085821  
     160A      3.091955   161A      3.104569   162A      3.121987  
     163A      3.148948   164A      3.150162   165A      3.161489  
     166A      3.183336   167A      3.195298   168A      3.232054  
     169A      3.246501   170A      3.254834   171A      3.266465  
     172A      3.275850   173A      3.301894   174A      3.332637  
     175A      3.341907   176A      3.379031   177A      3.387535  
     178A      3.396937   179A      3.409172   180A      3.410991  
     181A      3.430298   182A      3.447813   183A      3.455855  
     184A      3.463759   185A      3.479342   186A      3.492842  
     187A      3.510767   188A      3.525205   189A      3.564956  
     190A      3.591084   191A      3.607858   192A      3.633530  
     193A      3.648913   194A      3.658559   195A      3.689588  
     196A      3.700558   197A      3.718668   198A      3.739717  
     199A      3.747061   200A      3.756907   201A      3.769096  
     202A      3.796202   203A      3.811626   204A      3.819515  
     205A      3.831793   206A      3.876519   207A      3.885744  
     208A      3.890850   209A      3.914468   210A      3.931819  
     211A      3.964968   212A      3.978932   213A      4.017922  
     214A      4.059918   215A      4.082861   216A      4.090167  
     217A      4.106321   218A      4.122000   219A      4.135522  
     220A      4.140805   221A      4.172032   222A      4.193836  
     223A      4.200355   224A      4.218569   225A      4.225555  
     226A      4.248444   227A      4.254788   228A      4.272077  
     229A      4.284559   230A      4.299749   231A      4.335925  
     232A      4.354525   233A      4.371838   234A      4.374359  
     235A      4.403447   236A      4.410730   237A      4.426186  
     238A      4.437786   239A      4.446758   240A      4.477179  
     241A      4.494545   242A      4.519484   243A      4.544612  
     244A      4.557439   245A      4.589793   246A      4.608780  
     247A      4.622616   248A      4.636751   249A      4.650244  
     250A      4.675294   251A      4.694659   252A      4.729205  
     253A      4.739028   254A      4.761463   255A      4.766536  
     256A      4.808958   257A      4.908280   258A      4.915975  
     259A      4.924171   260A      4.969319   261A      5.006658  
     262A      5.034097   263A      5.129667   264A      5.153125  
     265A      5.180533   266A      5.203937   267A      5.226421  
     268A      5.250291   269A      5.257523   270A      5.263457  
     271A      5.293822   272A      5.372422   273A      5.394427  
     274A      5.403147   275A      5.407682   276A      5.456030  
     277A      5.479039   278A      5.512863   279A      5.525473  
     280A      5.537165   281A      5.551435   282A      5.582976  
     283A      5.594964   284A      5.647574   285A      5.654079  
     286A      5.689901   287A      5.712867   288A      5.741350  
     289A      5.744941   290A      5.758856   291A      5.764753  
     292A      5.785091   293A      5.795619   294A      5.834653  
     295A      5.872529   296A      5.897815   297A      5.929521  
     298A      6.078346   299A      6.127335   300A      6.235240  
     301A      6.252033   302A      6.274923   303A      6.309158  
     304A      6.326856   305A      6.394204   306A      6.423176  
     307A      6.810816   308A      6.838673   309A      6.955694  
     310A      7.022576   311A      7.230119   312A      7.392294  
     313A      7.570222   314A      7.612297   315A      9.687551  
     316A     12.729918   317A     13.612662   318A     14.251007  
     319A     14.265194   320A     14.486172  

    Final Occupation by Irrep:
              A 
    DOCC [    24 ]

  Energy converged.

  @DF-RHF Final Energy:  -270.12407805565476

   => Energetics <=

    Nuclear Repulsion Energy =            239.0088691855409877
    One-Electron Energy =                -839.5377572113272890
    Two-Electron Energy =                 330.4048099701311116
    DFT Exchange-Correlation Energy =       0.0000000000000000
    Empirical Dispersion Energy =           0.0000000000000000
    PCM Polarization Energy =               0.0000000000000000
    EFP Energy =                            0.0000000000000000
    Total Energy =                       -270.1240780556551613

    Alert: EFP and PCM quantities not currently incorporated into SCF psivars.

Properties will be evaluated at   0.000000,   0.000000,   0.000000 Bohr
  ==> Properties <==


Properties computed using the SCF density matrix

  Nuclear Dipole Moment: (a.u.)
     X:     4.9332      Y:    -6.1108      Z:    -0.9834

  Electronic Dipole Moment: (a.u.)
     X:    -4.4080      Y:     5.0208      Z:     1.1373

  Dipole Moment: (a.u.)
     X:     0.5252      Y:    -1.0900      Z:     0.1539     Total:     1.2196

  Dipole Moment: (Debye)
     X:     1.3349      Y:    -2.7704      Z:     0.3912     Total:     3.1000


  Saving occupied orbitals to File 180.

*** tstop() called on cx1-27-4-1 at Fri Sep  9 22:01:26 2016
Module time:
	user time   =      36.63 seconds =       0.61 minutes
	system time =       0.57 seconds =       0.01 minutes
	total time  =         14 seconds =       0.23 minutes
Total time:
	user time   =     160.78 seconds =       2.68 minutes
	system time =       1.98 seconds =       0.03 minutes
	total time  =         49 seconds =       0.82 minutes

*** tstart() called on cx1-27-4-1
*** at Fri Sep  9 22:01:26 2016


         ------------------------------------------------------------
                                   SCF GRAD                          
                          Rob Parrish, Justin Turney,                
                       Andy Simmonett, and Alex Sokolov              
         ------------------------------------------------------------

  ==> Geometry <==

    Molecular point group: c1
    Full point group: C1

    Geometry (in Angstrom), charge = 0, multiplicity = 1:

       Center              X                  Y                   Z               Mass       
    ------------   -----------------  -----------------  -----------------  -----------------
           O         -1.341200757251     1.452323005873     0.078444755912    15.994914619560
           C         -0.931829076869     0.352976901162     0.264648332987    12.000000000000
           C          0.473255410624     0.125660681796     0.793958733941    12.000000000000
           C         -1.803022243751    -0.858692420496     0.030517133723    12.000000000000
           C          1.544834501971     0.179826438685    -0.329808562377    12.000000000000
           H          0.532233193160    -0.815176442642     1.328458165046     1.007825032070
           H          0.650740194642     0.919919970915     1.505344185814     1.007825032070
           C          2.061926912609    -1.187513088839    -0.775738133708    12.000000000000
           H          1.145595748036     0.704844360568    -1.189582981428     1.007825032070
           H          2.384279853966     0.769238438483     0.015526411577     1.007825032070
           H          2.803629579480    -1.088528233847    -1.559818760474     1.007825032070
           H          1.263801833774    -1.811393372080    -1.160898819915     1.007825032070
           H          2.523631725053    -1.716229152842     0.050827617069     1.007825032070
           H         -1.293819916759    -1.586327351355    -0.589548257395     1.007825032070
           H         -2.732584548009    -0.564392357308    -0.432218391734     1.007825032070
           H         -2.008333574645    -1.337775736727     0.982475468839     1.007825032070

  Nuclear repulsion =  239.008869185540988

  ==> Basis Set <==

  Basis Set: CC-PVTZ
    Number of shells: 120
    Number of basis function: 320
    Number of Cartesian functions: 360
    Spherical Harmonics?: true
    Max angular momentum: 3

  ==> DFJKGrad: Density-Fitted SCF Gradients <==

    Gradient:                    1
    J tasked:                  Yes
    K tasked:                  Yes
    wK tasked:                  No
    OpenMP threads:              4
    Integrals threads:           4
    Memory (MB):              1430
    Schwarz Cutoff:          0E+00
    Fitting Condition:       1E-12

   => Auxiliary Basis Set <=

  Basis Set: 
    Number of shells: 250
    Number of basis function: 774
    Number of Cartesian functions: 926
    Spherical Harmonics?: true
    Max angular momentum: 4


  -Total Gradient:
     Atom            X                  Y                   Z
    ------   -----------------  -----------------  -----------------
       1       -0.001280504694    -0.000223557466     0.002079242099
       2        0.002622680339     0.002287613486    -0.004637564155
       3       -0.002425136973    -0.002251912875     0.003354359390
       4       -0.000322907889    -0.000288689072     0.001212918296
       5        0.000055341726     0.002040071705     0.000367322533
       6       -0.000263678478     0.000450440336     0.000663489733
       7       -0.000645995905    -0.000502295774     0.000218857950
       8        0.001626824505     0.000088392696    -0.001428252574
       9        0.000455158372    -0.001568579317    -0.001047245058
      10        0.000180199442    -0.000199692900    -0.000974308247
      11        0.000217086783    -0.000920705342    -0.000213543910
      12        0.000521426289     0.000535806838     0.000174104689
      13       -0.000031192512     0.000233411153    -0.000069385016
      14       -0.000410605298     0.000493806660     0.000377231602
      15       -0.000087304745    -0.000083837307    -0.000001729188
      16       -0.000211390964    -0.000090272819    -0.000075498142


*** tstop() called on cx1-27-4-1 at Fri Sep  9 22:01:46 2016
Module time:
	user time   =      77.68 seconds =       1.29 minutes
	system time =       0.68 seconds =       0.01 minutes
	total time  =         20 seconds =       0.33 minutes
Total time:
	user time   =     238.48 seconds =       3.97 minutes
	system time =       2.66 seconds =       0.04 minutes
	total time  =         69 seconds =       1.15 minutes
CURRENT ENERGY: -270.1240780557

			-----------------------------------------
			 OPTKING 2.0: for geometry optimizations 
			  - R.A. King,  Bethel University        
			-----------------------------------------

	Previous internal coordinate definitions found.
	---Fragment 1 Geometry and Gradient---
	 O          -2.5345021204        2.7444927376        0.1482391052
	 C          -1.7609017579        0.6670296744        0.5001128709
	 C           0.8943231170        0.2374642743        1.5003645680
	 C          -3.4072182522       -1.6226935071        0.0576690251
	 C           2.9193141294        0.3398227206       -0.6232478592
	 H           1.0057749739       -1.5404602266        2.5104221109
	 H           1.2297207515        1.7383968092        2.8446882469
	 C           3.8964771709       -2.2440745171       -1.4659326235
	 H           2.1648622228        1.3319628078       -2.2479860472
	 H           4.5056359482        1.4536499796        0.0293406657
	 H           5.2980920833       -2.0570202499       -2.9476302742
	 H           2.3882393521       -3.4230373922       -2.1937808376
	 H           4.7689728206       -3.2432030801        0.0960502762
	 H          -2.4449653079       -2.9977242512       -1.1140847486
	 H          -5.1638364307       -1.0665469868       -0.8167743900
	 H          -3.7952004396       -2.5280297696        1.8566095684
	            -0.0012805047       -0.0002235575        0.0020792421
	             0.0026226803        0.0022876135       -0.0046375642
	            -0.0024251370       -0.0022519129        0.0033543594
	            -0.0003229079       -0.0002886891        0.0012129183
	             0.0000553417        0.0020400717        0.0003673225
	            -0.0002636785        0.0004504403        0.0006634897
	            -0.0006459959       -0.0005022958        0.0002188579
	             0.0016268245        0.0000883927       -0.0014282526
	             0.0004551584       -0.0015685793       -0.0010472451
	             0.0001801994       -0.0001996929       -0.0009743082
	             0.0002170868       -0.0009207053       -0.0002135439
	             0.0005214263        0.0005358068        0.0001741047
	            -0.0000311925        0.0002334112       -0.0000693850
	            -0.0004106053        0.0004938067        0.0003772316
	            -0.0000873047       -0.0000838373       -0.0000017292
	            -0.0002113910       -0.0000902728       -0.0000754981

	---Fragment 1 Intrafragment Coordinates---
	 - Coordinate -           - BOHR/RAD -       - ANG/DEG -
	 R(1,2)           =         2.244577	       1.187779
	 R(2,3)           =         2.869712	       1.518586
	 R(2,4)           =         2.854636	       1.510608
	 R(3,5)           =         2.936119	       1.553727
	 R(3,6)           =         2.047841	       1.083671
	 R(3,7)           =         2.042669	       1.080934
	 R(4,14)          =         2.046863	       1.083153
	 R(4,15)          =         2.039524	       1.079270
	 R(4,16)          =         2.050939	       1.085310
	 R(5,8)           =         2.888164	       1.528351
	 R(5,9)           =         2.047758	       1.083627
	 R(5,10)          =         2.045214	       1.082281
	 R(8,11)          =         2.048156	       1.083837
	 R(8,12)          =         2.048047	       1.083780
	 R(8,13)          =         2.049219	       1.084400
	 B(1,2,3)         =         2.108400	     120.802432
	 B(1,2,4)         =         2.116856	     121.286890
	 B(2,3,5)         =         1.961475	     112.384265
	 B(2,3,6)         =         1.930753	     110.623992
	 B(2,3,7)         =         1.845565	     105.743097
	 B(2,4,14)        =         1.935252	     110.881788
	 B(2,4,15)        =         1.922449	     110.148207
	 B(2,4,16)        =         1.904158	     109.100240
	 B(3,2,4)         =         2.057334	     117.876547
	 B(3,5,8)         =         1.996744	     114.405014
	 B(3,5,9)         =         1.914156	     109.673051
	 B(3,5,10)        =         1.899842	     108.852915
	 B(5,3,6)         =         1.927803	     110.454974
	 B(5,3,7)         =         1.914675	     109.702809
	 B(5,8,11)        =         1.940031	     111.155584
	 B(5,8,12)        =         1.949311	     111.687320
	 B(5,8,13)        =         1.936766	     110.968517
	 B(6,3,7)         =         1.880104	     107.722011
	 B(8,5,9)         =         1.903513	     109.063264
	 B(8,5,10)        =         1.894317	     108.536372
	 B(9,5,10)        =         1.849458	     105.966110
	 B(11,8,12)       =         1.874897	     107.423697
	 B(11,8,13)       =         1.880298	     107.733131
	 B(12,8,13)       =         1.879441	     107.684045
	 B(14,4,15)       =         1.920523	     110.037851
	 B(14,4,16)       =         1.869748	     107.128684
	 B(15,4,16)       =         1.910816	     109.481706
	 D(1,2,3,5)       =        -1.440796	     -82.551546
	 D(1,2,3,6)       =         2.678618	     153.473478
	 D(1,2,3,7)       =         0.647749	      37.113279
	 D(1,2,4,14)      =         2.261921	     129.598544
	 D(1,2,4,15)      =         0.131810	       7.552133
	 D(1,2,4,16)      =        -1.966047	    -112.646197
	 D(2,3,5,8)       =        -1.795866	    -102.895563
	*D(2,3,5,9)       =         0.349065	      19.999948
	 D(2,3,5,10)      =         2.365195	     135.515694
	 D(3,2,4,14)      =        -0.916476	     -52.510212
	 D(3,2,4,15)      =        -3.046588	    -174.556623
	 D(3,2,4,16)      =         1.138741	      65.245047
	 D(3,5,8,11)      =         3.140224	     179.921571
	 D(3,5,8,12)      =         1.046483	      59.959050
	 D(3,5,8,13)      =        -1.050803	     -60.206569
	 D(4,2,3,5)       =         1.737414	      99.546499
	 D(4,2,3,6)       =        -0.426357	     -24.428476
	 D(4,2,3,7)       =        -2.457226	    -140.788675
	 D(6,3,5,8)       =         0.369542	      21.173220
	 D(6,3,5,9)       =         2.514474	     144.068731
	 D(6,3,5,10)      =        -1.752581	    -100.415523
	 D(7,3,5,8)       =         2.439464	     139.770976
	 D(7,3,5,9)       =        -1.698790	     -97.333513
	 D(7,3,5,10)      =         0.317340	      18.182233
	 D(9,5,8,11)      =         0.989545	      56.696732
	 D(9,5,8,12)      =        -1.104196	     -63.265790
	 D(9,5,8,13)      =         3.081703	     176.568592
	 D(10,5,8,11)     =        -1.017808	     -58.316092
	 D(10,5,8,12)     =        -3.111549	    -178.278614
	 D(10,5,8,13)     =         1.074351	      61.555768

	Current energy   :      -270.1240780557

	Energy change for the previous step:
		Projected    :        -0.0020744548
		Actual       :        -0.0003294184
	Energy ratio indicates iffy step: Trust radius decreased to 1.250e-01.


	Performing BFGS update.
	Previous computed or guess Hessian on step 1.
	Steps to be used in Hessian update: 1
	Taking RFO optimization step.
	Going to follow RFO solution 1.
	Using RFO vector 1.

	Determining step-restricting scale parameter for RS-RFO.
	Maximum step size allowed    0.12500

	 Iter      |step|        alpha        rfo_root  
	------------------------------------------------
	    0     0.38550       1.00000           1
	    1     0.25576       5.05719           1
	    2     0.17970      12.65188           1
	    3     0.14122      21.68814           1
	    4     0.12724      27.02923           1
	    5     0.12505      28.02162           1
	    6     0.12500      28.04692           1
	------------------------------------------------
	Norm of target step-size    0.12500
	Projected energy change by RFO approximation:        -0.0001902857

	Back-transformation to cartesian coordinates...
	Successfully converged to displaced geometry.

	Back-transformation to cartesian coordinates to adjust frozen coordinates...
	Successfully converged to displaced geometry.

	--- Internal Coordinate Step in ANG or DEG, aJ/ANG or AJ/DEG ---
	 ---------------------------------------------------------------------------
	   Coordinate                Previous        Force       Change         New 
	   ----------                --------       ------       ------       ------
	    1 R(1,2)          =      1.187779     0.000754     0.000012     1.187791
	    2 R(2,3)          =      1.518586    -0.003223    -0.000071     1.518516
	    3 R(2,4)          =      1.510608    -0.002768    -0.000313     1.510296
	    4 R(3,5)          =      1.553727    -0.036264    -0.002489     1.551239
	    5 R(3,6)          =      1.083671     0.000644    -0.000124     1.083547
	    6 R(3,7)          =      1.080934     0.002728     0.000075     1.081009
	    7 R(4,14)         =      1.083153     0.006102     0.000597     1.083751
	    8 R(4,15)         =      1.079270    -0.000437    -0.000031     1.079238
	    9 R(4,16)         =      1.085310    -0.000112    -0.000011     1.085299
	   10 R(5,8)          =      1.528351    -0.010666    -0.000989     1.527361
	   11 R(5,9)          =      1.083627     0.000797    -0.000300     1.083327
	   12 R(5,10)         =      1.082281     0.002306     0.000078     1.082359
	   13 R(8,11)         =      1.083837    -0.001804    -0.000181     1.083656
	   14 R(8,12)         =      1.083780     0.006215     0.000639     1.084419
	   15 R(8,13)         =      1.084400     0.001483     0.000193     1.084593
	   16 B(1,2,3)        =    120.802432    -0.000039    -0.115808   120.686624
	   17 B(1,2,4)        =    121.286890     0.000062     0.076493   121.363383
	   18 B(2,3,5)        =    112.384265    -0.000023     0.096951   112.481216
	   19 B(2,3,6)        =    110.623992     0.000010     0.031328   110.655320
	   20 B(2,3,7)        =    105.743097     0.000048    -0.028822   105.714275
	   21 B(2,4,14)       =    110.881788    -0.000001     0.026362   110.908150
	   22 B(2,4,15)       =    110.148207    -0.000005    -0.007384   110.140823
	   23 B(2,4,16)       =    109.100240    -0.000023    -0.095128   109.005112
	   24 B(3,2,4)        =    117.876547    -0.000019     0.044756   117.921303
	   25 B(3,5,8)        =    114.405014    -0.000195    -0.278800   114.126214
	   26 B(3,5,9)        =    109.673051     0.000012    -0.271651   109.401399
	   27 B(3,5,10)       =    108.852915     0.000020     0.017920   108.870835
	   28 B(5,3,6)        =    110.454974    -0.000023    -0.105807   110.349167
	   29 B(5,3,7)        =    109.702809    -0.000036    -0.129057   109.573752
	   30 B(5,8,11)       =    111.155584    -0.000109    -0.345661   110.809923
	   31 B(5,8,12)       =    111.687320     0.000025     0.159103   111.846423
	   32 B(5,8,13)       =    110.968517     0.000031     0.103162   111.071680
	   33 B(6,3,7)        =    107.722011     0.000029     0.140120   107.862131
	   34 B(8,5,9)        =    109.063264     0.000069     0.036502   109.099765
	   35 B(8,5,10)       =    108.536372     0.000105     0.254219   108.790591
	   36 B(9,5,10)       =    105.966110     0.000004     0.289084   106.255194
	   37 B(11,8,12)      =    107.423697     0.000039     0.039864   107.463561
	   38 B(11,8,13)      =    107.733131     0.000033     0.061764   107.794895
	   39 B(12,8,13)      =    107.684045    -0.000016    -0.013866   107.670179
	   40 B(14,4,15)      =    110.037851     0.000007     0.031113   110.068963
	   41 B(14,4,16)      =    107.128684     0.000005    -0.005744   107.122941
	   42 B(15,4,16)      =    109.481706     0.000016     0.050243   109.531949
	   43 D(1,2,3,5)      =    -82.551546     0.000013     2.329989   -80.221558
	   44 D(1,2,3,6)      =    153.473478     0.000022     2.373690   155.847168
	   45 D(1,2,3,7)      =     37.113279     0.000007     2.208708    39.321987
	   46 D(1,2,4,14)     =    129.598544    -0.000012    -2.108403   127.490140
	   47 D(1,2,4,15)     =      7.552133    -0.000013    -2.160421     5.391711
	   48 D(1,2,4,16)     =   -112.646197    -0.000014    -2.158148  -114.804345
	   49 D(2,3,5,8)      =   -102.895563     0.000009     0.358076  -102.537487
	   50 *D(2,3,5,9)     =     19.999948     0.000000     0.000000    19.999948
	   51 D(2,3,5,10)     =    135.515694     0.000005     0.206216   135.721910
	   52 D(3,2,4,14)     =    -52.510212     0.000013     1.936095   -50.574117
	   53 D(3,2,4,15)     =   -174.556623     0.000012     1.884077  -172.672546
	   54 D(3,2,4,16)     =     65.245047     0.000012     1.886350    67.131397
	   55 D(3,5,8,11)     =    179.921571    -0.000003    -0.222267   179.699305
	   56 D(3,5,8,12)     =     59.959050    -0.000001    -0.144287    59.814762
	   57 D(3,5,8,13)     =    -60.206569    -0.000005    -0.305262   -60.511830
	   58 D(4,2,3,5)      =     99.546499    -0.000013    -1.690091    97.856409
	   59 D(4,2,3,6)      =    -24.428476    -0.000004    -1.646389   -26.074865
	   60 D(4,2,3,7)      =   -140.788675    -0.000019    -1.811372  -142.600047
	   61 D(6,3,5,8)      =     21.173220     0.000004     0.390187    21.563408
	   62 D(6,3,5,9)      =    144.068731    -0.000005     0.032112   144.100842
	   63 D(6,3,5,10)     =   -100.415523     0.000000     0.238328  -100.177196
	   64 D(7,3,5,8)      =    139.770976     0.000004     0.418077   140.189054
	   65 D(7,3,5,9)      =    -97.333513    -0.000005     0.060002   -97.273511
	   66 D(7,3,5,10)     =     18.182233    -0.000000     0.266217    18.448451
	   67 D(9,5,8,11)     =     56.696732     0.000013     0.300549    56.997281
	   68 D(9,5,8,12)     =    -63.265790     0.000015     0.378528   -62.887262
	   69 D(9,5,8,13)     =    176.568592     0.000011     0.217554   176.786146
	   70 D(10,5,8,11)    =    -58.316092    -0.000010    -0.199800   -58.515893
	   71 D(10,5,8,12)    =   -178.278614    -0.000008    -0.121821  -178.400435
	   72 D(10,5,8,13)    =     61.555768    -0.000012    -0.282795    61.272972
	 ---------------------------------------------------------------------------

  ==> Convergence Check <==

  Measures of convergence in internal coordinates in au.
  Criteria marked as inactive (o), active & met (*), and active & unmet ( ).
  ---------------------------------------------------------------------------------------------
   Step     Total Energy     Delta E     MAX Force     RMS Force      MAX Disp      RMS Disp   
  ---------------------------------------------------------------------------------------------
    Convergence Criteria    1.00e-06 *    3.00e-04 *             o    1.20e-03 *             o
  ---------------------------------------------------------------------------------------------
      2    -270.12407806   -3.29e-04      4.40e-03      8.12e-04 o    4.14e-02      1.47e-02 o  ~
  ---------------------------------------------------------------------------------------------

	Writing optimization data to binary file.
	Structure for next step:
	Cartesian Geometry (in Angstrom)
	    O    -1.3287036811   1.4500557163   0.0630215802
	    C    -0.9318672831   0.3529799036   0.2861664798
	    C     0.4782498339   0.1291815473   0.8032489728
	    C    -1.7905044984  -0.8617577315   0.0251160213
	    C     1.5397665112   0.1822447566  -0.3266660636
	    H     0.5444047638  -0.8105743400   1.3385580839
	    H     0.6610791908   0.9267559349   1.5096686209
	    C     2.0444621070  -1.1881668006  -0.7739768317
	    H     1.1291512147   0.7052587178  -1.1819137110
	    H     2.3826606056   0.7706170730   0.0122261794
	    H     2.7774108649  -1.0888116235  -1.5659521323
	    H     1.2406389914  -1.8109729687  -1.1507340307
	    H     2.5140318280  -1.7180313789   0.0476620267
	    H    -1.2634466533  -1.5834019641  -0.5880357860
	    H    -2.7113841928  -0.5695039631  -0.4558450253
	    H    -2.0128103640  -1.3471117312   0.9700424379
			--------------------------
			 OPTKING Finished Execution 
			--------------------------

    Structure for next step:
    Molecular point group: c1
    Full point group: C1

    Geometry (in Angstrom), charge = 0, multiplicity = 1:

    O           -1.330233529239     1.450166478357     0.061836118474
    C           -0.933397161583     0.353090749408     0.284981001054
    C            0.476719847709     0.129292410213     0.802063454540
    C           -1.792034311310    -0.861646792912     0.023930562462
    C            1.538236443943     0.182355615460    -0.327851495617
    H            0.542874772606    -0.810463405374     1.337372524716
    H            0.659549190695     0.926866736868     1.508483048729
    C            2.042932001278    -1.188055837079    -0.775162229520
    H            1.127621178822     0.705369536711    -1.183099077675
    H            2.381130474064     0.770727886965     0.011040721560
    H            2.775880703175    -1.088700667609    -1.567137469613
    H            1.239108947066    -1.810861957664    -1.151919399735
    H            2.512501686392    -1.717920374945     0.046476566146
    H           -1.264976506408    -1.583290970416    -0.589221197980
    H           -2.712913935379    -0.569393046804    -0.457030447433
    H           -2.014340159939    -1.347000755609     0.968856906844

gradient() will perform analytic gradient computation.

*** tstart() called on cx1-27-4-1
*** at Fri Sep  9 22:01:47 2016


         ---------------------------------------------------------
                                   SCF
            by Justin Turney, Rob Parrish, and Andy Simmonett
                              RHF Reference
                        4 Threads,   2000 MiB Core
         ---------------------------------------------------------

  ==> Geometry <==

    Molecular point group: c1
    Full point group: C1

    Geometry (in Angstrom), charge = 0, multiplicity = 1:

       Center              X                  Y                   Z               Mass       
    ------------   -----------------  -----------------  -----------------  -----------------
           O         -1.330233529239     1.450166478357     0.061836118474    15.994914619560
           C         -0.933397161583     0.353090749408     0.284981001054    12.000000000000
           C          0.476719847709     0.129292410213     0.802063454540    12.000000000000
           C         -1.792034311310    -0.861646792912     0.023930562462    12.000000000000
           C          1.538236443943     0.182355615460    -0.327851495617    12.000000000000
           H          0.542874772606    -0.810463405374     1.337372524716     1.007825032070
           H          0.659549190695     0.926866736868     1.508483048729     1.007825032070
           C          2.042932001278    -1.188055837079    -0.775162229520    12.000000000000
           H          1.127621178822     0.705369536711    -1.183099077675     1.007825032070
           H          2.381130474064     0.770727886965     0.011040721560     1.007825032070
           H          2.775880703175    -1.088700667609    -1.567137469613     1.007825032070
           H          1.239108947066    -1.810861957664    -1.151919399735     1.007825032070
           H          2.512501686392    -1.717920374945     0.046476566146     1.007825032070
           H         -1.264976506408    -1.583290970416    -0.589221197980     1.007825032070
           H         -2.712913935379    -0.569393046804    -0.457030447433     1.007825032070
           H         -2.014340159939    -1.347000755609     0.968856906844     1.007825032070

  Running in c1 symmetry.

  Rotational constants: A =      0.19876  B =      0.07165  C =      0.06045 [cm^-1]
  Rotational constants: A =   5958.64859  B =   2148.06483  C =   1812.23767 [MHz]
  Nuclear repulsion =  239.359095810178616

  Charge       = 0
  Multiplicity = 1
  Electrons    = 48
  Nalpha       = 24
  Nbeta        = 24

  ==> Algorithm <==

  SCF Algorithm Type is DF.
  DIIS enabled.
  MOM disabled.
  Fractional occupation disabled.
  Guess Type is READ.
  Energy threshold   = 1.00e-08
  Density threshold  = 1.00e-08
  Integral threshold = 0.00e+00

  ==> Primary Basis <==

  Basis Set: CC-PVTZ
    Number of shells: 120
    Number of basis function: 320
    Number of Cartesian functions: 360
    Spherical Harmonics?: true
    Max angular momentum: 3

  ==> Pre-Iterations <==

   -------------------------------------------------------
    Irrep   Nso     Nmo     Nalpha   Nbeta   Ndocc  Nsocc
   -------------------------------------------------------
     A        320     320       0       0       0       0
   -------------------------------------------------------
    Total     320     320      24      24      24       0
   -------------------------------------------------------

 OEINTS: Overlap, kinetic, potential, dipole, and quadrupole integrals
         stored in file 35.

  ==> Integral Setup <==

  ==> DFJK: Density-Fitted J/K Matrices <==

    J tasked:                  Yes
    K tasked:                  Yes
    wK tasked:                  No
    OpenMP threads:              4
    Integrals threads:           4
    Memory (MB):              1430
    Algorithm:                Core
    Integral Cache:           NONE
    Schwarz Cutoff:          1E-12
    Fitting Condition:       1E-12

   => Auxiliary Basis Set <=

  Basis Set: 
    Number of shells: 250
    Number of basis function: 774
    Number of Cartesian functions: 926
    Spherical Harmonics?: true
    Max angular momentum: 4

  Minimum eigenvalue in the overlap matrix is 4.8358918128E-04.
  Using Symmetric Orthogonalization.
  SCF Guess: Reading in previously saved MOs, projecting if necessary.

  Using orbitals from previous SCF, no projection.
  Recomputing DOCC and SOCC from number of alpha and beta electrons from previous calculation.
              A 
    DOCC [    24 ]

  ==> Iterations <==

                           Total Energy        Delta E     RMS |[F,P]|

   @DF-RHF iter   0:  -270.12241005851308   -2.70122e+02   2.28267e-04 
   @DF-RHF iter   1:  -270.12406823817696   -1.65818e-03   3.06001e-05 
   @DF-RHF iter   2:  -270.12416125077004   -9.30126e-05   1.12500e-05 DIIS
   @DF-RHF iter   3:  -270.12417800981791   -1.67590e-05   3.69648e-06 DIIS
   @DF-RHF iter   4:  -270.12417955847798   -1.54866e-06   1.76282e-06 DIIS
   @DF-RHF iter   5:  -270.12418001685717   -4.58379e-07   8.08786e-07 DIIS
[...]
	 H          -5.8493662926       -0.2034337727        0.4078377186
	 H          -4.2604401152       -0.3838028460        3.3493474671
	            -0.0000025206       -0.0000108804       -0.0000007152
	            -0.0002332765        0.0023237309        0.0011854344
	             0.0002157678       -0.0038507080       -0.0021892787
	             0.0000023995       -0.0000042534       -0.0000154144
	             0.0004060600        0.0040653251        0.0033939886
	             0.0000093226       -0.0000062434        0.0000004167
	             0.0000107666       -0.0000030753       -0.0000093236
	            -0.0000022872       -0.0000038906        0.0000081157
	            -0.0004091855       -0.0025120485       -0.0023673074
	             0.0000000802        0.0000008893       -0.0000010260
	            -0.0000018984        0.0000017253        0.0000027051
	             0.0000005774        0.0000006877       -0.0000035391
	            -0.0000008474       -0.0000061478       -0.0000009518
	             0.0000021927       -0.0000018314        0.0000024084
	            -0.0000003434        0.0000022727       -0.0000026682
	             0.0000031924        0.0000044478       -0.0000028444

	---Fragment 1 Intrafragment Coordinates---
	 - Coordinate -           - BOHR/RAD -       - ANG/DEG -
	 R(1,2)           =         2.243234	       1.187069
	 R(2,3)           =         2.869615	       1.518535
	 R(2,4)           =         2.857288	       1.512012
	 R(3,5)           =         2.894212	       1.531551
	 R(3,6)           =         2.052392	       1.086079
	 R(3,7)           =         2.055044	       1.087482
	 R(4,14)          =         2.050298	       1.084971
	 R(4,15)          =         2.039233	       1.079116
	 R(4,16)          =         2.048139	       1.083828
	 R(5,8)           =         2.886250	       1.527338
	 R(5,9)           =         2.042010	       1.080585
	 R(5,10)          =         2.047141	       1.083300
	 R(8,11)          =         2.047840	       1.083670
	 R(8,12)          =         2.050038	       1.084833
	 R(8,13)          =         2.050974	       1.085329
	 B(1,2,3)         =         2.144639	     122.878774
	 B(1,2,4)         =         2.116782	     121.282661
	 B(2,3,5)         =         2.011641	     115.258554
	 B(2,3,6)         =         1.887869	     108.166899
	 B(2,3,7)         =         1.839292	     105.383681
	 B(2,4,14)        =         1.909268	     109.392984
	 B(2,4,15)        =         1.917631	     109.872161
	 B(2,4,16)        =         1.934824	     110.857257
	 B(3,2,4)         =         2.021754	     115.837990
	 B(3,5,8)         =         1.968633	     112.794354
	 B(3,5,9)         =         1.896406	     108.656082
	 B(3,5,10)        =         1.913102	     109.612666
	 B(5,3,6)         =         1.947495	     111.583221
	 B(5,3,7)         =         1.931804	     110.684240
	 B(5,8,11)        =         1.937234	     110.995338
	 B(5,8,12)        =         1.935993	     110.924254
	 B(5,8,13)        =         1.945045	     111.442841
	 B(6,3,7)         =         1.834443	     105.105817
	 B(8,5,9)         =         1.890334	     108.308149
	 B(8,5,10)        =         1.910023	     109.436238
	 B(9,5,10)        =         1.883295	     107.904829
	 B(11,8,12)       =         1.878585	     107.634981
	 B(11,8,13)       =         1.881067	     107.777173
	 B(12,8,13)       =         1.883274	     107.903655
	 B(14,4,15)       =         1.908454	     109.346356
	 B(14,4,16)       =         1.873223	     107.327801
	 B(15,4,16)       =         1.919782	     109.995410
	 D(1,2,3,5)       =        -0.109688	      -6.284644
	 D(1,2,3,6)       =        -2.302779	    -131.939494
	 D(1,2,3,7)       =         2.025481	     116.051534
	 D(1,2,4,14)      =         1.955430	     112.037897
	 D(1,2,4,15)      =        -0.139746	      -8.006869
	 D(1,2,4,16)      =        -2.265382	    -129.796813
	 D(2,3,5,8)       =        -1.747088	    -100.100782
	*D(2,3,5,9)       =         0.349065	      19.999948
	 D(2,3,5,10)      =         2.403247	     137.695908
	 D(3,2,4,14)      =        -1.190842	     -68.230209
	 D(3,2,4,15)      =         2.997167	     171.725026
	 D(3,2,4,16)      =         0.871532	      49.935082
	 D(3,5,8,11)      =         3.114426	     178.443441
	 D(3,5,8,12)      =         1.026785	      58.830429
	 D(3,5,8,13)      =        -1.071966	     -61.419123
	 D(4,2,3,5)       =         3.036667	     173.988184
	 D(4,2,3,6)       =         0.843576	      48.333335
	 D(4,2,3,7)       =        -1.111350	     -63.675638
	 D(6,3,5,8)       =         0.414942	      23.774421
	 D(6,3,5,9)       =         2.511095	     143.875151
	 D(6,3,5,10)      =        -1.717908	     -98.428889
	 D(7,3,5,8)       =         2.451293	     140.448735
	 D(7,3,5,9)       =        -1.735739	     -99.450535
	 D(7,3,5,10)      =         0.318443	      18.245425
	 D(9,5,8,11)      =         1.014785	      58.142899
	 D(9,5,8,12)      =        -1.072856	     -61.470113
	 D(9,5,8,13)      =         3.111579	     178.280335
	 D(10,5,8,11)     =        -1.034179	     -59.254106
	 D(10,5,8,12)     =        -3.121820	    -178.867118
	 D(10,5,8,13)     =         1.062615	      60.883330

	Current energy   :      -270.1278102284

	Energy change for the previous step:
		Projected    :         0.0000007571
		Actual       :        -0.0000000905

	Performing BFGS update.
	Previous computed or guess Hessian on step 1.
	Steps to be used in Hessian update: 17 16
	Taking RFO optimization step.
	Going to follow RFO solution 1.
	Rejecting RFO root 1 because normalization gives large value.
	Rejecting RFO root 2 because normalization gives large value.
	Rejecting RFO root 3 because normalization gives large value.
	Using RFO vector 4.
	Norm of target step-size    0.00120
	Projected energy change by RFO approximation:         0.0000000680

	Back-transformation to cartesian coordinates...
	Successfully converged to displaced geometry.

	Back-transformation to cartesian coordinates to adjust frozen coordinates...
	Successfully converged to displaced geometry.

	--- Internal Coordinate Step in ANG or DEG, aJ/ANG or AJ/DEG ---
	 ---------------------------------------------------------------------------
	   Coordinate                Previous        Force       Change         New 
	   ----------                --------       ------       ------       ------
	    1 R(1,2)          =      1.187069     0.000041     0.000002     1.187071
	    2 R(2,3)          =      1.518535    -0.000113    -0.000013     1.518522
	    3 R(2,4)          =      1.512012     0.000117     0.000020     1.512032
	    4 R(3,5)          =      1.531551     0.000036     0.000008     1.531560
	    5 R(3,6)          =      1.086079    -0.000056    -0.000010     1.086069
	    6 R(3,7)          =      1.087482     0.000088     0.000011     1.087494
	    7 R(4,14)         =      1.084971    -0.000014     0.000001     1.084972
	    8 R(4,15)         =      1.079116    -0.000019    -0.000002     1.079113
	    9 R(4,16)         =      1.083828     0.000015     0.000001     1.083830
	   10 R(5,8)          =      1.527338    -0.000004     0.000000     1.527338
	   11 R(5,9)          =      1.080585     0.000018    -0.000000     1.080585
	   12 R(5,10)         =      1.083300     0.000002     0.000001     1.083302
	   13 R(8,11)         =      1.083670     0.000018     0.000001     1.083672
	   14 R(8,12)         =      1.084833    -0.000014     0.000001     1.084834
	   15 R(8,13)         =      1.085329    -0.000028    -0.000004     1.085324
	   16 B(1,2,3)        =    122.878774     0.000000    -0.000322   122.878452
	   17 B(1,2,4)        =    121.282661     0.000001     0.002374   121.285034
	   18 B(2,3,5)        =    115.258554     0.000001     0.004235   115.262789
	   19 B(2,3,6)        =    108.166899    -0.000001    -0.004399   108.162500
	   20 B(2,3,7)        =    105.383681    -0.000001    -0.004742   105.378940
	   21 B(2,4,14)       =    109.392984    -0.000000    -0.001011   109.391973
	   22 B(2,4,15)       =    109.872161     0.000000     0.001031   109.873193
	   23 B(2,4,16)       =    110.857257     0.000001     0.002403   110.859661
	   24 B(3,2,4)        =    115.837990    -0.000001    -0.002075   115.835916
	   25 B(3,5,8)        =    112.794354     0.000001     0.001811   112.796164
	   26 B(3,5,9)        =    108.656082    -0.000000     0.000351   108.656433
	   27 B(3,5,10)       =    109.612666    -0.000000    -0.005345   109.607321
	   28 B(5,3,6)        =    111.583221     0.000000     0.004190   111.587411
	   29 B(5,3,7)        =    110.684240     0.000000     0.000602   110.684842
	   30 B(5,8,11)       =    110.995338     0.000000     0.000745   110.996083
	   31 B(5,8,12)       =    110.924254    -0.000000     0.000552   110.924805
	   32 B(5,8,13)       =    111.442841    -0.000000    -0.001922   111.440919
	   33 B(6,3,7)        =    105.105817    -0.000000    -0.000858   105.104959
	   34 B(8,5,9)        =    108.308149    -0.000000     0.005193   108.313341
	   35 B(8,5,10)       =    109.436238    -0.000000    -0.005031   109.431207
	   36 B(9,5,10)       =    107.904829     0.000000     0.003315   107.908144
	   37 B(11,8,12)      =    107.634981    -0.000000     0.000309   107.635290
	   38 B(11,8,13)      =    107.777173    -0.000000    -0.000306   107.776867
	   39 B(12,8,13)      =    107.903655     0.000000     0.000671   107.904326
	   40 B(14,4,15)      =    109.346356    -0.000000    -0.001925   109.344431
	   41 B(14,4,16)      =    107.327801    -0.000000    -0.000879   107.326921
	   42 B(15,4,16)      =    109.995410    -0.000000     0.000264   109.995674
	   43 D(1,2,3,5)      =     -6.284644    -0.000000    -0.001575    -6.286219
	   44 D(1,2,3,6)      =   -131.939494    -0.000000    -0.006709  -131.946202
	   45 D(1,2,3,7)      =    116.051534     0.000000    -0.001639   116.049894
	   46 D(1,2,4,14)     =    112.037897     0.000000    -0.022092   112.015805
	   47 D(1,2,4,15)     =     -8.006869     0.000000    -0.019734    -8.026603
	   48 D(1,2,4,16)     =   -129.796813     0.000000    -0.022350  -129.819163
	   49 D(2,3,5,8)      =   -100.100782     0.000000    -0.007911  -100.108693
	   50 *D(2,3,5,9)     =     19.999948     0.000000    -0.000000    19.999948
	   51 D(2,3,5,10)     =    137.695908    -0.000000     0.001157   137.697065
	   52 D(3,2,4,14)     =    -68.230209    -0.000000    -0.027444   -68.257653
	   53 D(3,2,4,15)     =    171.725026    -0.000000    -0.025087   171.699939
	   54 D(3,2,4,16)     =     49.935082    -0.000000    -0.027702    49.907380
	   55 D(3,5,8,11)     =    178.443441    -0.000000     0.013885   178.457326
	   56 D(3,5,8,12)     =     58.830429    -0.000000     0.012643    58.843072
	   57 D(3,5,8,13)     =    -61.419123    -0.000000     0.012711   -61.406413
	   58 D(4,2,3,5)      =    173.988184     0.000000     0.003864   173.992048
	   59 D(4,2,3,6)      =     48.333335    -0.000000    -0.001270    48.332065
	   60 D(4,2,3,7)      =    -63.675638     0.000000     0.003799   -63.671839
	   61 D(6,3,5,8)      =     23.774421    -0.000000    -0.007044    23.767377
	   62 D(6,3,5,9)      =    143.875151    -0.000000     0.000867   143.876018
	   63 D(6,3,5,10)     =    -98.428889    -0.000000     0.002025   -98.426864
	   64 D(7,3,5,8)      =    140.448735     0.000000    -0.005125   140.443610
	   65 D(7,3,5,9)      =    -99.450535     0.000000     0.002786   -99.447749
	   66 D(7,3,5,10)     =     18.245425     0.000000     0.003943    18.249368
	   67 D(9,5,8,11)     =     58.142899    -0.000000     0.008775    58.151674
	   68 D(9,5,8,12)     =    -61.470113    -0.000000     0.007533   -61.462580
	   69 D(9,5,8,13)     =    178.280335    -0.000000     0.007600   178.287935
	   70 D(10,5,8,11)    =    -59.254106     0.000000     0.004647   -59.249459
	   71 D(10,5,8,12)    =   -178.867118    -0.000000     0.003405  -178.863713
	   72 D(10,5,8,13)    =     60.883330    -0.000000     0.003472    60.886802
	 ---------------------------------------------------------------------------

  ==> Convergence Check <==

  Measures of convergence in internal coordinates in au.
  Criteria marked as inactive (o), active & met (*), and active & unmet ( ).
  ---------------------------------------------------------------------------------------------
   Step     Total Energy     Delta E     MAX Force     RMS Force      MAX Disp      RMS Disp   
  ---------------------------------------------------------------------------------------------
    Convergence Criteria    1.00e-06 *    3.00e-04 *             o    1.20e-03 *             o
  ---------------------------------------------------------------------------------------------
     18    -270.12781023   -9.05e-08 *    1.42e-05 *    5.37e-06 o    4.83e-04 *    1.42e-04 o  ~
  ---------------------------------------------------------------------------------------------


  **** Optimization is complete! (in 18 steps) ****

  ==> Optimization Summary <==

  Measures of convergence in internal coordinates in au.
  --------------------------------------------------------------------------------------------------------------- ~
   Step         Total Energy             Delta E       MAX Force       RMS Force        MAX Disp        RMS Disp  ~
  --------------------------------------------------------------------------------------------------------------- ~
      1    -270.123748637207   -270.123748637207      0.01111076      0.00190267      0.07518677      0.02133946  ~
      2    -270.124078055655     -0.000329418448      0.00440162      0.00081245      0.04142871      0.01472911  ~
      3    -270.124180121019     -0.000102065364      0.00274461      0.00057021      0.03627493      0.00926359  ~
      4    -270.124276144973     -0.000096023954      0.00043814      0.00013352      0.04906794      0.01473140  ~
      5    -270.124317254074     -0.000041109101      0.00074653      0.00015390      0.15179031      0.04419455  ~
      6    -270.124469007941     -0.000151753867      0.00220334      0.00050351      0.17702233      0.04419445  ~
      7    -270.124756889021     -0.000287881080      0.00321853      0.00067081      0.16442740      0.04419416  ~
      8    -270.125347154782     -0.000590265760      0.00132939      0.00035338      0.16440493      0.04419426  ~
      9    -270.125974049896     -0.000626895114      0.00101989      0.00028417      0.41744564      0.11637299  ~
     10    -270.126710997750     -0.000736947854      0.01000938      0.00192868      0.12797971      0.02944620  ~
     11    -270.124791498865      0.001919498886      0.02185911      0.00430343      0.07619688      0.02175307  ~
     12    -270.127218713697     -0.002427214833      0.00460403      0.00106344      0.10349203      0.02946277  ~
     13    -270.127587895807     -0.000369182110      0.00135393      0.00041276      0.10556129      0.02946284  ~
     14    -270.127767730440     -0.000179834633      0.00032998      0.00011261      0.08888361      0.02459993  ~
     15    -270.127804489495     -0.000036759055      0.00061367      0.00013440      0.01225289      0.00340553  ~
     16    -270.127809037626     -0.000004548131      0.00035401      0.00007773      0.00809722      0.00239784  ~
     17    -270.127810137884     -0.000001100258      0.00008797      0.00001756      0.00217418      0.00078803  ~
     18    -270.127810228421     -0.000000090536      0.00001420      0.00000537      0.00048349      0.00014160  ~
  --------------------------------------------------------------------------------------------------------------- ~

	Writing optimization data to binary file.
	Final energy is   -270.1278102284207
	Final (previous) structure:
	Cartesian Geometry (in Angstrom)
	    O    -1.0570318599   0.7752254150  -0.9296089582
	    C    -0.9799847213   0.1481244661   0.0753487648
	    C     0.3339770825  -0.0948022838   0.7967640396
	    C    -2.2070529542  -0.4563364447   0.7196395299
	    C     1.5839825887   0.3976439512   0.0614871039
	    H     0.4001287841  -1.1528623326   1.0327737248
	    H     0.2320358808   0.4040696995   1.7576763362
	    C     2.3245216170  -0.7242899292  -0.6635140300
	    H     1.2867074254   1.1358753191  -0.6694756215
	    H     2.2545277399   0.8765143522   0.7647592988
	    H     3.1870036539  -0.3399555961  -1.1952595611
	    H     1.6797284445  -1.2082552161  -1.3893807554
	    H     2.6737262130  -1.4822974710   0.0303294702
	    H    -2.1551021936  -1.5377869200   0.6494380760
	    H    -3.0953515631  -0.1076525242   0.2158184420
	    H    -2.2545279797  -0.2030997342   1.7723984786
	Saving final (previous) structure.
			--------------------------
			 OPTKING Finished Execution 
			--------------------------

    Final optimized geometry and variables:
    Molecular point group: c1
    Full point group: C1

    Geometry (in Angstrom), charge = 0, multiplicity = 1:

    O           -1.057031779215     0.775225355779    -0.929608887206
    C           -0.979984646495     0.148124454768     0.075348759023
    C            0.333977056981    -0.094802276541     0.796763978709
    C           -2.207052785659    -0.456336409804     0.719639474941
    C            1.583982467782     0.397643920791     0.061487099220
    H            0.400128753502    -1.152862244586     1.032773645962
    H            0.232035863083     0.404069668667     1.757676202023
    C            2.324521439444    -0.724289873877    -0.663513979344
    H            1.286707327181     1.135875232319    -0.669475570390
    H            2.254527567737     0.876514285219     0.764759240374
    H            3.187003410505    -0.339955570094    -1.195259469859
    H            1.679728316208    -1.208255123803    -1.389380649281
    H            2.673726008821    -1.482297357822     0.030329467916
    H           -2.155102029005    -1.537786802562     0.649438026426
    H           -3.095351326749    -0.107652515951     0.215818425496
    H           -2.254527807552    -0.203099718669     1.772398343256

	Cleaning optimization helper files.


Properties will be evaluated at   0.000000,   0.000000,   0.000000 Bohr

Properties computed using the  density matrix

  Nuclear Dipole Moment: (a.u.)
     X:     3.9406      Y:    -3.3856      Z:     2.7790

  Electronic Dipole Moment: (a.u.)
     X:    -3.8428      Y:     2.7979      Z:    -1.7948

  Dipole Moment: (a.u.)
     X:     0.0978      Y:    -0.5877      Z:     0.9841     Total:     1.1504

  Dipole Moment: (Debye)
     X:     0.2486      Y:    -1.4939      Z:     2.5014     Total:     2.9241

  Quadrupole Moment: (Debye Ang)
    XX:   -37.5301     YY:   -39.2480     ZZ:   -39.7144
    XY:     2.2553     XZ:    -2.7141     YZ:     1.8107

  Traceless Quadrupole Moment: (Debye Ang)
    XX:     1.3007     YY:    -0.4172     ZZ:    -0.8835
    XY:     2.2553     XZ:    -2.7141     YZ:     1.8107

  Mulliken Charges: (a.u.)
   Center  Symbol    Alpha    Beta     Spin     Total
       1     O     4.17163  4.17163  0.00000 -0.34325
       2     C     2.86010  2.86010  0.00000  0.27980
       3     C     3.11489  3.11489  0.00000 -0.22977
       4     C     3.15063  3.15063  0.00000 -0.30127
       5     C     3.09001  3.09001  0.00000 -0.18001
       6     H     0.44526  0.44526  0.00000  0.10948
       7     H     0.43813  0.43813  0.00000  0.12374
       8     C     3.14878  3.14878  0.00000 -0.29757
       9     H     0.43856  0.43856  0.00000  0.12288
      10     H     0.44899  0.44899  0.00000  0.10202
      11     H     0.44791  0.44791  0.00000  0.10418
      12     H     0.45185  0.45185  0.00000  0.09629
      13     H     0.45821  0.45821  0.00000  0.08358
      14     H     0.44882  0.44882  0.00000  0.10237
      15     H     0.43536  0.43536  0.00000  0.12928
      16     H     0.45086  0.45086  0.00000  0.09827

   Total alpha = 24.00000, Total beta = 24.00000, Total charge =  0.00000


*** PSI4 exiting successfully. Buy a developer a beer!
