    -----------------------------------------------------------------------
          Psi4: An Open-Source Ab Initio Electronic Structure Package
                              Psi4 (no tag) Driver

                          Git: Rev {detached?}  

    J. M. Turney, A. C. Simmonett, R. M. Parrish, E. G. Hohenstein,
    F. A. Evangelista, J. T. Fermann, B. J. Mintz, L. A. Burns, J. J. Wilke,
    M. L. Abrams, N. J. Russ, M. L. Leininger, C. L. Janssen, E. T. Seidl,
    W. D. Allen, H. F. Schaefer, R. A. King, E. F. Valeev, C. D. Sherrill,
    and T. D. Crawford, WIREs Comput. Mol. Sci. 2, 556-565 (2012)
    (doi: 10.1002/wcms.93)

                         Additional Contributions by
    A. E. DePrince, M. Saitow, U. Bozkaya, A. Yu. Sokolov
    -----------------------------------------------------------------------


    Psi4 started on: Fri Sep  2 13:57:24 2016

    Process ID:  17846
    PSI4DATADIR: /export131/home/mjharvey/miniconda3/share
    Memory level set to 256.000 MB

  ==> Input File <==

--------------------------------------------------------------------------
set {
	reference rhf
	basis 6-31G*
}


set_num_threads( 4 )
memory 2 gb

molecule MOL {
0 1

H	 -4.253242	 0.337035	 0.442448
O	 -3.533260	 -0.224762	 0.193622
C	 -2.315719	 0.429551	 0.442739
C	 -1.185889	 -0.498675	 0.033315
H	 -2.257834	 1.359136	 -0.121910
H	 -2.225958	 0.683080	 1.498204
C	 0.198102	 0.111031	 0.262842
H	 -1.314347	 -0.751618	 -1.015612
H	 -1.285026	 -1.425129	 0.592181
C	 1.331804	 -0.827780	 -0.158768
H	 0.270887	 1.048133	 -0.283707
H	 0.315312	 0.360429	 1.316683
C	 2.723619	 -0.410569	 0.329459
H	 1.342964	 -0.912588	 -1.244120
H	 1.116806	 -1.824343	 0.220779
C	 3.243875	 0.895854	 -0.272975
H	 3.424222	 -1.207124	 0.091250
H	 2.714788	 -0.329854	 1.414619
H	 3.251977	 0.848779	 -1.358681
H	 2.637085	 1.747371	 0.016682
H	 4.259473	 1.094070	 0.055697

	symmetry c1
}
set optking {
	frozen_dihedral = ("
		4 7 10 14
	")
}

ee = optimize('scf')
oeprop('DIPOLE', 'QUADRUPOLE', 'MULLIKEN_CHARGES')
f=open( 'psi4out.xyz', 'w' )
f.write( "21  " )
f.write( str(ee) + "\n" )
f.write( MOL.save_string_xyz() )
f.close()
--------------------------------------------------------------------------

  Memory set to   2.000 GiB by Python script.
gradient() will perform analytic gradient computation.

*** tstart() called on cx1-1-1-4.cx1.hpc.ic.ac.uk
*** at Fri Sep  2 13:57:25 2016


         ---------------------------------------------------------
                                   SCF
            by Justin Turney, Rob Parrish, and Andy Simmonett
                              RHF Reference
                        4 Threads,   2000 MiB Core
         ---------------------------------------------------------

  ==> Geometry <==

    Molecular point group: c1
    Full point group: C1

    Geometry (in Angstrom), charge = 0, multiplicity = 1:

       Center              X                  Y                   Z               Mass       
    ------------   -----------------  -----------------  -----------------  -----------------
           H         -4.248296051656     0.397430877277     0.321262935111     1.007825032070
           O         -3.528314051656    -0.164366122723     0.072436935111    15.994914619560
           C         -2.310773051656     0.489946877277     0.321553935111    12.000000000000
           C         -1.180943051656    -0.438279122723    -0.087870064889    12.000000000000
           H         -2.252888051656     1.419531877277    -0.243095064889     1.007825032070
           H         -2.221012051656     0.743475877277     1.377018935111     1.007825032070
           C          0.203047948344     0.171426877277     0.141656935111    12.000000000000
           H         -1.309401051656    -0.691222122723    -1.136797064889     1.007825032070
           H         -1.280080051656    -1.364733122723     0.470995935111     1.007825032070
           C          1.336749948344    -0.767384122723    -0.279953064889    12.000000000000
           H          0.275832948344     1.108528877277    -0.404892064889     1.007825032070
           H          0.320257948344     0.420824877277     1.195497935111     1.007825032070
           C          2.728564948344    -0.350173122723     0.208273935111    12.000000000000
           H          1.347909948344    -0.852192122723    -1.365305064889     1.007825032070
           H          1.121751948344    -1.763947122723     0.099593935111     1.007825032070
           C          3.248820948344     0.956249877277    -0.394160064889    12.000000000000
           H          3.429167948344    -1.146728122723    -0.029935064889     1.007825032070
           H          2.719733948344    -0.269458122723     1.293433935111     1.007825032070
           H          3.256922948344     0.909174877277    -1.479866064889     1.007825032070
           H          2.642030948344     1.807766877277    -0.104503064889     1.007825032070
           H          4.264418948344     1.154465877277    -0.065488064889     1.007825032070

  Running in c1 symmetry.

  Rotational constants: A =      0.29787  B =      0.02699  C =      0.02583 [cm^-1]
  Rotational constants: A =   8929.80562  B =    809.04442  C =    774.49826 [MHz]
  Nuclear repulsion =  312.320165135856769

  Charge       = 0
  Multiplicity = 1
  Electrons    = 58
  Nalpha       = 29
  Nbeta        = 29

  ==> Algorithm <==

  SCF Algorithm Type is DF.
  DIIS enabled.
  MOM disabled.
  Fractional occupation disabled.
  Guess Type is CORE.
  Energy threshold   = 1.00e-08
  Density threshold  = 1.00e-08
  Integral threshold = 0.00e+00

  ==> Primary Basis <==

  Basis Set: 6-31G*
    Number of shells: 70
    Number of basis function: 133
    Number of Cartesian functions: 133
    Spherical Harmonics?: false
    Max angular momentum: 2

  ==> Pre-Iterations <==

   -------------------------------------------------------
    Irrep   Nso     Nmo     Nalpha   Nbeta   Ndocc  Nsocc
   -------------------------------------------------------
     A        133     133       0       0       0       0
   -------------------------------------------------------
    Total     133     133      29      29      29       0
   -------------------------------------------------------

 OEINTS: Overlap, kinetic, potential, dipole, and quadrupole integrals
         stored in file 35.

  ==> Integral Setup <==

  ==> DFJK: Density-Fitted J/K Matrices <==

    J tasked:                  Yes
    K tasked:                  Yes
    wK tasked:                  No
    OpenMP threads:              4
    Integrals threads:           4
    Memory (MB):              1430
    Algorithm:                Core
    Integral Cache:           NONE
    Schwarz Cutoff:          1E-12
    Fitting Condition:       1E-12

   => Auxiliary Basis Set <=

  Basis Set: 
    Number of shells: 294
    Number of basis function: 917
    Number of Cartesian functions: 917
    Spherical Harmonics?: false
    Max angular momentum: 3

  Minimum eigenvalue in the overlap matrix is 3.0771871025E-03.
  Using Symmetric Orthogonalization.
  SCF Guess: Core (One-Electron) Hamiltonian.

  ==> Iterations <==

                           Total Energy        Delta E     RMS |[F,P]|

   @DF-RHF iter   1:  -236.42032983149898   -2.36420e+02   6.55647e-02 
   @DF-RHF iter   2:   -90.45009536024980    1.45970e+02   7.71289e-02 DIIS
   @DF-RHF iter   3:  -240.34352173004004   -1.49893e+02   4.74480e-02 DIIS
   @DF-RHF iter   4:  -203.06636851714450    3.72772e+01   6.76689e-02 DIIS
   @DF-RHF iter   5:  -309.74062275691449   -1.06674e+02   6.53506e-03 DIIS
   @DF-RHF iter   6:  -310.16031604730256   -4.19693e-01   2.30904e-03 DIIS
   @DF-RHF iter   7:  -310.20602154050334   -4.57055e-02   6.80595e-04 DIIS
   @DF-RHF iter   8:  -310.21182321070887   -5.80167e-03   1.96754e-04 DIIS
   @DF-RHF iter   9:  -310.21244293933387   -6.19729e-04   6.85197e-05 DIIS
   @DF-RHF iter  10:  -310.21250743080532   -6.44915e-05   2.62694e-05 DIIS
   @DF-RHF iter  11:  -310.21251807576050   -1.06450e-05   8.18330e-06 DIIS
   @DF-RHF iter  12:  -310.21251895480611   -8.79046e-07   2.26237e-06 DIIS
   @DF-RHF iter  13:  -310.21251903130644   -7.65003e-08   4.96874e-07 DIIS
   @DF-RHF iter  14:  -310.21251903515315   -3.84671e-09   1.15571e-07 DIIS
   @DF-RHF iter  15:  -310.21251903543566   -2.82512e-10   2.29682e-08 DIIS
   @DF-RHF iter  16:  -310.21251903544498   -9.32232e-12   6.46095e-09 DIIS

  ==> Post-Iterations <==

    Orbital Energies (a.u.)
    -----------------------

    Doubly Occupied:                                                      

       1A    -20.551854     2A    -11.267045     3A    -11.215667  
       4A    -11.215126     5A    -11.213431     6A    -11.210763  
       7A    -11.208219     8A     -1.358678     9A     -1.086247  
      10A     -1.033220    11A     -0.954402    12A     -0.875495  
      13A     -0.807524    14A     -0.778985    15A     -0.692428  
      16A     -0.661250    17A     -0.623250    18A     -0.605313  
      19A     -0.586710    20A     -0.570489    21A     -0.535548  
      22A     -0.519294    23A     -0.512128    24A     -0.486805  
      25A     -0.479610    26A     -0.459867    27A     -0.456132  
      28A     -0.443088    29A     -0.434019  

    Virtual:                                                              

      30A      0.227655    31A      0.229353    32A      0.257486  
      33A      0.268215    34A      0.274086    35A      0.307385  
      36A      0.310524    37A      0.312598    38A      0.333145  
      39A      0.338382    40A      0.346037    41A      0.354433  
      42A      0.365022    43A      0.373971    44A      0.389323  
      45A      0.400151    46A      0.430816    47A      0.452272  
      48A      0.490483    49A      0.499100    50A      0.700385  
      51A      0.719069    52A      0.734690    53A      0.748007  
      54A      0.764396    55A      0.777320    56A      0.794878  
      57A      0.853331    58A      0.880999    59A      0.904633  
      60A      0.940931    61A      0.952396    62A      0.973748  
      63A      0.999328    64A      1.041313    65A      1.062799  
      66A      1.103277    67A      1.117701    68A      1.126185  
      69A      1.152189    70A      1.164004    71A      1.169931  
      72A      1.178400    73A      1.193291    74A      1.199445  
      75A      1.203297    76A      1.217112    77A      1.224848  
      78A      1.249228    79A      1.262795    80A      1.264933  
      81A      1.281937    82A      1.290218    83A      1.295151  
      84A      1.424733    85A      1.474265    86A      1.516771  
      87A      1.621227    88A      1.667769    89A      1.701588  
      90A      1.724703    91A      1.798573    92A      1.835592  
      93A      1.885436    94A      1.910839    95A      1.940399  
      96A      2.034582    97A      2.066990    98A      2.128587  
      99A      2.172422   100A      2.188200   101A      2.238675  
     102A      2.259461   103A      2.281240   104A      2.291507  
     105A      2.322514   106A      2.341758   107A      2.354625  
     108A      2.435489   109A      2.472834   110A      2.491704  
     111A      2.564058   112A      2.614567   113A      2.668866  
     114A      2.679775   115A      2.693799   116A      2.746902  
     117A      2.775102   118A      2.805607   119A      2.827547  
     120A      2.871994   121A      2.961042   122A      2.967751  
     123A      2.991186   124A      3.085073   125A      3.198857  
     126A      3.266806   127A      4.210218   128A      4.558305  
     129A      4.641089   130A      4.738270   131A      4.824301  
     132A      4.896178   133A      5.000473  

    Final Occupation by Irrep:
              A 
    DOCC [    29 ]

  Energy converged.

  @DF-RHF Final Energy:  -310.21251903544498

   => Energetics <=

    Nuclear Repulsion Energy =            312.3201651358567688
    One-Electron Energy =               -1039.3801956361685370
    Two-Electron Energy =                 416.8475114648666704
    DFT Exchange-Correlation Energy =       0.0000000000000000
    Empirical Dispersion Energy =           0.0000000000000000
    PCM Polarization Energy =               0.0000000000000000
    EFP Energy =                            0.0000000000000000
    Total Energy =                       -310.2125190354450979

    Alert: EFP and PCM quantities not currently incorporated into SCF psivars.

Properties will be evaluated at   0.000000,   0.000000,   0.000000 Bohr
  ==> Properties <==


Properties computed using the SCF density matrix

  Nuclear Dipole Moment: (a.u.)
     X:     7.5450      Y:     1.7550      Z:    -0.0672

  Electronic Dipole Moment: (a.u.)
     X:    -7.4651      Y:    -1.1744      Z:     0.3210

  Dipole Moment: (a.u.)
     X:     0.0799      Y:     0.5807      Z:     0.2538     Total:     0.6387

  Dipole Moment: (Debye)
     X:     0.2032      Y:     1.4759      Z:     0.6451     Total:     1.6235


  Saving occupied orbitals to File 180.

*** tstop() called on cx1-1-1-4.cx1.hpc.ic.ac.uk at Fri Sep  2 13:57:31 2016
Module time:
	user time   =      16.34 seconds =       0.27 minutes
	system time =       0.18 seconds =       0.00 minutes
	total time  =          6 seconds =       0.10 minutes
Total time:
	user time   =      16.34 seconds =       0.27 minutes
	system time =       0.18 seconds =       0.00 minutes
	total time  =          6 seconds =       0.10 minutes

*** tstart() called on cx1-1-1-4.cx1.hpc.ic.ac.uk
*** at Fri Sep  2 13:57:31 2016


         ------------------------------------------------------------
                                   SCF GRAD                          
                          Rob Parrish, Justin Turney,                
                       Andy Simmonett, and Alex Sokolov              
         ------------------------------------------------------------

  ==> Geometry <==

    Molecular point group: c1
    Full point group: C1

    Geometry (in Angstrom), charge = 0, multiplicity = 1:

       Center              X                  Y                   Z               Mass       
    ------------   -----------------  -----------------  -----------------  -----------------
           H         -4.248296051656     0.397430877277     0.321262935111     1.007825032070
           O         -3.528314051656    -0.164366122723     0.072436935111    15.994914619560
           C         -2.310773051656     0.489946877277     0.321553935111    12.000000000000
           C         -1.180943051656    -0.438279122723    -0.087870064889    12.000000000000
           H         -2.252888051656     1.419531877277    -0.243095064889     1.007825032070
           H         -2.221012051656     0.743475877277     1.377018935111     1.007825032070
           C          0.203047948344     0.171426877277     0.141656935111    12.000000000000
           H         -1.309401051656    -0.691222122723    -1.136797064889     1.007825032070
           H         -1.280080051656    -1.364733122723     0.470995935111     1.007825032070
           C          1.336749948344    -0.767384122723    -0.279953064889    12.000000000000
           H          0.275832948344     1.108528877277    -0.404892064889     1.007825032070
           H          0.320257948344     0.420824877277     1.195497935111     1.007825032070
           C          2.728564948344    -0.350173122723     0.208273935111    12.000000000000
           H          1.347909948344    -0.852192122723    -1.365305064889     1.007825032070
           H          1.121751948344    -1.763947122723     0.099593935111     1.007825032070
           C          3.248820948344     0.956249877277    -0.394160064889    12.000000000000
           H          3.429167948344    -1.146728122723    -0.029935064889     1.007825032070
           H          2.719733948344    -0.269458122723     1.293433935111     1.007825032070
           H          3.256922948344     0.909174877277    -1.479866064889     1.007825032070
           H          2.642030948344     1.807766877277    -0.104503064889     1.007825032070
           H          4.264418948344     1.154465877277    -0.065488064889     1.007825032070

  Nuclear repulsion =  312.320165135856769

  ==> Basis Set <==

  Basis Set: 6-31G*
    Number of shells: 70
    Number of basis function: 133
    Number of Cartesian functions: 133
    Spherical Harmonics?: false
    Max angular momentum: 2

  ==> DFJKGrad: Density-Fitted SCF Gradients <==

    Gradient:                    1
    J tasked:                  Yes
    K tasked:                  Yes
    wK tasked:                  No
    OpenMP threads:              4
    Integrals threads:           4
    Memory (MB):              1430
    Schwarz Cutoff:          0E+00
    Fitting Condition:       1E-12

   => Auxiliary Basis Set <=

  Basis Set: 
    Number of shells: 294
    Number of basis function: 917
    Number of Cartesian functions: 917
    Spherical Harmonics?: false
    Max angular momentum: 3


  -Total Gradient:
     Atom            X                  Y                   Z
    ------   -----------------  -----------------  -----------------
       1        0.000005933620    -0.000000129499    -0.000003788466
       2        0.000001440847     0.000009929475    -0.000002464167
       3        0.000006659331    -0.000060884836     0.000173464546
       4        0.000162974481    -0.000389698222     0.000410228397
       5        0.000025949406    -0.000009835633    -0.000011077516
       6       -0.000032294071     0.000015287668    -0.000006247780
       7        0.000167964472    -0.000256238448    -0.000593331920
       8        0.000028447821     0.000118527966     0.000087503756
       9       -0.000099381090    -0.000137882195    -0.000028372136
      10       -0.000380020935     0.000427688737     0.000159934443
      11       -0.000470194991    -0.000409199591    -0.000329668157
      12        0.000559815309     0.000238605406    -0.000126883960
      13       -0.000200965969     0.000006901085     0.000650035676
      14        0.000241231011     0.000532329883    -0.000096686104
      15       -0.000527804161    -0.000105923332    -0.000337517389
      16        0.000065328718     0.000066717272    -0.000027646189
      17       -0.000062821182    -0.000015912578     0.000061935861
      18        0.000120615673     0.000066545335     0.000077448764
      19        0.000006770377     0.000007540415    -0.000012358303
      20        0.000386681188    -0.000057866464    -0.000048320353
      21       -0.000006329853    -0.000046502443     0.000003810996


*** tstop() called on cx1-1-1-4.cx1.hpc.ic.ac.uk at Fri Sep  2 13:57:37 2016
Module time:
	user time   =      22.65 seconds =       0.38 minutes
	system time =       0.21 seconds =       0.00 minutes
	total time  =          6 seconds =       0.10 minutes
Total time:
	user time   =      39.01 seconds =       0.65 minutes
	system time =       0.39 seconds =       0.01 minutes
	total time  =         12 seconds =       0.20 minutes
CURRENT ENERGY: -310.2125190354

			-----------------------------------------
			 OPTKING 2.0: for geometry optimizations 
			  - R.A. King,  Bethel University        
			-----------------------------------------

	Internal coordinates to be generated automatically.
	Detected frag with atoms:  1 2 3 4 5 6 7 8 9 10 11 12 13 14 15 16 17 18 19 20
	 21
	---Fragment 1 Bond Connectivity---
	 1 : 2
	 2 : 1 3
	 3 : 2 4 5 6
	 4 : 3 7 8 9
	 5 : 3
	 6 : 3
	 7 : 4 10 11 12
	 8 : 4
	 9 : 4
	 10 : 7 13 14 15
	 11 : 7
	 12 : 7
	 13 : 10 16 17 18
	 14 : 10
	 15 : 10
	 16 : 13 19 20 21
	 17 : 13
	 18 : 13
	 19 : 16
	 20 : 16
	 21 : 16

	Assuming in current code that numbering for constraints corresponds to unified fragment.
	Frozen dihedral atom list: 
	     4     7    10    14
	---Fragment 1 Geometry and Gradient---
	 H          -8.0281160690        0.7510355148        0.6070989640
	 O          -6.6675472684       -0.3106069575        0.1368859693
	 C          -4.3667282229        0.9258654177        0.6076488743
	 C          -2.2316589462       -0.8282275117       -0.1660503579
	 H          -4.2573414257        2.6825264850       -0.4593830969
	 H          -4.1971045155        1.4049657945        2.6021886672
	 C           0.3837050142        0.3239498499        0.2676928122
	 H          -2.4744093857       -1.3062205089       -2.1482351213
	 H          -2.4190007258       -2.5789718464        0.8900533271
	 C           2.5260913105       -1.4501458307       -0.5290346227
	 H           0.5212487308        2.0948159884       -0.7651351160
	 H           0.6051998143        0.7952437680        2.2591636898
	 C           5.1562404882       -0.6617313010        0.3935806980
	 H           2.5471806542       -1.6104097245       -2.5800526605
	 H           2.1198039714       -3.3333769748        0.1882052619
	 C           6.1393818472        1.8070503827       -0.7448545752
	 H           6.4801882860       -2.1670021008       -0.0565690744
	 H           5.1395523167       -0.5092020562        2.4442359083
	 H           6.1546924083        1.7180915250       -2.7965415760
	 H           4.9927149270        3.4161843102       -0.1974821727
	 H           8.0585839283        2.1816243378       -0.1237545076
	             0.0000059336       -0.0000001295       -0.0000037885
	             0.0000014408        0.0000099295       -0.0000024642
	             0.0000066593       -0.0000608848        0.0001734645
	             0.0001629745       -0.0003896982        0.0004102284
	             0.0000259494       -0.0000098356       -0.0000110775
	            -0.0000322941        0.0000152877       -0.0000062478
	             0.0001679645       -0.0002562384       -0.0005933319
	             0.0000284478        0.0001185280        0.0000875038
	            -0.0000993811       -0.0001378822       -0.0000283721
	            -0.0003800209        0.0004276887        0.0001599344
	            -0.0004701950       -0.0004091996       -0.0003296682
	             0.0005598153        0.0002386054       -0.0001268840
	            -0.0002009660        0.0000069011        0.0006500357
	             0.0002412310        0.0005323299       -0.0000966861
	            -0.0005278042       -0.0001059233       -0.0003375174
	             0.0000653287        0.0000667173       -0.0000276462
	            -0.0000628212       -0.0000159126        0.0000619359
	             0.0001206157        0.0000665453        0.0000774488
	             0.0000067704        0.0000075404       -0.0000123583
	             0.0003866812       -0.0000578665       -0.0000483204
	            -0.0000063299       -0.0000465024        0.0000038110

	Previous optimization step data not found.  Starting new optimization.

	---Fragment 1 Intrafragment Coordinates---
	 - Coordinate -           - BOHR/RAD -       - ANG/DEG -
	 R(1,2)           =         1.788668	       0.946522
	 R(2,3)           =         2.654101	       1.404490
	 R(3,4)           =         2.869490	       1.518469
	 R(3,5)           =         2.058247	       1.089177
	 R(3,6)           =         2.058276	       1.089193
	 R(4,7)           =         2.890636	       1.529659
	 R(4,8)           =         2.053402	       1.086614
	 R(4,9)           =         2.053182	       1.086497
	 R(7,10)          =         2.893442	       1.531144
	 R(7,11)          =         2.054658	       1.087278
	 R(7,12)          =         2.058430	       1.089274
	 R(10,13)         =         2.896636	       1.532834
	 R(10,14)         =         2.057378	       1.088718
	 R(10,15)         =         2.055739	       1.087850
	 R(13,16)         =         2.890931	       1.529815
	 R(13,17)         =         2.054583	       1.087239
	 R(13,18)         =         2.056388	       1.088194
	 R(16,19)         =         2.053672	       1.086756
	 R(16,20)         =         2.050311	       1.084978
	 R(16,21)         =         2.051684	       1.085705
	 B(1,2,3)         =         1.913749	     109.649736
	 B(2,3,4)         =         1.888526	     108.204557
	 B(2,3,5)         =         1.930214	     110.593102
	 B(2,3,6)         =         1.930248	     110.595046
	 B(3,4,7)         =         1.970441	     112.897925
	 B(3,4,8)         =         1.890846	     108.337469
	 B(3,4,9)         =         1.890900	     108.340570
	 B(4,3,5)         =         1.920263	     110.022969
	 B(4,3,6)         =         1.920108	     110.014064
	 B(4,7,10)        =         1.965146	     112.594576
	 B(4,7,11)        =         1.905698	     109.188456
	 B(4,7,12)        =         1.911115	     109.498801
	 B(5,3,6)         =         1.874780	     107.416979
	 B(7,4,8)         =         1.922600	     110.156883
	 B(7,4,9)         =         1.923301	     110.197034
	 B(7,10,13)       =         2.001729	     114.690605
	 B(7,10,14)       =         1.906948	     109.260096
	 B(7,10,15)       =         1.895772	     108.619733
	 B(8,4,9)         =         1.862157	     106.693716
	 B(10,7,11)       =         1.918218	     109.905779
	 B(10,7,12)       =         1.904040	     109.093480
	 B(10,13,16)      =         1.999618	     114.569665
	 B(10,13,17)      =         1.892210	     108.415628
	 B(10,13,18)      =         1.907571	     109.295775
	 B(11,7,12)       =         1.856453	     106.366913
	 B(13,10,14)      =         1.906488	     109.233743
	 B(13,10,15)      =         1.894065	     108.521957
	 B(13,16,19)      =         1.937948	     111.036247
	 B(13,16,20)      =         1.955080	     112.017810
	 B(13,16,21)      =         1.933512	     110.782102
	 B(14,10,15)      =         1.853011	     106.169707
	 B(16,13,17)      =         1.896775	     108.677176
	 B(16,13,18)      =         1.909342	     109.397210
	 B(17,13,18)      =         1.852567	     106.144242
	 B(19,16,20)      =         1.880607	     107.750832
	 B(19,16,21)      =         1.879023	     107.660061
	 B(20,16,21)      =         1.874491	     107.400442
	 D(1,2,3,4)       =         3.141263	     179.981128
	 D(1,2,3,5)       =        -1.037555	     -59.447545
	 D(1,2,3,6)       =         1.037067	      59.419556
	 D(2,3,4,7)       =        -3.140097	    -179.914289
	 D(2,3,4,8)       =         1.008881	      57.804621
	 D(2,3,4,9)       =        -1.004961	     -57.580005
	 D(3,4,7,10)      =        -3.136579	    -179.712740
	 D(3,4,7,11)      =        -1.000923	     -57.348654
	 D(3,4,7,12)      =         1.025189	      58.738982
	 D(4,7,10,13)     =        -2.914617	    -166.995231
	*D(4,7,10,14)     =         1.221731	      70.000008
	 D(4,7,10,15)     =        -0.792464	     -45.404848
	 D(5,3,4,7)       =         1.032532	      59.159722
	 D(5,3,4,8)       =        -1.101676	     -63.121368
	 D(5,3,4,9)       =        -3.115517	    -178.505994
	 D(6,3,4,7)       =        -1.029592	     -58.991282
	 D(6,3,4,8)       =         3.119386	     178.727628
	 D(6,3,4,9)       =         1.105544	      63.343002
	 D(7,10,13,16)    =        -1.150635	     -65.926518
	 D(7,10,13,17)    =         3.010976	     172.516243
	 D(7,10,13,18)    =         0.998919	      57.233861
	 D(8,4,7,10)      =        -1.020277	     -58.457564
	 D(8,4,7,11)      =         1.115379	      63.906523
	 D(8,4,7,12)      =         3.141491	     179.994159
	 D(9,4,7,10)      =         1.029732	      58.999298
	 D(9,4,7,11)      =        -3.117797	    -178.636616
	 D(9,4,7,12)      =        -1.091686	     -62.548980
	 D(10,13,16,19)   =        -0.980489	     -56.177906
	 D(10,13,16,20)   =         1.123016	      64.344091
	 D(10,13,16,21)   =        -3.067516	    -175.755712
	 D(11,7,10,13)    =         1.239982	      71.045716
	 D(11,7,10,14)    =        -0.906856	     -51.959045
	 D(11,7,10,15)    =        -2.921051	    -167.363901
	 D(12,7,10,13)    =        -0.789183	     -45.216850
	 D(12,7,10,14)    =        -2.936021	    -168.221611
	 D(12,7,10,15)    =         1.332970	      76.373533
	 D(14,10,13,16)   =         0.996450	      57.092406
	 D(14,10,13,17)   =        -1.125124	     -64.464834
	 D(14,10,13,18)   =        -3.137181	    -179.747216
	 D(15,10,13,16)   =         3.009467	     172.429738
	 D(15,10,13,17)   =         0.887893	      50.872498
	 D(15,10,13,18)   =        -1.124165	     -64.409884
	 D(17,13,16,19)   =         1.138584	      65.236060
	 D(17,13,16,20)   =        -3.041096	    -174.241943
	 D(17,13,16,21)   =        -0.948442	     -54.341746
	 D(18,13,16,19)   =        -3.129091	    -179.283720
	 D(18,13,16,20)   =        -1.025586	     -58.761724
	 D(18,13,16,21)   =         1.067068	      61.138473

	Current energy   :      -310.2125190354

	Generating empirical Hessian (Schlegel '84) for each fragment.
	Taking RFO optimization step.
	Going to follow RFO solution 1.
	Using RFO vector 1.
	Norm of target step-size    0.43775
	Projected energy change by RFO approximation:        -0.0000601950

	Back-transformation to cartesian coordinates...
	Successfully converged to displaced geometry.

	Back-transformation to cartesian coordinates to adjust frozen coordinates...
	Successfully converged to displaced geometry.

	--- Internal Coordinate Step in ANG or DEG, aJ/ANG or AJ/DEG ---
	 ---------------------------------------------------------------------------
	   Coordinate                Previous        Force       Change         New 
	   ----------                --------       ------       ------       ------
	    1 R(1,2)          =      0.946522     0.000046     0.000005     0.946527
	    2 R(2,3)          =      1.404490     0.000081     0.000012     1.404501
	    3 R(3,4)          =      1.518469    -0.000056    -0.000012     1.518457
	    4 R(3,5)          =      1.089177     0.000010     0.000002     1.089179
	    5 R(3,6)          =      1.089193     0.000042     0.000008     1.089200
	    6 R(4,7)          =      1.529659     0.000016     0.000003     1.529662
	    7 R(4,8)          =      1.086614     0.000951     0.000173     1.086787
	    8 R(4,9)          =      1.086497    -0.000923    -0.000168     1.086329
	    9 R(7,10)         =      1.531144     0.007610     0.001665     1.532809
	   10 R(7,11)         =      1.087278     0.001800     0.000329     1.087607
	   11 R(7,12)         =      1.089274     0.000065     0.000012     1.089286
	   12 R(10,13)        =      1.532834    -0.004225    -0.000930     1.531904
	   13 R(10,14)        =      1.088718    -0.000473    -0.000087     1.088631
	   14 R(10,15)        =      1.087850    -0.000689    -0.000126     1.087724
	   15 R(13,16)        =      1.529815    -0.001330    -0.000290     1.529525
	   16 R(13,17)        =      1.087239     0.000349     0.000064     1.087303
	   17 R(13,18)        =      1.088194    -0.000669    -0.000123     1.088071
	   18 R(16,19)        =      1.086756    -0.000099    -0.000018     1.086738
	   19 R(16,20)        =      1.084978     0.002262     0.000410     1.085388
	   20 R(16,21)        =      1.085705     0.000109     0.000020     1.085724
	   21 B(1,2,3)        =    109.649736     0.000000     0.001720   109.651456
	   22 B(2,3,4)        =    108.204557    -0.000000    -0.001410   108.203147
	   23 B(2,3,5)        =    110.593102    -0.000001     0.003548   110.596650
	   24 B(2,3,6)        =    110.595046     0.000001    -0.000822   110.594224
	   25 B(3,4,7)        =    112.897925     0.000005     0.017816   112.915741
	   26 B(3,4,8)        =    108.337469    -0.000005    -0.013995   108.323474
	   27 B(3,4,9)        =    108.340570     0.000006     0.034835   108.375406
	   28 B(4,3,5)        =    110.022969     0.000003     0.024343   110.047313
	   29 B(4,3,6)        =    110.014064    -0.000004    -0.026485   109.987579
	   30 B(4,7,10)       =    112.594576     0.000016     0.079558   112.674134
	   31 B(4,7,11)       =    109.188456     0.000008     0.409643   109.598098
	   32 B(4,7,12)       =    109.498801    -0.000022    -0.475152   109.023649
	   33 B(5,3,6)        =    107.416979     0.000000     0.000819   107.417798
	   34 B(7,4,8)        =    110.156883     0.000004     0.031836   110.188719
	   35 B(7,4,9)        =    110.197034    -0.000010    -0.070216   110.126818
	   36 B(7,10,13)      =    114.690605    -0.000063    -0.389056   114.301549
	   37 B(7,10,14)      =    109.260096     0.000017    -0.189186   109.070910
	   38 B(7,10,15)      =    108.619733     0.000047     0.659578   109.279312
	   39 B(8,4,9)        =    106.693716     0.000001    -0.000381   106.693335
	   40 B(10,7,11)      =    109.905779    -0.000022     0.060489   109.966268
	   41 B(10,7,12)      =    109.093480     0.000021    -0.007536   109.085944
	   42 B(10,13,16)     =    114.569665    -0.000070    -0.273777   114.295887
	   43 B(10,13,17)     =    108.415628     0.000028     0.222310   108.637938
	   44 B(10,13,18)     =    109.295775     0.000010    -0.140415   109.155360
	   45 B(11,7,12)      =    106.366913    -0.000002    -0.082586   106.284327
	   46 B(13,10,14)     =    109.233743    -0.000003    -0.725942   108.507801
	   47 B(13,10,15)     =    108.521957     0.000011     0.190449   108.712405
	   48 B(13,16,19)     =    111.036247     0.000001    -0.007273   111.028974
	   49 B(13,16,20)     =    112.017810    -0.000026    -0.139635   111.878175
	   50 B(13,16,21)     =    110.782102     0.000011     0.082329   110.864432
	   51 B(14,10,15)     =    106.169707    -0.000004     0.525788   106.695495
	   52 B(16,13,17)     =    108.677176     0.000026     0.218344   108.895521
	   53 B(16,13,18)     =    109.397210     0.000019    -0.078580   109.318630
	   54 B(17,13,18)     =    106.144242    -0.000009     0.082292   106.226534
	   55 B(19,16,20)     =    107.750832     0.000006    -0.027267   107.723565
	   56 B(19,16,21)     =    107.660061    -0.000001     0.028535   107.688595
	   57 B(20,16,21)     =    107.400442     0.000010     0.068737   107.469179
	   58 D(1,2,3,4)      =    179.981128    -0.000001    -0.044750   179.936378
	   59 D(1,2,3,5)      =    -59.447545     0.000000    -0.013621   -59.461166
	   60 D(1,2,3,6)      =     59.419556     0.000000    -0.010868    59.408688
	   61 D(2,3,4,7)      =   -179.914289     0.000001     0.132900  -179.781389
	   62 D(2,3,4,8)      =     57.804621    -0.000000     0.090652    57.895272
	   63 D(2,3,4,9)      =    -57.580005    -0.000000     0.080179   -57.499826
	   64 D(3,4,7,10)     =   -179.712740     0.000004     2.553351  -177.159389
	   65 D(3,4,7,11)     =    -57.348654     0.000001     2.980135   -54.368519
	   66 D(3,4,7,12)     =     58.738982    -0.000001     2.843590    61.582572
	   67 D(4,7,10,13)    =   -166.995231    -0.000008    -1.361537  -168.356768
	   68 *D(4,7,10,14)   =     70.000008     0.000000     0.000000    70.000008
	   69 D(4,7,10,15)    =    -45.404848    -0.000007    -0.887685   -46.292533
	   70 D(5,3,4,7)      =     59.159722     0.000001     0.114786    59.274508
	   71 D(5,3,4,8)      =    -63.121368    -0.000000     0.072537   -63.048831
	   72 D(5,3,4,9)      =   -178.505994    -0.000000     0.062065  -178.443929
	   73 D(6,3,4,7)      =    -58.991282     0.000001     0.115094   -58.876188
	   74 D(6,3,4,8)      =    178.727628    -0.000000     0.072846   178.800474
	   75 D(6,3,4,9)      =     63.343002    -0.000000     0.062373    63.405375
	   76 D(7,10,13,16)   =    -65.926518     0.000008     8.346812   -57.579706
	   77 D(7,10,13,17)   =    172.516243     0.000006     8.085325   180.601568
	   78 D(7,10,13,18)   =     57.233861     0.000004     7.941824    65.175684
	   79 D(8,4,7,10)     =    -58.457564     0.000004     2.570444   -55.887119
	   80 D(8,4,7,11)     =     63.906523     0.000001     2.997228    66.903751
	   81 D(8,4,7,12)     =    179.994159    -0.000001     2.860683   182.854842
	   82 D(9,4,7,10)     =     58.999298     0.000003     2.546766    61.546064
	   83 D(9,4,7,11)     =   -178.636616     0.000001     2.973550  -175.663066
	   84 D(9,4,7,12)     =    -62.548980    -0.000002     2.837005   -59.711975
	   85 D(10,13,16,19)  =    -56.177906    -0.000002    -1.948027   -58.125933
	   86 D(10,13,16,20)  =     64.344091    -0.000004    -2.083241    62.260850
	   87 D(10,13,16,21)  =   -175.755712    -0.000003    -2.033322  -177.789034
	   88 D(11,7,10,13)   =     71.045716    -0.000010    -1.986991    69.058725
	   89 D(11,7,10,14)   =    -51.959045    -0.000001    -0.625454   -52.584499
	   90 D(11,7,10,15)   =   -167.363901    -0.000008    -1.513139  -168.877040
	   91 D(12,7,10,13)   =    -45.216850    -0.000009    -1.917351   -47.134201
	   92 D(12,7,10,14)   =   -168.221611    -0.000001    -0.555813  -168.777424
	   93 D(12,7,10,15)   =     76.373533    -0.000007    -1.443498    74.930035
	   94 D(14,10,13,16)  =     57.092406     0.000002     7.280130    64.372536
	   95 D(14,10,13,17)  =    -64.464834     0.000000     7.018644   -57.446190
	   96 D(14,10,13,18)  =   -179.747216    -0.000002     6.875142  -172.872074
	   97 D(15,10,13,16)  =    172.429738     0.000002     7.616646   180.046384
	   98 D(15,10,13,17)  =     50.872498     0.000000     7.355159    58.227658
	   99 D(15,10,13,18)  =    -64.409884    -0.000002     7.211658   -57.198226
	  100 D(17,13,16,19)  =     65.236060     0.000000    -1.684711    63.551349
	  101 D(17,13,16,20)  =   -174.241943    -0.000002    -1.819925  -176.061868
	  102 D(17,13,16,21)  =    -54.341746    -0.000001    -1.770006   -56.111752
	  103 D(18,13,16,19)  =   -179.283720     0.000003    -1.508893  -180.792613
	  104 D(18,13,16,20)  =    -58.761724     0.000001    -1.644107   -60.405831
	  105 D(18,13,16,21)  =     61.138473     0.000002    -1.594188    59.544285
	 ---------------------------------------------------------------------------

  ==> Convergence Check <==

  Measures of convergence in internal coordinates in au.
  Criteria marked as inactive (o), active & met (*), and active & unmet ( ).
  --------------------------------------------------------------------------------------------- ~
   Step     Total Energy     Delta E     MAX Force     RMS Force      MAX Disp      RMS Disp    ~
  --------------------------------------------------------------------------------------------- ~
    Convergence Criteria    1.00e-06 *    3.00e-04 *             o    1.20e-03 *             o  ~
  --------------------------------------------------------------------------------------------- ~
      1    -310.21251904   -3.10e+02      9.24e-04      2.44e-04 o    1.46e-01      4.27e-02 o  ~
  ---------------------------------------------------------------------------------------------

	Writing optimization data to binary file.
	Structure for next step:
	Cartesian Geometry (in Angstrom)
	    H    -4.2204983706   0.4669493731   0.2832846039
	    O    -3.5106083804  -0.1236262092   0.0754608507
	    C    -2.2815447458   0.5229901681   0.2850165974
	    C    -1.1684450071  -0.4519617334  -0.0558494907
	    H    -2.2043810684   1.4112914637  -0.3405058993
	    H    -2.1899111024   0.8451004882   1.3214555830
	    C     0.2264688453   0.1441906173   0.1408323798
	    H    -1.2978556434  -0.7715012170  -1.0865064622
	    H    -1.2872402782  -1.3371621471   0.5625508500
	    C     1.3445948441  -0.8202090443  -0.2705458010
	    H     0.3097387103   1.0710966051  -0.4220177499
	    H     0.3539986037   0.4109562956   1.1892201181
	    C     2.7464090769  -0.3832367092   0.1661499295
	    H     1.3386952510  -0.9304130131  -1.3535681374
	    H     1.1407019881  -1.8046011910   0.1448379180
	    C     3.1656499586   0.9940981661  -0.3502155753
	    H     3.4644881426  -1.1226364170  -0.1800832232
	    H     2.8008226705  -0.3921344956   1.2528230857
	    H     3.1346627359   1.0295473987  -1.4359333664
	    H     2.5185696573   1.7807474637   0.0246666787
	    H     4.1791886812   1.2308546953  -0.0412122590
			--------------------------
			 OPTKING Finished Execution 
			--------------------------

    Structure for next step:
    Molecular point group: c1
    Full point group: C1

    Geometry (in Angstrom), charge = 0, multiplicity = 1:

    H           -4.223922141802     0.466989133697     0.282207015858
    O           -3.514032205781    -0.123586403513     0.074383278557
    C           -2.284968665067     0.523029924382     0.283939009304
    C           -1.171869011338    -0.451921902601    -0.056927052827
    H           -2.207804993534     1.411331152151    -0.341583439651
    H           -2.193335028652     0.845140219884     1.320377915697
    C            0.223044734490     0.144230402596     0.139754802676
    H           -1.301279637762    -0.771461361867    -1.087583945556
    H           -1.290664273420    -1.337122248703     0.561473240689
    C            1.341170647945    -0.820169185383    -0.271623346654
    H            0.306314593172     1.071136319556    -0.423095284019
    H            0.350574483181     0.410996060519     1.188142460961
    C            2.742984773716    -0.383196883674     0.165072350487
    H            1.335271055235    -0.930373145754    -1.354645600422
    H            1.137277807468    -1.804561256946     0.143760340528
    C            3.162225623320     0.994137886458    -0.351293114915
    H            3.461063784549    -1.122596534993    -0.181160775798
    H            2.797398363172    -0.392094669390     1.251745423635
    H            3.131238402987     1.029587116374    -1.437010823109
    H            2.515145371495     1.780787123978     0.023589110424
    H            4.175764268559     1.230894397609    -0.042289822177

gradient() will perform analytic gradient computation.

*** tstart() called on cx1-1-1-4.cx1.hpc.ic.ac.uk
*** at Fri Sep  2 13:57:38 2016


         ---------------------------------------------------------
                                   SCF
            by Justin Turney, Rob Parrish, and Andy Simmonett
                              RHF Reference
                        4 Threads,   2000 MiB Core
         ---------------------------------------------------------

  ==> Geometry <==

    Molecular point group: c1
    Full point group: C1

    Geometry (in Angstrom), charge = 0, multiplicity = 1:

       Center              X                  Y                   Z               Mass       
    ------------   -----------------  -----------------  -----------------  -----------------
           H         -4.223922141802     0.466989133697     0.282207015858     1.007825032070
           O         -3.514032205781    -0.123586403513     0.074383278557    15.994914619560
           C         -2.284968665067     0.523029924382     0.283939009304    12.000000000000
           C         -1.171869011338    -0.451921902601    -0.056927052827    12.000000000000
           H         -2.207804993534     1.411331152151    -0.341583439651     1.007825032070
           H         -2.193335028652     0.845140219884     1.320377915697     1.007825032070
           C          0.223044734490     0.144230402596     0.139754802676    12.000000000000
           H         -1.301279637762    -0.771461361867    -1.087583945556     1.007825032070
           H         -1.290664273420    -1.337122248703     0.561473240689     1.007825032070
           C          1.341170647945    -0.820169185383    -0.271623346654    12.000000000000
           H          0.306314593172     1.071136319556    -0.423095284019     1.007825032070
           H          0.350574483181     0.410996060519     1.188142460961     1.007825032070
           C          2.742984773716    -0.383196883674     0.165072350487    12.000000000000
           H          1.335271055235    -0.930373145754    -1.354645600422     1.007825032070
           H          1.137277807468    -1.804561256946     0.143760340528     1.007825032070
           C          3.162225623320     0.994137886458    -0.351293114915    12.000000000000
           H          3.461063784549    -1.122596534993    -0.181160775798     1.007825032070
           H          2.797398363172    -0.392094669390     1.251745423635     1.007825032070
           H          3.131238402987     1.029587116374    -1.437010823109     1.007825032070
           H          2.515145371495     1.780787123978     0.023589110424     1.007825032070
           H          4.175764268559     1.230894397609    -0.042289822177     1.007825032070

  Running in c1 symmetry.

  Rotational constants: A =      0.28604  B =      0.02753  C =      0.02615 [cm^-1]
  Rotational constants: A =   8575.16517  B =    825.44042  C =    783.83751 [MHz]
  Nuclear repulsion =  313.014781347300868

  Charge       = 0
  Multiplicity = 1
  Electrons    = 58
  Nalpha       = 29
  Nbeta        = 29

  ==> Algorithm <==

  SCF Algorithm Type is DF.
  DIIS enabled.
  MOM disabled.
  Fractional occupation disabled.
  Guess Type is READ.
  Energy threshold   = 1.00e-08
  Density threshold  = 1.00e-08
  Integral threshold = 0.00e+00

  ==> Primary Basis <==

  Basis Set: 6-31G*
    Number of shells: 70
    Number of basis function: 133
    Number of Cartesian functions: 133
    Spherical Harmonics?: false
    Max angular momentum: 2

  ==> Pre-Iterations <==

   -------------------------------------------------------
    Irrep   Nso     Nmo     Nalpha   Nbeta   Ndocc  Nsocc
   -------------------------------------------------------
     A        133     133       0       0       0       0
   -------------------------------------------------------
    Total     133     133      29      29      29       0
   -------------------------------------------------------

 OEINTS: Overlap, kinetic, potential, dipole, and quadrupole integrals
         stored in file 35.

  ==> Integral Setup <==

  ==> DFJK: Density-Fitted J/K Matrices <==

    J tasked:                  Yes
    K tasked:                  Yes
    wK tasked:                  No
    OpenMP threads:              4
    Integrals threads:           4
    Memory (MB):              1430
    Algorithm:                Core
    Integral Cache:           NONE
    Schwarz Cutoff:          1E-12
    Fitting Condition:       1E-12

   => Auxiliary Basis Set <=

  Basis Set: 
    Number of shells: 294
    Number of basis function: 917
    Number of Cartesian functions: 917
    Spherical Harmonics?: false
    Max angular momentum: 3

  Minimum eigenvalue in the overlap matrix is 3.0669659083E-03.
  Using Symmetric Orthogonalization.
  SCF Guess: Reading in previously saved MOs, projecting if necessary.

  Using orbitals from previous SCF, no projection.
  Recomputing DOCC and SOCC from number of alpha and beta electrons from previous calculation.
              A 
    DOCC [    29 ]

  ==> Iterations <==

                           Total Energy        Delta E     RMS |[F,P]|

   @DF-RHF iter   0:  -310.18881051680864   -3.10189e+02   1.10380e-03 
   @DF-RHF iter   1:  -310.21127416272498   -2.24636e-02   2.40815e-04 
   @DF-RHF iter   2:  -310.21221649088147   -9.42328e-04   8.18509e-05 DIIS
   @DF-RHF iter   3:  -310.21233911370950   -1.22623e-04   2.89351e-05 DIIS
   @DF-RHF iter   4:  -310.21234960561810   -1.04919e-05   4.05777e-06 DIIS
   @DF-RHF iter   5:  -310.21235008589463   -4.80277e-07   1.25473e-06 DIIS
   @DF-RHF iter   6:  -310.21235011945362   -3.35590e-08   4.91851e-07 DIIS
   @DF-RHF iter   7:  -310.21235012585760   -6.40398e-09   1.12568e-07 DIIS
   @DF-RHF iter   8:  -310.21235012617763   -3.20028e-10   3.62887e-08 DIIS
   @DF-RHF iter   9:  -310.21235012619786   -2.02363e-11   9.80620e-09 DIIS

  ==> Post-Iterations <==

    Orbital Energies (a.u.)
    -----------------------

    Doubly Occupied:                                                      

       1A    -20.551839     2A    -11.267036     3A    -11.215829  
       4A    -11.214893     5A    -11.213608     6A    -11.210662  
       7A    -11.208185     8A     -1.358653     9A     -1.086593  
      10A     -1.033149    11A     -0.953481    12A     -0.876782  
      13A     -0.808105    14A     -0.777107    15A     -0.692398  
      16A     -0.661255    17A     -0.625329    18A     -0.604283  
      19A     -0.585446    20A     -0.572271    21A     -0.535522  
      22A     -0.520877    23A     -0.510013    24A     -0.486494  
      25A     -0.480320    26A     -0.459125    27A     -0.456116  
      28A     -0.443292    29A     -0.434019  

    Virtual:                                                              

      30A      0.227378    31A      0.229458    32A      0.258376  
      33A      0.268761    34A      0.275126    35A      0.309101  
      36A      0.310147    37A      0.312957    38A      0.333862  
      39A      0.338371    40A      0.349360    41A      0.353208  
      42A      0.363191    43A      0.371286    44A      0.387282  
      45A      0.401811    46A      0.425390    47A      0.453821  
      48A      0.490717    49A      0.499453    50A      0.703529  
      51A      0.722716    52A      0.733286    53A      0.751971  
      54A      0.764464    55A      0.775826    56A      0.796663  
      57A      0.855969    58A      0.881518    59A      0.903926  
      60A      0.942008    61A      0.949080    62A      0.971301  
      63A      0.998880    64A      1.041902    65A      1.067269  
      66A      1.103308    67A      1.118700    68A      1.125046  
      69A      1.154075    70A      1.164187    71A      1.172339  
      72A      1.182792    73A      1.191688    74A      1.198334  
      75A      1.201984    76A      1.215855    77A      1.223970  
      78A      1.245542    79A      1.256195    80A      1.263989  
      81A      1.284902    82A      1.293917    83A      1.296582  
      84A      1.427533    85A      1.491081    86A      1.517807  
      87A      1.623453    88A      1.666458    89A      1.697737  
      90A      1.723411    91A      1.791978    92A      1.818240  
      93A      1.887958    94A      1.911060    95A      1.939265  
      96A      2.034516    97A      2.063995    98A      2.134220  
      99A      2.172706   100A      2.187648   101A      2.239011  
     102A      2.263083   103A      2.281876   104A      2.292901  
     105A      2.327243   106A      2.337187   107A      2.357996  
     108A      2.436108   109A      2.473517   110A      2.489804  
     111A      2.562354   112A      2.625827   113A      2.667023  
     114A      2.678406   115A      2.694895   116A      2.746631  
     117A      2.768355   118A      2.803965   119A      2.827187  
     120A      2.869272   121A      2.963881   122A      2.971716  
     123A      2.986907   124A      3.085192   125A      3.202766  
     126A      3.266961   127A      4.210534   128A      4.559569  
     129A      4.643747   130A      4.738643   131A      4.816135  
     132A      4.894057   133A      5.002712  

    Final Occupation by Irrep:
              A 
    DOCC [    29 ]

  Energy converged.

  @DF-RHF Final Energy:  -310.21235012619786

   => Energetics <=

    Nuclear Repulsion Energy =            313.0147813473008682
    One-Electron Energy =               -1040.7688985496179157
    Two-Electron Energy =                 417.5417670761195268
    DFT Exchange-Correlation Energy =       0.0000000000000000
    Empirical Dispersion Energy =           0.0000000000000000
    PCM Polarization Energy =               0.0000000000000000
    EFP Energy =                            0.0000000000000000
    Total Energy =                       -310.2123501261975207

    Alert: EFP and PCM quantities not currently incorporated into SCF psivars.

Properties will be evaluated at   0.000000,   0.000000,   0.000000 Bohr
  ==> Properties <==


Properties computed using the SCF density matrix

  Nuclear Dipole Moment: (a.u.)
     X:     7.4763      Y:     1.7700      Z:    -0.0897

  Electronic Dipole Moment: (a.u.)
     X:    -7.3850      Y:    -1.1744      Z:     0.3028

  Dipole Moment: (a.u.)
     X:     0.0913      Y:     0.5955      Z:     0.2131     Total:     0.6391

  Dipole Moment: (Debye)
     X:     0.2322      Y:     1.5137      Z:     0.5416     Total:     1.6243


  Saving occupied orbitals to File 180.

*** tstop() called on cx1-1-1-4.cx1.hpc.ic.ac.uk at Fri Sep  2 13:57:44 2016
Module time:
	user time   =      15.15 seconds =       0.25 minutes
	system time =       0.15 seconds =       0.00 minutes
	total time  =          6 seconds =       0.10 minutes
Total time:
	user time   =      55.53 seconds =       0.93 minutes
	system time =       0.58 seconds =       0.01 minutes
	total time  =         19 seconds =       0.32 minutes

*** tstart() called on cx1-1-1-4.cx1.hpc.ic.ac.uk
*** at Fri Sep  2 13:57:44 2016


         ------------------------------------------------------------
                                   SCF GRAD                          
                          Rob Parrish, Justin Turney,                
                       Andy Simmonett, and Alex Sokolov              
         ------------------------------------------------------------

  ==> Geometry <==

    Molecular point group: c1
    Full point group: C1

    Geometry (in Angstrom), charge = 0, multiplicity = 1:

       Center              X                  Y                   Z               Mass       
    ------------   -----------------  -----------------  -----------------  -----------------
           H         -4.223922141802     0.466989133697     0.282207015858     1.007825032070
           O         -3.514032205781    -0.123586403513     0.074383278557    15.994914619560
           C         -2.284968665067     0.523029924382     0.283939009304    12.000000000000
           C         -1.171869011338    -0.451921902601    -0.056927052827    12.000000000000
           H         -2.207804993534     1.411331152151    -0.341583439651     1.007825032070
           H         -2.193335028652     0.845140219884     1.320377915697     1.007825032070
           C          0.223044734490     0.144230402596     0.139754802676    12.000000000000
           H         -1.301279637762    -0.771461361867    -1.087583945556     1.007825032070
           H         -1.290664273420    -1.337122248703     0.561473240689     1.007825032070
           C          1.341170647945    -0.820169185383    -0.271623346654    12.000000000000
           H          0.306314593172     1.071136319556    -0.423095284019     1.007825032070
           H          0.350574483181     0.410996060519     1.188142460961     1.007825032070
           C          2.742984773716    -0.383196883674     0.165072350487    12.000000000000
           H          1.335271055235    -0.930373145754    -1.354645600422     1.007825032070
           H          1.137277807468    -1.804561256946     0.143760340528     1.007825032070
           C          3.162225623320     0.994137886458    -0.351293114915    12.000000000000
           H          3.461063784549    -1.122596534993    -0.181160775798     1.007825032070
           H          2.797398363172    -0.392094669390     1.251745423635     1.007825032070
           H          3.131238402987     1.029587116374    -1.437010823109     1.007825032070
           H          2.515145371495     1.780787123978     0.023589110424     1.007825032070
           H          4.175764268559     1.230894397609    -0.042289822177     1.007825032070

  Nuclear repulsion =  313.014781347300868

  ==> Basis Set <==

  Basis Set: 6-31G*
    Number of shells: 70
    Number of basis function: 133
    Number of Cartesian functions: 133
    Spherical Harmonics?: false
    Max angular momentum: 2

  ==> DFJKGrad: Density-Fitted SCF Gradients <==

    Gradient:                    1
    J tasked:                  Yes
    K tasked:                  Yes
    wK tasked:                  No
    OpenMP threads:              4
    Integrals threads:           4
    Memory (MB):              1430
    Schwarz Cutoff:          0E+00
    Fitting Condition:       1E-12

   => Auxiliary Basis Set <=

  Basis Set: 
    Number of shells: 294
    Number of basis function: 917
    Number of Cartesian functions: 917
    Spherical Harmonics?: false
    Max angular momentum: 3


  -Total Gradient:
     Atom            X                  Y                   Z
    ------   -----------------  -----------------  -----------------
       1        0.000000334302     0.000001663060    -0.000005733044
       2       -0.000004772173    -0.000007677472    -0.000023511980
       3       -0.000014480150     0.000100509482    -0.000132803065
       4       -0.000011168029    -0.000434294176     0.001455193732
       5       -0.000018852278     0.000067212896     0.000026808013
       6        0.000013267270    -0.000076133797    -0.000039915097
       7        0.000581785370     0.001659644572    -0.002414576792
       8        0.000137525020    -0.000003295093     0.000048053588
       9       -0.000106422289     0.000015218573     0.000070100005
      10       -0.001040573813    -0.002397148905     0.002146157376
      11        0.000115305999     0.000815419789     0.000086363987
      12       -0.000058642824    -0.000292492553    -0.000226686754
      13       -0.000040919628    -0.000488623125    -0.001318049943
      14        0.001544874386     0.001262267510    -0.000025598746
      15        0.000020223244    -0.000238267615     0.000307449756
      16       -0.000445043785     0.000016633004     0.000241644571
      17        0.000072664562     0.000133463046    -0.000336923155
      18       -0.000087116508    -0.000410055001    -0.000150473287
      19        0.000068184303    -0.000154060149     0.000166968369
      20       -0.000692934057     0.000274962519    -0.000054041819
      21       -0.000033238922     0.000155053434     0.000179574284


*** tstop() called on cx1-1-1-4.cx1.hpc.ic.ac.uk at Fri Sep  2 13:57:50 2016
Module time:
	user time   =      21.84 seconds =       0.36 minutes
	system time =       0.20 seconds =       0.00 minutes
	total time  =          6 seconds =       0.10 minutes
Total time:
	user time   =      77.38 seconds =       1.29 minutes
	system time =       0.78 seconds =       0.01 minutes
	total time  =         25 seconds =       0.42 minutes
CURRENT ENERGY: -310.2123501262

			-----------------------------------------
			 OPTKING 2.0: for geometry optimizations 
			  - R.A. King,  Bethel University        
			-----------------------------------------

	Previous internal coordinate definitions found.
	---Fragment 1 Geometry and Gradient---
	 H          -7.9820560546        0.8824815697        0.5332939728
	 O          -6.6405584911       -0.2335444564        0.1405640253
	 C          -4.3179649992        0.9883833164        0.5365669660
	 C          -2.2145114950       -0.8540086294       -0.1075765394
	 H          -4.1721467926        2.6670293604       -0.6454991525
	 H          -4.1448025218        1.5970835595        2.4951526526
	 C           0.4214934636        0.2725559609        0.2640983028
	 H          -2.4590621377       -1.4578506960       -2.0552358036
	 H          -2.4390020063       -2.5267948562        1.0610306558
	 C           2.5344452221       -1.5498951430       -0.5132937365
	 H           0.5788506916        2.0241542949       -0.7995342149
	 H           0.6624897624        0.7766699961        2.2452638581
	 C           5.1834900090       -0.7241371651        0.3119415345
	 H           2.5232966076       -1.7581504469       -2.5599091919
	 H           2.1491435931       -3.4101265656        0.2716676724
	 C           5.9757403985        1.8786483437       -0.6638477796
	 H           6.5404626812       -2.1214000089       -0.3423442523
	 H           5.2863167910       -0.7409515433        2.3654560388
	 H           5.9171830384        1.9456376799       -2.7155569057
	 H           4.7529359365        3.3651999653        0.0445769584
	 H           7.8910508631        2.3260533100       -0.0799161821
	             0.0000003343        0.0000016631       -0.0000057330
	            -0.0000047722       -0.0000076775       -0.0000235120
	            -0.0000144801        0.0001005095       -0.0001328031
	            -0.0000111680       -0.0004342942        0.0014551937
	            -0.0000188523        0.0000672129        0.0000268080
	             0.0000132673       -0.0000761338       -0.0000399151
	             0.0005817854        0.0016596446       -0.0024145768
	             0.0001375250       -0.0000032951        0.0000480536
	            -0.0001064223        0.0000152186        0.0000701000
	            -0.0010405738       -0.0023971489        0.0021461574
	             0.0001153060        0.0008154198        0.0000863640
	            -0.0000586428       -0.0002924926       -0.0002266868
	            -0.0000409196       -0.0004886231       -0.0013180499
	             0.0015448744        0.0012622675       -0.0000255987
	             0.0000202232       -0.0002382676        0.0003074498
	            -0.0004450438        0.0000166330        0.0002416446
	             0.0000726646        0.0001334630       -0.0003369232
	            -0.0000871165       -0.0004100550       -0.0001504733
	             0.0000681843       -0.0001540601        0.0001669684
	            -0.0006929341        0.0002749625       -0.0000540418
	            -0.0000332389        0.0001550534        0.0001795743

	---Fragment 1 Intrafragment Coordinates---
	 - Coordinate -           - BOHR/RAD -       - ANG/DEG -
	 R(1,2)           =         1.788677	       0.946527
	 R(2,3)           =         2.654123	       1.404501
	 R(3,4)           =         2.869468	       1.518457
	 R(3,5)           =         2.058251	       1.089179
	 R(3,6)           =         2.058290	       1.089200
	 R(4,7)           =         2.890642	       1.529662
	 R(4,8)           =         2.053730	       1.086787
	 R(4,9)           =         2.052864	       1.086329
	 R(7,10)          =         2.896590	       1.532809
	 R(7,11)          =         2.055279	       1.087607
	 R(7,12)          =         2.058453	       1.089286
	 R(10,13)         =         2.894880	       1.531904
	 R(10,14)         =         2.057214	       1.088631
	 R(10,15)         =         2.055501	       1.087724
	 R(13,16)         =         2.890384	       1.529525
	 R(13,17)         =         2.054704	       1.087303
	 R(13,18)         =         2.056156	       1.088071
	 R(16,19)         =         2.053637	       1.086738
	 R(16,20)         =         2.051086	       1.085388
	 R(16,21)         =         2.051722	       1.085724
	 B(1,2,3)         =         1.913779	     109.651456
	 B(2,3,4)         =         1.888501	     108.203147
	 B(2,3,5)         =         1.930276	     110.596650
	 B(2,3,6)         =         1.930233	     110.594224
	 B(3,4,7)         =         1.970751	     112.915741
	 B(3,4,8)         =         1.890601	     108.323474
	 B(3,4,9)         =         1.891508	     108.375406
	 B(4,3,5)         =         1.920688	     110.047313
	 B(4,3,6)         =         1.919645	     109.987579
	 B(4,7,10)        =         1.966535	     112.674134
	 B(4,7,11)        =         1.912848	     109.598098
	 B(4,7,12)        =         1.902822	     109.023649
	 B(5,3,6)         =         1.874794	     107.417798
	 B(7,4,8)         =         1.923156	     110.188719
	 B(7,4,9)         =         1.922076	     110.126818
	 B(7,10,13)       =         1.994938	     114.301549
	 B(7,10,14)       =         1.903647	     109.070910
	 B(7,10,15)       =         1.907284	     109.279312
	 B(8,4,9)         =         1.862150	     106.693335
	 B(10,7,11)       =         1.919273	     109.966268
	 B(10,7,12)       =         1.903909	     109.085944
	 B(10,13,16)      =         1.994840	     114.295887
	 B(10,13,17)      =         1.896090	     108.637938
	 B(10,13,18)      =         1.905120	     109.155360
	 B(11,7,12)       =         1.855011	     106.284327
	 B(13,10,14)      =         1.893818	     108.507801
	 B(13,10,15)      =         1.897389	     108.712405
	 B(13,16,19)      =         1.937821	     111.028974
	 B(13,16,20)      =         1.952643	     111.878175
	 B(13,16,21)      =         1.934949	     110.864432
	 B(14,10,15)      =         1.862188	     106.695495
	 B(16,13,17)      =         1.900585	     108.895521
	 B(16,13,18)      =         1.907970	     109.318630
	 B(17,13,18)      =         1.854003	     106.226534
	 B(19,16,20)      =         1.880131	     107.723565
	 B(19,16,21)      =         1.879521	     107.688595
	 B(20,16,21)      =         1.875691	     107.469179
	 D(1,2,3,4)       =         3.140482	     179.936378
	 D(1,2,3,5)       =        -1.037793	     -59.461166
	 D(1,2,3,6)       =         1.036877	      59.408688
	 D(2,3,4,7)       =        -3.137777	    -179.781389
	 D(2,3,4,8)       =         1.010463	      57.895272
	 D(2,3,4,9)       =        -1.003561	     -57.499826
	 D(3,4,7,10)      =        -3.092015	    -177.159389
	 D(3,4,7,11)      =        -0.948910	     -54.368519
	 D(3,4,7,12)      =         1.074819	      61.582572
	 D(4,7,10,13)     =        -2.938380	    -168.356768
	*D(4,7,10,14)     =         1.221731	      70.000008
	 D(4,7,10,15)     =        -0.807957	     -46.292533
	 D(5,3,4,7)       =         1.034535	      59.274508
	 D(5,3,4,8)       =        -1.100410	     -63.048831
	 D(5,3,4,9)       =        -3.114434	    -178.443929
	 D(6,3,4,7)       =        -1.027583	     -58.876188
	 D(6,3,4,8)       =         3.120657	     178.800474
	 D(6,3,4,9)       =         1.106633	      63.405375
	 D(7,10,13,16)    =        -1.004955	     -57.579706
	 D(7,10,13,17)    =        -3.131093	    -179.398432
	 D(7,10,13,18)    =         1.137530	      65.175684
	 D(8,4,7,10)      =        -0.975414	     -55.887119
	 D(8,4,7,11)      =         1.167691	      66.903751
	 D(8,4,7,12)      =        -3.091766	    -177.145158
	 D(9,4,7,10)      =         1.074181	      61.546064
	 D(9,4,7,11)      =        -3.065899	    -175.663066
	 D(9,4,7,12)      =        -1.042171	     -59.711975
	 D(10,13,16,19)   =        -1.014489	     -58.125933
	 D(10,13,16,20)   =         1.086657	      62.260850
	 D(10,13,16,21)   =        -3.103004	    -177.789034
	 D(11,7,10,13)    =         1.205302	      69.058725
	 D(11,7,10,14)    =        -0.917773	     -52.584499
	 D(11,7,10,15)    =        -2.947460	    -168.877040
	 D(12,7,10,13)    =        -0.822647	     -47.134201
	 D(12,7,10,14)    =        -2.945722	    -168.777424
	 D(12,7,10,15)    =         1.307776	      74.930035
	 D(14,10,13,16)   =         1.123513	      64.372536
	 D(14,10,13,17)   =        -1.002625	     -57.446190
	 D(14,10,13,18)   =        -3.017187	    -172.872074
	 D(15,10,13,16)   =        -3.140783	    -179.953616
	 D(15,10,13,17)   =         1.016264	      58.227658
	 D(15,10,13,18)   =        -0.998297	     -57.198226
	 D(17,13,16,19)   =         1.109180	      63.551349
	 D(17,13,16,20)   =        -3.072859	    -176.061868
	 D(17,13,16,21)   =        -0.979335	     -56.111752
	 D(18,13,16,19)   =         3.127759	     179.207387
	 D(18,13,16,20)   =        -1.054281	     -60.405831
	 D(18,13,16,21)   =         1.039244	      59.544285

	Current energy   :      -310.2123501262

	Energy change for the previous step:
		Projected    :        -0.0000601950
		Actual       :         0.0001689092

	Performing BFGS update.
	Previous computed or guess Hessian on step 1.
	Steps to be used in Hessian update: 1
	Taking RFO optimization step.
	Going to follow RFO solution 1.
	Using RFO vector 1.
	Norm of target step-size    0.32212
	Projected energy change by RFO approximation:        -0.0002102693

	Back-transformation to cartesian coordinates...
	Successfully converged to displaced geometry.

	Back-transformation to cartesian coordinates to adjust frozen coordinates...
	Successfully converged to displaced geometry.

	--- Internal Coordinate Step in ANG or DEG, aJ/ANG or AJ/DEG ---
	 ---------------------------------------------------------------------------
	   Coordinate                Previous        Force       Change         New 
	   ----------                --------       ------       ------       ------
	    1 R(1,2)          =      0.946527     0.000004     0.000001     0.946528
	    2 R(2,3)          =      1.404501    -0.000091    -0.000003     1.404498
	    3 R(3,4)          =      1.518457    -0.000277    -0.000024     1.518433
	    4 R(3,5)          =      1.089179    -0.000314    -0.000021     1.089158
	    5 R(3,6)          =      1.089200     0.000489     0.000035     1.089236
	    6 R(4,7)          =      1.529662     0.000365     0.000031     1.529693
	    7 R(4,8)          =      1.086787     0.000502     0.000065     1.086852
	    8 R(4,9)          =      1.086329    -0.000322    -0.000052     1.086277
	    9 R(7,10)         =      1.532809    -0.003201     0.000031     1.532841
	   10 R(7,11)         =      1.087607    -0.005430    -0.000315     1.087292
	   11 R(7,12)         =      1.089286     0.002444     0.000171     1.089457
	   12 R(10,13)        =      1.531904     0.012830     0.000896     1.532801
	   13 R(10,14)        =      1.088631     0.000912     0.000048     1.088678
	   14 R(10,15)        =      1.087724    -0.002713    -0.000209     1.087515
	   15 R(13,16)        =      1.529525     0.001806     0.000097     1.529622
	   16 R(13,17)        =      1.087303    -0.000532    -0.000025     1.087277
	   17 R(13,18)        =      1.088071     0.001246     0.000064     1.088135
	   18 R(16,19)        =      1.086738     0.001432     0.000095     1.086833
	   19 R(16,20)        =      1.085388    -0.004892    -0.000261     1.085127
	   20 R(16,21)        =      1.085724    -0.000444    -0.000027     1.085698
	   21 B(1,2,3)        =    109.651456     0.000000     0.000316   109.651772
	   22 B(2,3,4)        =    108.203147     0.000002     0.002166   108.205312
	   23 B(2,3,5)        =    110.596650     0.000002     0.000606   110.597256
	   24 B(2,3,6)        =    110.594224    -0.000002    -0.000501   110.593723
	   25 B(3,4,7)        =    112.915741    -0.000003     0.000767   112.916508
	   26 B(3,4,8)        =    108.323474    -0.000002     0.009500   108.332974
	   27 B(3,4,9)        =    108.375406     0.000004    -0.005384   108.370022
	   28 B(4,3,5)        =    110.047313    -0.000006    -0.010091   110.037222
	   29 B(4,3,6)        =    109.987579     0.000005     0.008168   109.995747
	   30 B(4,7,10)       =    112.674134    -0.000023    -0.026301   112.647833
	   31 B(4,7,11)       =    109.598098     0.000016     0.004028   109.602127
	   32 B(4,7,12)       =    109.023649    -0.000004    -0.010709   109.012940
	   33 B(5,3,6)        =    107.417798     0.000000    -0.000401   107.417397
	   34 B(7,4,8)        =    110.188719     0.000011     0.049046   110.237764
	   35 B(7,4,9)        =    110.126818    -0.000008    -0.049026   110.077792
	   36 B(7,10,13)      =    114.301549     0.000125     0.138766   114.440315
	   37 B(7,10,14)      =    109.070910    -0.000025     0.078256   109.149166
	   38 B(7,10,15)      =    109.279312    -0.000065    -0.164140   109.115172
	   39 B(8,4,9)        =    106.693335    -0.000001    -0.005220   106.688115
	   40 B(10,7,11)      =    109.966268    -0.000002    -0.051379   109.914889
	   41 B(10,7,12)      =    109.085944     0.000013     0.064869   109.150813
	   42 B(10,13,16)     =    114.295887     0.000138     0.152818   114.448705
	   43 B(10,13,17)     =    108.637938    -0.000058    -0.140014   108.497923
	   44 B(10,13,18)     =    109.155360    -0.000016     0.098187   109.253546
	   45 B(11,7,12)      =    106.284327     0.000002     0.023092   106.307418
	   46 B(13,10,14)     =    108.507801    -0.000016     0.106418   108.614219
	   47 B(13,10,15)     =    108.712405    -0.000048    -0.148516   108.563889
	   48 B(13,16,19)     =    111.028974     0.000014     0.032939   111.061913
	   49 B(13,16,20)     =    111.878175     0.000018     0.014149   111.892324
	   50 B(13,16,21)     =    110.864432    -0.000015    -0.029494   110.834937
	   51 B(14,10,15)     =    106.695495     0.000023    -0.020174   106.675321
	   52 B(16,13,17)     =    108.895521    -0.000054    -0.141779   108.753741
	   53 B(16,13,18)     =    109.318630    -0.000037     0.051977   109.370607
	   54 B(17,13,18)     =    106.226534     0.000019    -0.037326   106.189208
	   55 B(19,16,20)     =    107.723565    -0.000005     0.018334   107.741899
	   56 B(19,16,21)     =    107.688595    -0.000005    -0.018129   107.670466
	   57 B(20,16,21)     =    107.469179    -0.000008    -0.019360   107.449819
	   58 D(1,2,3,4)      =    179.936378     0.000001    -0.012361   179.924017
	   59 D(1,2,3,5)      =    -59.461166    -0.000000    -0.023013   -59.484179
	   60 D(1,2,3,6)      =     59.408688    -0.000001    -0.023445    59.385243
	   61 D(2,3,4,7)      =   -179.781389     0.000002     0.231664  -179.549725
	   62 D(2,3,4,8)      =     57.895272    -0.000001     0.162095    58.057367
	   63 D(2,3,4,9)      =    -57.499826    -0.000000     0.166075   -57.333751
	   64 D(3,4,7,10)     =   -177.159389    -0.000001    -0.222688  -177.382076
	   65 D(3,4,7,11)     =    -54.368519    -0.000003    -0.304023   -54.672542
	   66 D(3,4,7,12)     =     61.582572    -0.000001    -0.280140    61.302432
	   67 D(4,7,10,13)    =   -168.356768     0.000011     0.291932  -168.064836
	   68 *D(4,7,10,14)   =     70.000008     0.000000    -0.000000    70.000008
	   69 D(4,7,10,15)    =    -46.292533     0.000005     0.071995   -46.220537
	   70 D(5,3,4,7)      =     59.274508     0.000002     0.235651    59.510159
	   71 D(5,3,4,8)      =    -63.048831    -0.000000     0.166082   -62.882749
	   72 D(5,3,4,9)      =   -178.443929    -0.000000     0.170062  -178.273867
	   73 D(6,3,4,7)      =    -58.876188     0.000002     0.237307   -58.638881
	   74 D(6,3,4,8)      =    178.800474    -0.000000     0.167737   178.968211
	   75 D(6,3,4,9)      =     63.405375    -0.000000     0.171718    63.577093
	   76 D(7,10,13,16)   =    -57.579706    -0.000017    -6.132687   -63.712393
	   77 D(7,10,13,17)   =   -179.398432    -0.000012    -5.949469  -185.347900
	   78 D(7,10,13,18)   =     65.175684    -0.000008    -5.881581    59.294104
	   79 D(8,4,7,10)     =    -55.887119    -0.000001    -0.174708   -56.061827
	   80 D(8,4,7,11)     =     66.903751    -0.000002    -0.256044    66.647707
	   81 D(8,4,7,12)     =   -177.145158    -0.000000    -0.232160  -177.377319
	   82 D(9,4,7,10)     =     61.546064    -0.000001    -0.181154    61.364910
	   83 D(9,4,7,11)     =   -175.663066    -0.000002    -0.262490  -175.925556
	   84 D(9,4,7,12)     =    -59.711975    -0.000000    -0.238607   -59.950581
	   85 D(10,13,16,19)  =    -58.125933     0.000006     2.071645   -56.054288
	   86 D(10,13,16,20)  =     62.260850     0.000010     2.127460    64.388310
	   87 D(10,13,16,21)  =   -177.789034     0.000008     2.092237  -175.696798
	   88 D(11,7,10,13)   =     69.058725     0.000010     0.342428    69.401153
	   89 D(11,7,10,14)   =    -52.584499    -0.000001     0.050496   -52.534003
	   90 D(11,7,10,15)   =   -168.877040     0.000004     0.122491  -168.754548
	   91 D(12,7,10,13)   =    -47.134201     0.000008     0.306340   -46.827861
	   92 D(12,7,10,14)   =   -168.777424    -0.000003     0.014408  -168.763016
	   93 D(12,7,10,15)   =     74.930035     0.000002     0.086403    75.016438
	   94 D(14,10,13,16)  =     64.372536    -0.000007    -5.857891    58.514645
	   95 D(14,10,13,17)  =    -57.446190    -0.000003    -5.674672   -63.120862
	   96 D(14,10,13,18)  =   -172.872074     0.000001    -5.606785  -178.478858
	   97 D(15,10,13,16)  =   -179.953616    -0.000009    -5.904155  -185.857771
	   98 D(15,10,13,17)  =     58.227658    -0.000005    -5.720936    52.506721
	   99 D(15,10,13,18)  =    -57.198226    -0.000000    -5.653048   -62.851275
	  100 D(17,13,16,19)  =     63.551349     0.000002     1.889531    65.440880
	  101 D(17,13,16,20)  =   -176.061868     0.000005     1.945345  -174.116523
	  102 D(17,13,16,21)  =    -56.111752     0.000003     1.910122   -54.201630
	  103 D(18,13,16,19)  =    179.207387    -0.000005     1.795057   181.002444
	  104 D(18,13,16,20)  =    -60.405831    -0.000001     1.850872   -58.554958
	  105 D(18,13,16,21)  =     59.544285    -0.000003     1.815649    61.359934
	 ---------------------------------------------------------------------------

  ==> Convergence Check <==

  Measures of convergence in internal coordinates in au.
  Criteria marked as inactive (o), active & met (*), and active & unmet ( ).
  ---------------------------------------------------------------------------------------------
   Step     Total Energy     Delta E     MAX Force     RMS Force      MAX Disp      RMS Disp   
  ---------------------------------------------------------------------------------------------
    Convergence Criteria    1.00e-06 *    3.00e-04 *             o    1.20e-03 *             o
  ---------------------------------------------------------------------------------------------
      2    -310.21235013    1.69e-04      1.82e-03      4.04e-04 o    1.07e-01      3.14e-02 o  ~
  ---------------------------------------------------------------------------------------------

	Writing optimization data to binary file.
	Structure for next step:
	Cartesian Geometry (in Angstrom)
	    H    -4.2428395163   0.4298483035   0.2888991329
	    O    -3.5263540985  -0.1461894631   0.0636322700
	    C    -2.3045587930   0.5049173988   0.3000469876
	    C    -1.1805591751  -0.4467517014  -0.0695338378
	    H    -2.2338892852   1.4147170299  -0.2945417781
	    H    -2.2199815976   0.7924149146   1.3472461358
	    C     0.2076622130   0.1539986298   0.1582814868
	    H    -1.3012325161  -0.7299289233  -1.1118852195
	    H    -1.2945330352  -1.3548315244   0.5156152757
	    C     1.3367038821  -0.7871801854  -0.2765150982
	    H     0.2878932296   1.0990373742  -0.3733851649
	    H     0.3242301088   0.3872454572   1.2160740108
	    C     2.7330229427  -0.3606211041   0.1901944913
	    H     1.3410625000  -0.8618178654  -1.3626232173
	    H     1.1344438133  -1.7856404369   0.1040864674
	    C     3.2142271726   0.9713781573  -0.3877013244
	    H     3.4414442007  -1.1378079226  -0.0860156422
	    H     2.7478548936  -0.3089186993   1.2769994493
	    H     3.1935930982   0.9559671604  -1.4742292706
	    H     2.5989120860   1.8017667362  -0.0570306856
	    H     4.2344964769   1.1795729438  -0.0803827338
			--------------------------
			 OPTKING Finished Execution 
			--------------------------

    Structure for next step:
    Molecular point group: c1
    Full point group: C1

    Geometry (in Angstrom), charge = 0, multiplicity = 1:

    H           -4.240374956755     0.429976035075     0.289847369788
    O           -3.523889593616    -0.146061687448     0.064580524128
    C           -2.302094381512     0.505045124646     0.300995223622
    C           -1.178094849429    -0.446623902853    -0.068585573463
    H           -2.231424879047     1.414844686325    -0.293593496631
    H           -2.217517192528     0.792542618568     1.348194291859
    C            0.210126432664     0.154126382460     0.159229733746
    H           -1.298768181209    -0.729801103126    -1.110936875640
    H           -1.292068700746    -1.354703656454     0.516563495338
    C            1.339168015555    -0.787052360867    -0.275566818093
    H            0.290357443203     1.099165054746    -0.372436877405
    H            0.326694319551     0.387373192089     1.217022176942
    C            2.735486969586    -0.360493312127     0.191142735727
    H            1.343526633097    -0.861690035131    -1.361674854295
    H            1.136907962202    -1.785512536128     0.105034718408
    C            3.216691162696     0.971505847540    -0.386753035762
    H            3.443908173412    -1.137680071275    -0.085067376657
    H            2.750318919269    -0.308790911283     1.277947610729
    H            3.196057089907     0.956094851822    -1.473280898989
    H            2.601376123081     1.801894363012    -0.056082422311
    H            4.236960389104     1.179700618136    -0.079434468699

gradient() will perform analytic gradient computation.

*** tstart() called on cx1-1-1-4.cx1.hpc.ic.ac.uk
*** at Fri Sep  2 13:57:50 2016


         ---------------------------------------------------------
[...]
	 B(13,10,14)      =         1.898270	     108.762859
	 B(13,10,15)      =         1.894940	     108.572058
	 B(13,16,19)      =         1.938219	     111.051756
	 B(13,16,20)      =         1.953274	     111.914363
	 B(13,16,21)      =         1.934513	     110.839452
	 B(14,10,15)      =         1.860437	     106.595175
	 B(16,13,17)      =         1.898505	     108.776350
	 B(16,13,18)      =         1.908860	     109.369604
	 B(17,13,18)      =         1.853281	     106.185191
	 B(19,16,20)      =         1.880457	     107.742249
	 B(19,16,21)      =         1.879113	     107.665270
	 B(20,16,21)      =         1.875132	     107.437140
	 D(1,2,3,4)       =        -3.141518	    -179.995695
	 D(1,2,3,5)       =        -1.037063	     -59.419357
	 D(1,2,3,6)       =         1.037573	      59.448556
	 D(2,3,4,7)       =        -3.132840	    -179.498494
	 D(2,3,4,8)       =         1.013654	      58.078102
	 D(2,3,4,9)       =        -1.000317	     -57.313938
	 D(3,4,7,10)      =        -3.114920	    -178.471774
	 D(3,4,7,11)      =        -0.975001	     -55.863427
	 D(3,4,7,12)      =         1.050128	      60.167930
	 D(4,7,10,13)     =        -2.929538	    -167.850163
	*D(4,7,10,14)     =         1.221731	      70.000008
	 D(4,7,10,15)     =        -0.804275	     -46.081572
	 D(5,3,4,7)       =         1.039697	      59.570275
	 D(5,3,4,8)       =        -1.096994	     -62.853130
	 D(5,3,4,9)       =        -3.110965	    -178.245170
	 D(6,3,4,7)       =        -1.022365	     -58.577191
	 D(6,3,4,8)       =         3.124129	     178.999405
	 D(6,3,4,9)       =         1.110158	      63.607365
	 D(7,10,13,16)    =        -1.114682	     -63.866564
	 D(7,10,13,17)    =         3.045485	     174.493409
	 D(7,10,13,18)    =         1.032019	      59.130319
	 D(8,4,7,10)      =        -0.997149	     -57.132410
	 D(8,4,7,11)      =         1.142771	      65.475936
	 D(8,4,7,12)      =        -3.115285	    -178.492707
	 D(9,4,7,10)      =         1.052352	      60.295319
	 D(9,4,7,11)      =        -3.090914	    -177.096335
	 D(9,4,7,12)      =        -1.065785	     -61.064978
	 D(10,13,16,19)   =        -0.982936	     -56.318092
	 D(10,13,16,20)   =         1.119331	      64.132967
	 D(10,13,16,21)   =        -3.070913	    -175.950375
	 D(11,7,10,13)    =         1.216988	      69.728292
	 D(11,7,10,14)    =        -0.914928	     -52.421536
	 D(11,7,10,15)    =        -2.940934	    -168.503116
	 D(12,7,10,13)    =        -0.811577	     -46.499957
	 D(12,7,10,14)    =        -2.943494	    -168.649785
	 D(12,7,10,15)    =         1.313686	      75.268635
	 D(14,10,13,16)   =         1.021222	      58.511715
	 D(14,10,13,17)   =        -1.101797	     -63.128313
	 D(14,10,13,18)   =        -3.115263	    -178.491402
	 D(15,10,13,16)   =         3.039113	     174.128324
	 D(15,10,13,17)   =         0.916094	      52.488296
	 D(15,10,13,18)   =        -1.097372	     -62.874793
	 D(17,13,16,19)   =         1.137393	      65.167835
	 D(17,13,16,20)   =        -3.043524	    -174.381107
	 D(17,13,16,21)   =        -0.950584	     -54.464449
	 D(18,13,16,19)   =        -3.128737	    -179.263449
	 D(18,13,16,20)   =        -1.026470	     -58.812391
	 D(18,13,16,21)   =         1.066471	      61.104267

	Current energy   :      -310.2125817477

	Energy change for the previous step:
		Projected    :        -0.0000016488
		Actual       :        -0.0000003215
	Energy ratio indicates iffy step: Trust radius decreased to 1.562e-02.


	Performing BFGS update.
	Previous computed or guess Hessian on step 1.
	Steps to be used in Hessian update: 5 4
	Taking RFO optimization step.
	Going to follow RFO solution 1.
	Using RFO vector 1.
	Norm of target step-size    0.00174
	Projected energy change by RFO approximation:         0.0000000618

	Back-transformation to cartesian coordinates...
	Successfully converged to displaced geometry.

	Back-transformation to cartesian coordinates to adjust frozen coordinates...
	Successfully converged to displaced geometry.

	--- Internal Coordinate Step in ANG or DEG, aJ/ANG or AJ/DEG ---
	 ---------------------------------------------------------------------------
	   Coordinate                Previous        Force       Change         New 
	   ----------                --------       ------       ------       ------
	    1 R(1,2)          =      0.946527     0.000000     0.000000     0.946527
	    2 R(2,3)          =      1.404490    -0.000007    -0.000001     1.404489
	    3 R(3,4)          =      1.518412    -0.000006    -0.000001     1.518410
	    4 R(3,5)          =      1.089155    -0.000010    -0.000002     1.089153
	    5 R(3,6)          =      1.089243     0.000013     0.000003     1.089246
	    6 R(4,7)          =      1.529697     0.000039     0.000008     1.529705
	    7 R(4,8)          =      1.086815     0.000048     0.000009     1.086823
	    8 R(4,9)          =      1.086318    -0.000042    -0.000007     1.086310
	    9 R(7,10)         =      1.532321    -0.000014     0.000004     1.532325
	   10 R(7,11)         =      1.087241    -0.000055    -0.000009     1.087232
	   11 R(7,12)         =      1.089434     0.000067     0.000012     1.089446
	   12 R(10,13)        =      1.532983     0.000105     0.000022     1.533006
	   13 R(10,14)        =      1.088629     0.000085     0.000014     1.088644
	   14 R(10,15)        =      1.087434    -0.000051    -0.000008     1.087427
	   15 R(13,16)        =      1.529682    -0.000017    -0.000004     1.529678
	   16 R(13,17)        =      1.087290    -0.000024    -0.000004     1.087286
	   17 R(13,18)        =      1.088159     0.000020     0.000003     1.088162
	   18 R(16,19)        =      1.086816     0.000003     0.000001     1.086817
	   19 R(16,20)        =      1.085137    -0.000005    -0.000002     1.085135
	   20 R(16,21)        =      1.085686    -0.000006    -0.000001     1.085685
	   21 B(1,2,3)        =    109.651003    -0.000000    -0.000123   109.650880
	   22 B(2,3,4)        =    108.207151    -0.000000    -0.000039   108.207112
	   23 B(2,3,5)        =    110.595233    -0.000000    -0.000643   110.594590
	   24 B(2,3,6)        =    110.595413     0.000000     0.000533   110.595946
	   25 B(3,4,7)        =    112.913189    -0.000000    -0.000255   112.912934
	   26 B(3,4,8)        =    108.336254     0.000000     0.001092   108.337345
	   27 B(3,4,9)        =    108.368490    -0.000000    -0.001797   108.366693
	   28 B(4,3,5)        =    110.024671    -0.000000    -0.000691   110.023979
	   29 B(4,3,6)        =    110.007804     0.000000     0.000746   110.008551
	   30 B(4,7,10)       =    112.638929     0.000000     0.000307   112.639235
	   31 B(4,7,11)       =    109.542220     0.000000     0.002208   109.544428
	   32 B(4,7,12)       =    109.116157    -0.000000    -0.001193   109.114964
	   33 B(5,3,6)        =    107.416354     0.000000     0.000096   107.416450
	   34 B(7,4,8)        =    110.261649     0.000000     0.002751   110.264400
	   35 B(7,4,9)        =    110.055626    -0.000000    -0.001508   110.054119
	   36 B(7,10,13)      =    114.435278    -0.000000    -0.000204   114.435074
	   37 B(7,10,14)      =    109.182353     0.000000     0.003035   109.185388
	   38 B(7,10,15)      =    109.004583    -0.000001    -0.004283   109.000300
	   39 B(8,4,9)        =    106.688118    -0.000000    -0.000322   106.687796
	   40 B(10,7,11)      =    109.874627    -0.000001    -0.004856   109.869771
	   41 B(10,7,12)      =    109.133886     0.000000     0.003810   109.137696
	   42 B(10,13,16)     =    114.414654    -0.000000     0.000906   114.415560
	   43 B(10,13,17)     =    108.495638     0.000000    -0.000988   108.494650
	   44 B(10,13,18)     =    109.274277     0.000000     0.004147   109.278424
	   45 B(11,7,12)      =    106.333753     0.000000    -0.000279   106.333474
	   46 B(13,10,14)     =    108.762859    -0.000000    -0.000269   108.762590
	   47 B(13,10,15)     =    108.572058     0.000000    -0.001995   108.570063
	   48 B(13,16,19)     =    111.051756    -0.000000    -0.000123   111.051633
	   49 B(13,16,20)     =    111.914363    -0.000000    -0.000761   111.913602
	   50 B(13,16,21)     =    110.839452     0.000000     0.000204   110.839656
	   51 B(14,10,15)     =    106.595175     0.000000     0.004038   106.599212
	   52 B(16,13,17)     =    108.776350    -0.000000    -0.002555   108.773796
	   53 B(16,13,18)     =    109.369604    -0.000000    -0.000379   109.369225
	   54 B(17,13,18)     =    106.185191    -0.000000    -0.001354   106.183837
	   55 B(19,16,20)     =    107.742249     0.000000     0.000551   107.742800
	   56 B(19,16,21)     =    107.665270    -0.000000    -0.000118   107.665152
	   57 B(20,16,21)     =    107.437140     0.000000     0.000290   107.437430
	   58 D(1,2,3,4)      =   -179.995695     0.000000    -0.001004  -179.996699
	   59 D(1,2,3,5)      =    -59.419357    -0.000000    -0.002265   -59.421623
	   60 D(1,2,3,6)      =     59.448556    -0.000000    -0.002217    59.446340
	   61 D(2,3,4,7)      =   -179.498494     0.000000     0.009859  -179.488635
	   62 D(2,3,4,8)      =     58.078102    -0.000000     0.005755    58.083856
	   63 D(2,3,4,9)      =    -57.313938    -0.000000     0.006503   -57.307435
	   64 D(3,4,7,10)     =   -178.471774     0.000000     0.022763  -178.449011
	   65 D(3,4,7,11)     =    -55.863427    -0.000000     0.018335   -55.845092
	   66 D(3,4,7,12)     =     60.167930    -0.000000     0.018561    60.186491
	   67 D(4,7,10,13)    =   -167.850163     0.000000     0.001801  -167.848362
	   68 *D(4,7,10,14)   =     70.000008     0.000000    -0.000000    70.000008
	   69 D(4,7,10,15)    =    -46.081572    -0.000000    -0.004124   -46.085696
	   70 D(5,3,4,7)      =     59.570275     0.000000     0.011086    59.581360
	   71 D(5,3,4,8)      =    -62.853130    -0.000000     0.006981   -62.846149
	   72 D(5,3,4,9)      =   -178.245170     0.000000     0.007730  -178.237440
	   73 D(6,3,4,7)      =    -58.577191     0.000000     0.010934   -58.566256
	   74 D(6,3,4,8)      =    178.999405    -0.000000     0.006830   179.006235
	   75 D(6,3,4,9)      =     63.607365     0.000000     0.007579    63.614944
	   76 D(7,10,13,16)   =    -63.866564    -0.000000     0.006971   -63.859593
	   77 D(7,10,13,17)   =    174.493409    -0.000000     0.010382   174.503790
	   78 D(7,10,13,18)   =     59.130319    -0.000000     0.010305    59.140625
	   79 D(8,4,7,10)     =    -57.132410     0.000000     0.025970   -57.106440
	   80 D(8,4,7,11)     =     65.475936    -0.000000     0.021543    65.497479
	   81 D(8,4,7,12)     =   -178.492707    -0.000000     0.021769  -178.470937
	   82 D(9,4,7,10)     =     60.295319     0.000000     0.026321    60.321640
	   83 D(9,4,7,11)     =   -177.096335    -0.000000     0.021894  -177.074441
	   84 D(9,4,7,12)     =    -61.064978     0.000000     0.022120   -61.042857
	   85 D(10,13,16,19)  =    -56.318092     0.000000    -0.015612   -56.333703
	   86 D(10,13,16,20)  =     64.132967     0.000000    -0.015514    64.117453
	   87 D(10,13,16,21)  =   -175.950375     0.000000    -0.015517  -175.965893
	   88 D(11,7,10,13)   =     69.728292     0.000000     0.002262    69.730554
	   89 D(11,7,10,14)   =    -52.421536    -0.000000     0.000461   -52.421075
	   90 D(11,7,10,15)   =   -168.503116    -0.000000    -0.003663  -168.506779
	   91 D(12,7,10,13)   =    -46.499957     0.000000     0.003155   -46.496801
	   92 D(12,7,10,14)   =   -168.649785     0.000000     0.001354  -168.648431
	   93 D(12,7,10,15)   =     75.268635    -0.000000    -0.002770    75.265865
	   94 D(14,10,13,16)  =     58.511715     0.000000     0.010565    58.522280
	   95 D(14,10,13,17)  =    -63.128313     0.000000     0.013976   -63.114337
	   96 D(14,10,13,18)  =   -178.491402     0.000000     0.013900  -178.477503
	   97 D(15,10,13,16)  =    174.128324     0.000000     0.014130   174.142454
	   98 D(15,10,13,17)  =     52.488296     0.000000     0.017541    52.505837
	   99 D(15,10,13,18)  =    -62.874793     0.000000     0.017464   -62.857329
	  100 D(17,13,16,19)  =     65.167835     0.000000    -0.018165    65.149670
	  101 D(17,13,16,20)  =   -174.381107     0.000000    -0.018067  -174.399174
	  102 D(17,13,16,21)  =    -54.464449     0.000000    -0.018070   -54.482519
	  103 D(18,13,16,19)  =   -179.263449    -0.000000    -0.021396  -179.284845
	  104 D(18,13,16,20)  =    -58.812391    -0.000000    -0.021299   -58.833689
	  105 D(18,13,16,21)  =     61.104267    -0.000000    -0.021301    61.082966
	 ---------------------------------------------------------------------------

  ==> Convergence Check <==

  Measures of convergence in internal coordinates in au.
  Criteria marked as inactive (o), active & met (*), and active & unmet ( ).
  ---------------------------------------------------------------------------------------------
   Step     Total Energy     Delta E     MAX Force     RMS Force      MAX Disp      RMS Disp   
  ---------------------------------------------------------------------------------------------
    Convergence Criteria    1.00e-06 *    3.00e-04 *             o    1.20e-03 *             o
  ---------------------------------------------------------------------------------------------
      6    -310.21258175   -3.22e-07 *    1.27e-05 *    3.17e-06 o    4.59e-04 *    1.70e-04 o  ~
  ---------------------------------------------------------------------------------------------


  **** Optimization is complete! (in 6 steps) ****

  ==> Optimization Summary <==

  Measures of convergence in internal coordinates in au.
  --------------------------------------------------------------------------------------------------------------- ~
   Step         Total Energy             Delta E       MAX Force       RMS Force        MAX Disp        RMS Disp  ~
  --------------------------------------------------------------------------------------------------------------- ~
      1    -310.212519035445   -310.212519035445      0.00092364      0.00024399      0.14567935      0.04271976  ~
      2    -310.212350126198      0.000168909247      0.00181884      0.00040378      0.10703559      0.03143544  ~
      3    -310.212574274952     -0.000224148754      0.00045816      0.00007479      0.03240668      0.00949660  ~
      4    -310.212578952345     -0.000004677394      0.00010063      0.00003040      0.01421500      0.00428813  ~
      5    -310.212581426204     -0.000002473858      0.00012708      0.00002152      0.00242996      0.00086491  ~
      6    -310.212581747738     -0.000000321534      0.00001270      0.00000317      0.00045939      0.00017007  ~
  --------------------------------------------------------------------------------------------------------------- ~

	Writing optimization data to binary file.
	Final energy is   -310.2125817477378
	Final (previous) structure:
	Cartesian Geometry (in Angstrom)
	    H    -4.2408706655   0.4225234369   0.3043323019
	    O    -3.5241245337  -0.1497449369   0.0704571230
	    C    -2.3027529359   0.5020050854   0.3072393464
	    C    -1.1783045949  -0.4428049652  -0.0781480645
	    H    -2.2374413768   1.4179895689  -0.2783922924
	    H    -2.2134744537   0.7790558468   1.3568693472
	    C     0.2095354609   0.1587665962   0.1498539261
	    H    -1.3034791013  -0.7151366300  -1.1228167911
	    H    -1.2871052960  -1.3573979511   0.4978455698
	    C     1.3388415472  -0.7853756537  -0.2759047766
	    H     0.2912113400   1.0994309997  -0.3891944098
	    H     0.3247576781   0.3998664616   1.2060079180
	    C     2.7335946601  -0.3593168190   0.1965096568
	    H     1.3466182218  -0.8670907963  -1.3614351651
	    H     1.1319657732  -1.7811344600   0.1090368249
	    C     3.2205726662   0.9682718897  -0.3868312738
	    H     3.4417240196  -1.1398389493  -0.0709565689
	    H     2.7425451764  -0.3010051479   1.2830678492
	    H     3.2102457112   0.9444750406  -1.4733375052
	    H     2.6026100030   1.8014987360  -0.0684332507
	    H     4.2379522888   1.1786419677  -0.0715573740
	Saving final (previous) structure.
			--------------------------
			 OPTKING Finished Execution 
			--------------------------

    Final optimized geometry and variables:
    Molecular point group: c1
    Full point group: C1

    Geometry (in Angstrom), charge = 0, multiplicity = 1:

    H           -4.240870341624     0.422523404597     0.304332278703
    O           -3.524124264590    -0.149744925484     0.070457117626
    C           -2.302752760101     0.502005047056     0.307239322891
    C           -1.178304504937    -0.442804931356    -0.078148058536
    H           -2.237441205907     1.417989460645    -0.278392271186
    H           -2.213474284680     0.779055787282     1.356869243535
    C            0.209535444925     0.158766584027     0.149853914637
    H           -1.303479001729    -0.715136575433    -1.122816705330
    H           -1.287105197731    -1.357397847419     0.497845531831
    C            1.338841445003    -0.785375593727    -0.275904755485
    H            0.291211317789     1.099430915744    -0.389194380113
    H            0.324757653324     0.399866431097     1.206007825925
    C            2.733594451375    -0.359316791583     0.196509641750
    H            1.346618119008    -0.867090730045    -1.361435061128
    H            1.131965686741    -1.781134323942     0.109036816604
    C            3.220572420314     0.968271815776    -0.386831244286
    H            3.441723756815    -1.139838862290    -0.070956563456
    H            2.742544966986    -0.301005124943     1.283067751199
    H            3.210245466051     0.944474968522    -1.473337392706
    H            2.602609804213     1.801498598463    -0.068433245517
    H            4.237951965186     1.178641877689    -0.071557368556

	Cleaning optimization helper files.


Properties will be evaluated at   0.000000,   0.000000,   0.000000 Bohr

Properties computed using the  density matrix

  Nuclear Dipole Moment: (a.u.)
     X:     7.5271      Y:     1.7635      Z:    -0.0737

  Electronic Dipole Moment: (a.u.)
     X:    -7.4432      Y:    -1.1773      Z:     0.3139

  Dipole Moment: (a.u.)
     X:     0.0839      Y:     0.5861      Z:     0.2403     Total:     0.6390

  Dipole Moment: (Debye)
     X:     0.2133      Y:     1.4898      Z:     0.6107     Total:     1.6242

  Quadrupole Moment: (Debye Ang)
    XX:   -45.7249     YY:   -46.8595     ZZ:   -46.4564
    XY:    -6.5947     XZ:    -2.4580     YZ:     0.3033

  Traceless Quadrupole Moment: (Debye Ang)
    XX:     0.6221     YY:    -0.5125     ZZ:    -0.1095
    XY:    -6.5947     XZ:    -2.4580     YZ:     0.3033

  Mulliken Charges: (a.u.)
   Center  Symbol    Alpha    Beta     Spin     Total
       1     H     0.28118  0.28118  0.00000  0.43765
       2     O     4.37178  4.37178  0.00000 -0.74356
       3     C     2.98980  2.98980  0.00000  0.02040
       4     C     3.15917  3.15917  0.00000 -0.31833
       5     H     0.43290  0.43290  0.00000  0.13420
       6     H     0.43292  0.43292  0.00000  0.13416
       7     C     3.16213  3.16213  0.00000 -0.32426
       8     H     0.41488  0.41488  0.00000  0.17024
       9     H     0.41463  0.41463  0.00000  0.17075
      10     C     3.15176  3.15176  0.00000 -0.30351
      11     H     0.42125  0.42125  0.00000  0.15751
      12     H     0.42416  0.42416  0.00000  0.15168
      13     C     3.15262  3.15262  0.00000 -0.30523
      14     H     0.42285  0.42285  0.00000  0.15430
      15     H     0.42049  0.42049  0.00000  0.15903
      16     C     3.24138  3.24138  0.00000 -0.48275
      17     H     0.42084  0.42084  0.00000  0.15832
      18     H     0.42351  0.42351  0.00000  0.15297
      19     H     0.42216  0.42216  0.00000  0.15568
      20     H     0.42039  0.42039  0.00000  0.15921
      21     H     0.41923  0.41923  0.00000  0.16154

   Total alpha = 29.00000, Total beta = 29.00000, Total charge =  0.00000


*** PSI4 exiting successfully. Buy a developer a beer!
