    -----------------------------------------------------------------------
          Psi4: An Open-Source Ab Initio Electronic Structure Package
                              Psi4 1.0.54 Driver

                          Git: Rev {master} 8d4cec3 dirty

    J. M. Turney, A. C. Simmonett, R. M. Parrish, E. G. Hohenstein,
    F. A. Evangelista, J. T. Fermann, B. J. Mintz, L. A. Burns, J. J. Wilke,
    M. L. Abrams, N. J. Russ, M. L. Leininger, C. L. Janssen, E. T. Seidl,
    W. D. Allen, H. F. Schaefer, R. A. King, E. F. Valeev, C. D. Sherrill,
    and T. D. Crawford, WIREs Comput. Mol. Sci. 2, 556-565 (2012)
    (doi: 10.1002/wcms.93)

                         Additional Contributions by
    A. E. DePrince, U. Bozkaya, A. Yu. Sokolov, D. G. A. Smith, R. Di Remigio,
    R. M. Richard, J. F. Gonthier, H. R. McAlexander, M. Saitow, and
    B. P. Pritchard
    -----------------------------------------------------------------------


    Psi4 started on: Sat Sep 10 16:12:15 2016

    Process ID:  30142
    PSI4DATADIR: /export131/home/mjharvey/miniconda3/share/psi4
    Memory level set to 256.000 MB

  ==> Input File <==

--------------------------------------------------------------------------
set {
	reference rhf
	basis cc-pvtz
}


set_num_threads( 4 )
memory 2 gb

molecule MOL {
0 1

H	 -2.126027	 -1.185746	 0.255363
O	 -2.346257	 -0.289210	 0.080372
C	 -1.183935	 0.486039	 -0.009831
C	 0.062853	 -0.375310	 0.027457
H	 -1.178881	 1.094526	 -0.908634
H	 -1.184406	 1.155156	 0.838676
O	 1.172093	 0.457955	 -0.054438
H	 0.052476	 -1.081302	 -0.804627
H	 0.076323	 -0.955658	 0.947560
C	 2.395478	 -0.199028	 -0.000366
H	 2.505946	 -0.901710	 -0.823354
H	 3.174616	 0.545641	 -0.071768
H	 2.513730	 -0.742241	 0.934223

	symmetry c1
}
set optking {
	frozen_dihedral = ("
		1 2 3 5
	")
}

ee,wfn = optimize('scf', return_wfn=True)
oeprop( wfn, 'DIPOLE', 'QUADRUPOLE', 'MULLIKEN_CHARGES')
f=open( 'psi4out.xyz', 'w' )
f.write( "13  " )
f.write( str(ee) + "\n" )
f.write( MOL.save_string_xyz() )
f.close()
--------------------------------------------------------------------------

  Memory set to   2.000 GiB by Python script.
gradient() will perform analytic gradient computation.

*** tstart() called on cx1-27-2-4
*** at Sat Sep 10 16:12:15 2016


         ---------------------------------------------------------
                                   SCF
            by Justin Turney, Rob Parrish, and Andy Simmonett
                              RHF Reference
                        4 Threads,   2000 MiB Core
         ---------------------------------------------------------

  ==> Geometry <==

    Molecular point group: c1
    Full point group: C1

    Geometry (in Angstrom), charge = 0, multiplicity = 1:

       Center              X                  Y                   Z               Mass       
    ------------   -----------------  -----------------  -----------------  -----------------
           H         -2.130969320727    -1.179854427693     0.242316127674     1.007825032070
           O         -2.351199320727    -0.283318427693     0.067325127674    15.994914619560
           C         -1.188877320727     0.491930572307    -0.022877872326    12.000000000000
           C          0.057910679273    -0.369418427693     0.014410127674    12.000000000000
           H         -1.183823320727     1.100417572307    -0.921680872326     1.007825032070
           H         -1.189348320727     1.161047572307     0.825629127674     1.007825032070
           O          1.167150679273     0.463846572307    -0.067484872326    15.994914619560
           H          0.047533679273    -1.075410427693    -0.817673872326     1.007825032070
           H          0.071380679273    -0.949766427693     0.934513127674     1.007825032070
           C          2.390535679273    -0.193136427693    -0.013412872326    12.000000000000
           H          2.501003679273    -0.895818427693    -0.836400872326     1.007825032070
           H          3.169673679273     0.551532572307    -0.084814872326     1.007825032070
           H          2.508787679273    -0.736349427693     0.921176127674     1.007825032070

  Running in c1 symmetry.

  Rotational constants: A =      0.76078  B =      0.07303  C =      0.06920 [cm^-1]
  Rotational constants: A =  22807.50989  B =   2189.52887  C =   2074.48065 [MHz]
  Nuclear repulsion =  190.850946861828930

  Charge       = 0
  Multiplicity = 1
  Electrons    = 42
  Nalpha       = 21
  Nbeta        = 21

  ==> Algorithm <==

  SCF Algorithm Type is DF.
  DIIS enabled.
  MOM disabled.
  Fractional occupation disabled.
  Guess Type is SAD.
  Energy threshold   = 1.00e-08
  Density threshold  = 1.00e-08
  Integral threshold = 0.00e+00

  ==> Primary Basis <==

  Basis Set: CC-PVTZ
    Number of shells: 98
    Number of basis function: 262
    Number of Cartesian functions: 295
    Spherical Harmonics?: true
    Max angular momentum: 3

  ==> Pre-Iterations <==

   -------------------------------------------------------
    Irrep   Nso     Nmo     Nalpha   Nbeta   Ndocc  Nsocc
   -------------------------------------------------------
     A        262     262       0       0       0       0
   -------------------------------------------------------
    Total     262     262      21      21      21       0
   -------------------------------------------------------

  ==> Integral Setup <==

  ==> DFJK: Density-Fitted J/K Matrices <==

    J tasked:                  Yes
    K tasked:                  Yes
    wK tasked:                  No
    OpenMP threads:              4
    Integrals threads:           4
    Memory (MB):              1430
    Algorithm:                Core
    Integral Cache:           NONE
    Schwarz Cutoff:          1E-12
    Fitting Condition:       1E-12

   => Auxiliary Basis Set <=

  Basis Set: 
    Number of shells: 205
    Number of basis function: 635
    Number of Cartesian functions: 760
    Spherical Harmonics?: true
    Max angular momentum: 4

  Minimum eigenvalue in the overlap matrix is 6.3148165666E-04.
  Using Symmetric Orthogonalization.
  SCF Guess: Superposition of Atomic Densities via on-the-fly atomic UHF.

  ==> Iterations <==

                           Total Energy        Delta E     RMS |[F,P]|

   @DF-RHF iter   0:  -269.87457738684100   -2.69875e+02   1.66177e-02 
   @DF-RHF iter   1:  -267.94837164440776    1.92621e+00   1.51682e-03 
   @DF-RHF iter   2:  -268.04344323746511   -9.50716e-02   5.85058e-04 DIIS
   @DF-RHF iter   3:  -268.05527088958218   -1.18277e-02   2.32514e-04 DIIS
   @DF-RHF iter   4:  -268.05790886798275   -2.63798e-03   6.99022e-05 DIIS
   @DF-RHF iter   5:  -268.05817786548437   -2.68998e-04   2.23343e-05 DIIS
   @DF-RHF iter   6:  -268.05821210783154   -3.42423e-05   5.66778e-06 DIIS
   @DF-RHF iter   7:  -268.05821429568323   -2.18785e-06   1.33965e-06 DIIS
   @DF-RHF iter   8:  -268.05821442388788   -1.28205e-07   4.31310e-07 DIIS
   @DF-RHF iter   9:  -268.05821443584705   -1.19592e-08   1.19970e-07 DIIS
   @DF-RHF iter  10:  -268.05821443688637   -1.03933e-09   3.94993e-08 DIIS
   @DF-RHF iter  11:  -268.05821443697357   -8.71978e-11   1.37775e-08 DIIS
   @DF-RHF iter  12:  -268.05821443698449   -1.09139e-11   3.39973e-09 DIIS

  ==> Post-Iterations <==

    Orbital Energies (a.u.)
    -----------------------

    Doubly Occupied:                                                      

       1A    -20.561599     2A    -20.550593     3A    -11.278682  
       4A    -11.271684     5A    -11.266858     6A     -1.397097  
       7A     -1.368839     8A     -1.022606     9A     -0.916079  
      10A     -0.853616    11A     -0.694957    12A     -0.691147  
      13A     -0.672645    14A     -0.626506    15A     -0.611993  
      16A     -0.582167    17A     -0.547026    18A     -0.499815  
      19A     -0.474097    20A     -0.442650    21A     -0.430380  

    Virtual:                                                              

      22A      0.137266    23A      0.154386    24A      0.180118  
      25A      0.189485    26A      0.197891    27A      0.222813  
      28A      0.234105    29A      0.259102    30A      0.277595  
      31A      0.323963    32A      0.334285    33A      0.375990  
      34A      0.387451    35A      0.413552    36A      0.450240  
      37A      0.496656    38A      0.502972    39A      0.519347  
      40A      0.567033    41A      0.580760    42A      0.583134  
      43A      0.592991    44A      0.621665    45A      0.638511  
      46A      0.639685    47A      0.644994    48A      0.659147  
      49A      0.667281    50A      0.679592    51A      0.695109  
      52A      0.699459    53A      0.767074    54A      0.787655  
      55A      0.818679    56A      0.833213    57A      0.846119  
      58A      0.888278    59A      0.897642    60A      0.921223  
      61A      0.933904    62A      0.971106    63A      0.978163  
      64A      1.035714    65A      1.079668    66A      1.082945  
      67A      1.133187    68A      1.167397    69A      1.177539  
      70A      1.209580    71A      1.214977    72A      1.217942  
      73A      1.242664    74A      1.265010    75A      1.273841  
      76A      1.293509    77A      1.308742    78A      1.349149  
      79A      1.356577    80A      1.378388    81A      1.406425  
      82A      1.415840    83A      1.456081    84A      1.474437  
      85A      1.483155    86A      1.497858    87A      1.499927  
      88A      1.526686    89A      1.549878    90A      1.564312  
      91A      1.590276    92A      1.615811    93A      1.625241  
      94A      1.666813    95A      1.697975    96A      1.726591  
      97A      1.778478    98A      1.878950    99A      1.889103  
     100A      2.033086   101A      2.101246   102A      2.200472  
     103A      2.216288   104A      2.231738   105A      2.295130  
     106A      2.311394   107A      2.325728   108A      2.331803  
     109A      2.455340   110A      2.487774   111A      2.496363  
     112A      2.536942   113A      2.610098   114A      2.632356  
     115A      2.687245   116A      2.746505   117A      2.764108  
     118A      2.797132   119A      2.831144   120A      2.918593  
     121A      2.923750   122A      2.974140   123A      3.010622  
     124A      3.048967   125A      3.056690   126A      3.099327  
     127A      3.121663   128A      3.124574   129A      3.153550  
     130A      3.162957   131A      3.197203   132A      3.234474  
     133A      3.240191   134A      3.273182   135A      3.297663  
     136A      3.304136   137A      3.306489   138A      3.342123  
     139A      3.370005   140A      3.381111   141A      3.413439  
     142A      3.418661   143A      3.431366   144A      3.451668  
     145A      3.483496   146A      3.509362   147A      3.515948  
     148A      3.544440   149A      3.605677   150A      3.622121  
     151A      3.634418   152A      3.654084   153A      3.679717  
     154A      3.697232   155A      3.740959   156A      3.757659  
     157A      3.771059   158A      3.781938   159A      3.804062  
     160A      3.819094   161A      3.840328   162A      3.849971  
     163A      3.897733   164A      3.924237   165A      3.937576  
     166A      3.940092   167A      3.990509   168A      4.034852  
     169A      4.064129   170A      4.077814   171A      4.097232  
     172A      4.120180   173A      4.143353   174A      4.163770  
     175A      4.173292   176A      4.203832   177A      4.210473  
     178A      4.245588   179A      4.263687   180A      4.293604  
     181A      4.308411   182A      4.331996   183A      4.341245  
     184A      4.363677   185A      4.393867   186A      4.404695  
     187A      4.439956   188A      4.474149   189A      4.503417  
     190A      4.530872   191A      4.562879   192A      4.581352  
     193A      4.599914   194A      4.618037   195A      4.630945  
     196A      4.640975   197A      4.695103   198A      4.779846  
     199A      4.808114   200A      4.879452   201A      4.934697  
     202A      4.951158   203A      4.981031   204A      5.007271  
     205A      5.070738   206A      5.083363   207A      5.149919  
     208A      5.181884   209A      5.214431   210A      5.240614  
     211A      5.243788   212A      5.315514   213A      5.358642  
     214A      5.396596   215A      5.399285   216A      5.419020  
     217A      5.444294   218A      5.467405   219A      5.496804  
     220A      5.519400   221A      5.596616   222A      5.599928  
     223A      5.651738   224A      5.711635   225A      5.748268  
     226A      5.830299   227A      5.834004   228A      5.909631  
     229A      5.922734   230A      5.959337   231A      6.102001  
     232A      6.124975   233A      6.162276   234A      6.193232  
     235A      6.244295   236A      6.245560   237A      6.319976  
     238A      6.439037   239A      6.548866   240A      6.638966  
     241A      6.690699   242A      6.725502   243A      6.879654  
     244A      6.971501   245A      7.081460   246A      7.179706  
     247A      7.252608   248A      7.266109   249A      7.317961  
     250A      7.360197   251A      7.433144   252A      7.548978  
     253A      7.573844   254A      7.706220   255A      7.876128  
     256A      7.893939   257A      8.006182   258A     11.325494  
     259A     12.627252   260A     13.281318   261A     13.801653  
     262A     14.207058  

    Final Occupation by Irrep:
              A 
    DOCC [    21 ]

  Energy converged.

  @DF-RHF Final Energy:  -268.05821443698449

   => Energetics <=

    Nuclear Repulsion Energy =            190.8509468618289304
    One-Electron Energy =                -744.2962506112925212
    Two-Electron Energy =                 285.3870893124791337
    DFT Exchange-Correlation Energy =       0.0000000000000000
    Empirical Dispersion Energy =           0.0000000000000000
    PCM Polarization Energy =               0.0000000000000000
    EFP Energy =                            0.0000000000000000
    Total Energy =                       -268.0582144369844855


  Saving occupied orbitals to File 180.

*** tstop() called on cx1-27-2-4 at Sat Sep 10 16:12:19 2016
Module time:
	user time   =      14.01 seconds =       0.23 minutes
	system time =       0.40 seconds =       0.01 minutes
	total time  =          4 seconds =       0.07 minutes
Total time:
	user time   =      14.01 seconds =       0.23 minutes
	system time =       0.40 seconds =       0.01 minutes
	total time  =          4 seconds =       0.07 minutes


Properties will be evaluated at   0.000000,   0.000000,   0.000000 Bohr

Properties computed using the SCF density matrix

  Nuclear Dipole Moment: (a.u.)
     X:     3.5513      Y:    -1.8968      Z:     0.2466

  Electronic Dipole Moment: (a.u.)
     X:    -2.8000      Y:     1.1639      Z:    -0.1346

  Dipole Moment: (a.u.)
     X:     0.7513      Y:    -0.7329      Z:     0.1120     Total:     1.0555

  Dipole Moment: (Debye)
     X:     1.9096      Y:    -1.8628      Z:     0.2846     Total:     2.6828


*** tstart() called on cx1-27-2-4
*** at Sat Sep 10 16:12:19 2016


         ------------------------------------------------------------
                                   SCF GRAD                          
                          Rob Parrish, Justin Turney,                
                       Andy Simmonett, and Alex Sokolov              
         ------------------------------------------------------------

  ==> Geometry <==

    Molecular point group: c1
    Full point group: C1

    Geometry (in Angstrom), charge = 0, multiplicity = 1:

       Center              X                  Y                   Z               Mass       
    ------------   -----------------  -----------------  -----------------  -----------------
           H         -2.130969320727    -1.179854427693     0.242316127674     1.007825032070
           O         -2.351199320727    -0.283318427693     0.067325127674    15.994914619560
           C         -1.188877320727     0.491930572307    -0.022877872326    12.000000000000
           C          0.057910679273    -0.369418427693     0.014410127674    12.000000000000
           H         -1.183823320727     1.100417572307    -0.921680872326     1.007825032070
           H         -1.189348320727     1.161047572307     0.825629127674     1.007825032070
           O          1.167150679273     0.463846572307    -0.067484872326    15.994914619560
           H          0.047533679273    -1.075410427693    -0.817673872326     1.007825032070
           H          0.071380679273    -0.949766427693     0.934513127674     1.007825032070
           C          2.390535679273    -0.193136427693    -0.013412872326    12.000000000000
           H          2.501003679273    -0.895818427693    -0.836400872326     1.007825032070
           H          3.169673679273     0.551532572307    -0.084814872326     1.007825032070
           H          2.508787679273    -0.736349427693     0.921176127674     1.007825032070

  Nuclear repulsion =  190.850946861828930

  ==> Basis Set <==

  Basis Set: CC-PVTZ
    Number of shells: 98
    Number of basis function: 262
    Number of Cartesian functions: 295
    Spherical Harmonics?: true
    Max angular momentum: 3

  ==> DFJKGrad: Density-Fitted SCF Gradients <==

    Gradient:                    1
    J tasked:                  Yes
    K tasked:                  Yes
    wK tasked:                  No
    OpenMP threads:              4
    Integrals threads:           4
    Memory (MB):              1430
    Schwarz Cutoff:          0E+00
    Fitting Condition:       1E-12

   => Auxiliary Basis Set <=

  Basis Set: 
    Number of shells: 205
    Number of basis function: 635
    Number of Cartesian functions: 760
    Spherical Harmonics?: true
    Max angular momentum: 4


  -Total Gradient:
     Atom            X                  Y                   Z
    ------   -----------------  -----------------  -----------------
       1        0.002213852989    -0.000503950174     0.000090488176
       2        0.001867101779     0.003101952514     0.007271503616
       3       -0.001721966421    -0.000774400278    -0.008201789543
       4       -0.001603711310    -0.004273462583     0.004397668266
       5        0.003852527457     0.004395796666     0.000131350533
       6       -0.004918238430    -0.003892941472    -0.000328502228
       7        0.001538950478     0.001727828265    -0.001297812665
       8        0.000376696977    -0.000514781498    -0.000040800857
       9       -0.001085573123     0.000384802194    -0.002160004967
      10       -0.000670807917     0.000472076811     0.000316042423
      11        0.000011226479    -0.000104646200    -0.000036703251
      12        0.000201160306     0.000042595193    -0.000033954750
      13       -0.000061219266    -0.000060869440    -0.000107484753


*** tstop() called on cx1-27-2-4 at Sat Sep 10 16:12:24 2016
Module time:
	user time   =      15.18 seconds =       0.25 minutes
	system time =       0.36 seconds =       0.01 minutes
	total time  =          5 seconds =       0.08 minutes
Total time:
	user time   =      29.25 seconds =       0.49 minutes
	system time =       0.77 seconds =       0.01 minutes
	total time  =          9 seconds =       0.15 minutes

			-----------------------------------------
			 OPTKING 2.0: for geometry optimizations 
			  - R.A. King,  Bethel University        
			-----------------------------------------

	Internal coordinates to be generated automatically.
	Detected frag 1 with atoms:  1 2 3 4 5 6 7 8 9 10 11 12 13
	---Fragment 1 Bond Connectivity---
	 1 : 2
	 2 : 1 3
	 3 : 2 4 5 6
	 4 : 3 7 8 9
	 5 : 3
	 6 : 3
	 7 : 4 10
	 8 : 4
	 9 : 4
	 10 : 7 11 12 13
	 11 : 10
	 12 : 10
	 13 : 10

	Assuming in current code that numbering for constraints corresponds to unified fragment.
	Frozen dihedral atom list: 
	     1     2     3     5
	---Fragment 1 Geometry and Gradient---
	 H          -4.0269484138       -2.2296017450        0.4579111189
	 O          -4.4431228000       -0.5353942367        0.1272260532
	 C          -2.2466525418        0.9296140581       -0.0432329132
	 C           0.1094353240       -0.6980996568        0.0272311948
	 H          -2.2371018659        2.0794878435       -1.7417244306
	 H          -2.2475426028        2.1940619389        1.5602129386
	 O           2.2055951396        0.8765429893       -0.1275279268
	 H           0.0898256359       -2.0322311888       -1.5451796847
	 H           0.1348899350       -1.7947984385        1.7659738789
	 C           4.5174577447       -0.3649749546       -0.0253466554
	 H           4.7262120112       -1.6928514931       -1.5805685860
	 H           5.9898151844        1.0422455150       -0.1602768807
	 H           4.7409216394       -1.3914987564        1.7407706015
	             0.0022138530       -0.0005039502        0.0000904882
	             0.0018671018        0.0031019525        0.0072715036
	            -0.0017219664       -0.0007744003       -0.0082017895
	            -0.0016037113       -0.0042734626        0.0043976683
	             0.0038525275        0.0043957967        0.0001313505
	            -0.0049182384       -0.0038929415       -0.0003285022
	             0.0015389505        0.0017278283       -0.0012978127
	             0.0003766970       -0.0005147815       -0.0000408009
	            -0.0010855731        0.0003848022       -0.0021600050
	            -0.0006708079        0.0004720768        0.0003160424
	             0.0000112265       -0.0001046462       -0.0000367033
	             0.0002011603        0.0000425952       -0.0000339548
	            -0.0000612193       -0.0000608694       -0.0001074848

	Previous optimization step data not found.  Starting new optimization.

	---Fragment 1 Intrafragment Coordinates---
	 - Coordinate -           - BOHR/RAD -       - ANG/DEG -
	 R(1,2)           =         1.775639	       0.939628
	 R(2,3)           =         2.645711	       1.400050
	 R(3,4)           =         2.864536	       1.515847
	 R(3,5)           =         2.051140	       1.085416
	 R(3,6)           =         2.042025	       1.080593
	 R(4,7)           =         2.626278	       1.389766
	 R(4,8)           =         2.062224	       1.091282
	 R(4,9)           =         2.055875	       1.087922
	 R(7,10)          =         2.626122	       1.389684
	 R(10,11)         =         2.055614	       1.087784
	 R(10,12)         =         2.041155	       1.080132
	 R(10,13)         =         2.054959	       1.087438
	 B(1,2,3)         =         1.923836	     110.227688
	 B(2,3,4)         =         1.946161	     111.506792
	 B(2,3,5)         =         1.947265	     111.570086
	 B(2,3,6)         =         1.867034	     106.973163
	 B(3,4,7)         =         1.890552	     108.320679
	 B(3,4,8)         =         1.918811	     109.939763
	 B(3,4,9)         =         1.911455	     109.518295
	 B(4,3,5)         =         1.912498	     109.578043
	 B(4,3,6)         =         1.910171	     109.444754
	 B(4,7,10)        =         2.000820	     114.638517
	 B(5,3,6)         =         1.878731	     107.643376
	 B(7,4,8)         =         1.928949	     110.520633
	 B(7,4,9)         =         1.938844	     111.087574
	 B(7,10,11)       =         1.944808	     111.429268
	 B(7,10,12)       =         1.882324	     107.849249
	 B(7,10,13)       =         1.944783	     111.427887
	 B(8,4,9)         =         1.875359	     107.450155
	 B(11,10,12)      =         1.898726	     108.788991
	 B(11,10,13)      =         1.892833	     108.451363
	 B(12,10,13)      =         1.899444	     108.830148
	 D(1,2,3,4)       =         0.124047	       7.107375
	*D(1,2,3,5)       =         2.268928	     130.000006
	 D(1,2,3,6)       =        -1.963867	    -112.521285
	 D(2,3,4,7)       =        -3.132841	    -179.498577
	 D(2,3,4,8)       =         1.040949	      59.642003
	 D(2,3,4,9)       =        -1.015794	     -58.200713
	 D(3,4,7,10)      =         3.117099	     178.596619
	 D(4,7,10,11)     =         1.059539	      60.707136
	 D(4,7,10,12)     =        -3.140891	    -179.959822
	 D(4,7,10,13)     =        -1.057271	     -60.577150
	 D(5,3,4,7)       =         0.985714	      56.477232
	 D(5,3,4,8)       =        -1.123681	     -64.382187
	 D(5,3,4,9)       =         3.102761	     177.775097
	 D(6,3,4,7)       =        -1.070644	     -61.343385
	 D(6,3,4,8)       =         3.103146	     177.797195
	 D(6,3,4,9)       =         1.046403	      59.954479
	 D(8,4,7,10)      =        -1.062989	     -60.904793
	 D(9,4,7,10)      =         1.017044	      58.272305

	Current energy   :      -268.0582144370

	Generating empirical Hessian (Schlegel '84) for each fragment.
	Taking RFO optimization step.
	Going to follow RFO solution 1.
	Using RFO vector 1.
	Norm of target step-size    0.18429
	Projected energy change by RFO approximation:        -0.0022420354

	Back-transformation to cartesian coordinates...
	Successfully converged to displaced geometry.

	Back-transformation to cartesian coordinates to adjust frozen coordinates...
	Successfully converged to displaced geometry.

	--- Internal Coordinate Step in ANG or DEG, aJ/ANG or AJ/DEG ---
	 ---------------------------------------------------------------------------
	   Coordinate                Previous        Force       Change         New 
	   ----------                --------       ------       ------       ------
	    1 R(1,2)          =      0.939628    -0.008375    -0.000892     0.938735
	    2 R(2,3)          =      1.400050     0.035857     0.005026     1.405076
	    3 R(3,4)          =      1.515847    -0.002338    -0.000485     1.515363
	    4 R(3,5)          =      1.085416    -0.019554    -0.003532     1.081884
	    5 R(3,6)          =      1.080593     0.021967     0.003905     1.084499
	    6 R(4,7)          =      1.389766    -0.017526    -0.002366     1.387400
	    7 R(4,8)          =      1.091282    -0.002971    -0.000547     1.090735
	    8 R(4,9)          =      1.087922     0.016852     0.003070     1.090992
	    9 R(7,10)         =      1.389684     0.005085     0.000686     1.390370
	   10 R(10,11)        =      1.087784    -0.000795    -0.000145     1.087639
	   11 R(10,12)        =      1.080132    -0.001456    -0.000258     1.079874
	   12 R(10,13)        =      1.087438     0.000565     0.000103     1.087540
	   13 B(1,2,3)        =    110.227688     0.000274     1.272086   111.499775
	   14 B(2,3,4)        =    111.506792     0.000296     0.926075   112.432868
	   15 B(2,3,5)        =    111.570086    -0.000474    -4.006662   107.563424
	   16 B(2,3,6)        =    106.973163     0.000330     4.044169   111.017331
	   17 B(3,4,7)        =    108.320679     0.000133     0.467072   108.787751
	   18 B(3,4,8)        =    109.939763    -0.000077    -0.249380   109.690382
	   19 B(3,4,9)        =    109.518295     0.000026     0.152435   109.670729
	   20 B(4,3,5)        =    109.578043     0.000049    -1.058214   108.519828
	   21 B(4,3,6)        =    109.444754    -0.000256    -0.152544   109.292210
	   22 B(4,7,10)       =    114.638517     0.000014     0.018861   114.657379
	   23 B(5,3,6)        =    107.643376     0.000050     0.224362   107.867738
	   24 B(7,4,8)        =    110.520633    -0.000004     0.117065   110.637698
	   25 B(7,4,9)        =    111.087574    -0.000119    -0.776312   110.311262
	   26 B(7,10,11)      =    111.429268     0.000002     0.037559   111.466827
	   27 B(7,10,12)      =    107.849249    -0.000016    -0.037213   107.812037
	   28 B(7,10,13)      =    111.427887     0.000004     0.041676   111.469562
	   29 B(8,4,9)        =    107.450155     0.000039     0.281749   107.731904
	   30 B(11,10,12)     =    108.788991     0.000004    -0.064689   108.724302
	   31 B(11,10,13)     =    108.451363     0.000008     0.091513   108.542876
	   32 B(12,10,13)     =    108.830148    -0.000002    -0.076073   108.754075
	   33 D(1,2,3,4)      =      7.107375     0.000015     3.479053    10.586428
	   34 *D(1,2,3,5)     =    130.000006    -0.000000     0.000000   130.000006
	   35 D(1,2,3,6)      =   -112.521285    -0.000000     0.320098  -112.201187
	   36 D(2,3,4,7)      =   -179.498577    -0.000054    -3.054408  -182.552985
	   37 D(2,3,4,8)      =     59.642003    -0.000061    -3.336661    56.305342
	   38 D(2,3,4,9)      =    -58.200713    -0.000065    -3.622570   -61.823282
	   39 D(3,4,7,10)     =    178.596619     0.000007     0.833187   179.429806
	   40 D(4,7,10,11)    =     60.707136     0.000001    -0.089056    60.618080
	   41 D(4,7,10,12)    =   -179.959822    -0.000000    -0.169671  -180.129494
	   42 D(4,7,10,13)    =    -60.577150    -0.000002    -0.261827   -60.838977
	   43 D(5,3,4,7)      =     56.477232     0.000030     2.115126    58.592358
	   44 D(5,3,4,8)      =    -64.382187     0.000023     1.832873   -62.549315
	   45 D(5,3,4,9)      =    177.775097     0.000019     1.546964   179.322061
	   46 D(6,3,4,7)      =    -61.343385     0.000044     2.543079   -58.800307
	   47 D(6,3,4,8)      =    177.797195     0.000037     2.260826   180.058021
	   48 D(6,3,4,9)      =     59.954479     0.000033     1.974917    61.929396
	   49 D(8,4,7,10)     =    -60.904793     0.000003     0.893874   -60.010919
	   50 D(9,4,7,10)     =     58.272305    -0.000004     0.822884    59.095189
	 ---------------------------------------------------------------------------
	Successfully symmetrized geometry.

  ==> Convergence Check <==

  Measures of convergence in internal coordinates in au.
  Criteria marked as inactive (o), active & met (*), and active & unmet ( ).
  --------------------------------------------------------------------------------------------- ~
   Step     Total Energy     Delta E     MAX Force     RMS Force      MAX Disp      RMS Disp    ~
  --------------------------------------------------------------------------------------------- ~
    Convergence Criteria    1.00e-06 *    3.00e-04 *             o    1.20e-03 *             o  ~
  --------------------------------------------------------------------------------------------- ~
      1    -268.05821444   -2.68e+02      6.23e-03      2.02e-03 o    7.06e-02      2.61e-02 o  ~
  ---------------------------------------------------------------------------------------------

	Writing optimization data to binary file.
	Structure for next step:
	Cartesian Geometry (in Angstrom)
	    H    -2.1633797697  -1.1927396217   0.3372037216
	    O    -2.3591784850  -0.2914534583   0.1623597483
	    C    -1.1898812791   0.4836503550   0.0836320401
	    C     0.0648811770  -0.3650526983   0.0436587602
	    H    -1.2425895638   1.0622816400  -0.8289908647
	    H    -1.1266546148   1.1777452478   0.9145181783
	    O     1.1647849420   0.4696586433  -0.0917933042
	    H     0.0085513246  -1.0652207429  -0.7907835480
	    H     0.1430540763  -0.9484572700   0.9622400701
	    C     2.3899285091  -0.1866622910  -0.1291499839
	    H     2.4479237134  -0.8737369772  -0.9702946966
	    H     3.1618159631   0.5606309729  -0.2381019296
	    H     2.5705028376  -0.7449413597   0.7865254680
			--------------------------
			 OPTKING Finished Execution 
			--------------------------

    Structure for next step:
    Molecular point group: c1
    Full point group: C1

    Geometry (in Angstrom), charge = 0, multiplicity = 1:

    H           -2.162115788502    -1.192651809906     0.320372453584
    O           -2.357914503795    -0.291365646568     0.145528480251
    C           -1.188617297896     0.483738166766     0.066800772022
    C            0.066145158213    -0.364964886542     0.026827492132
    H           -1.241325582541     1.062369451759    -0.845822132705
    H           -1.125390633586     1.177833059584     0.897686910254
    O            1.166048923229     0.469746455041    -0.108624572194
    H            0.009815305784    -1.065132931118    -0.807614816044
    H            0.144318057469    -0.948369458208     0.945408802090
    C            2.391192490345    -0.186574479271    -0.145981251910
    H            2.449187694599    -0.873649165436    -0.987125964642
    H            3.163079944267     0.560718784676    -0.254933197627
    H            2.571766818789    -0.744853547976     0.769694200004

gradient() will perform analytic gradient computation.

*** tstart() called on cx1-27-2-4
*** at Sat Sep 10 16:12:24 2016


         ---------------------------------------------------------
                                   SCF
            by Justin Turney, Rob Parrish, and Andy Simmonett
                              RHF Reference
                        4 Threads,   2000 MiB Core
         ---------------------------------------------------------

  ==> Geometry <==

    Molecular point group: c1
    Full point group: C1

    Geometry (in Angstrom), charge = 0, multiplicity = 1:

       Center              X                  Y                   Z               Mass       
    ------------   -----------------  -----------------  -----------------  -----------------
           H         -2.162115788502    -1.192651809906     0.320372453584     1.007825032070
           O         -2.357914503795    -0.291365646568     0.145528480251    15.994914619560
           C         -1.188617297896     0.483738166766     0.066800772022    12.000000000000
           C          0.066145158213    -0.364964886542     0.026827492132    12.000000000000
           H         -1.241325582541     1.062369451759    -0.845822132705     1.007825032070
           H         -1.125390633586     1.177833059584     0.897686910254     1.007825032070
           O          1.166048923229     0.469746455041    -0.108624572194    15.994914619560
           H          0.009815305784    -1.065132931118    -0.807614816044     1.007825032070
           H          0.144318057469    -0.948369458208     0.945408802090     1.007825032070
           C          2.391192490345    -0.186574479271    -0.145981251910    12.000000000000
           H          2.449187694599    -0.873649165436    -0.987125964642     1.007825032070
           H          3.163079944267     0.560718784676    -0.254933197627     1.007825032070
           H          2.571766818789    -0.744853547976     0.769694200004     1.007825032070

  Running in c1 symmetry.

  Rotational constants: A =      0.76568  B =      0.07254  C =      0.06881 [cm^-1]
  Rotational constants: A =  22954.57290  B =   2174.56872  C =   2062.73810 [MHz]
  Nuclear repulsion =  190.567736024628744

  Charge       = 0
  Multiplicity = 1
  Electrons    = 42
  Nalpha       = 21
  Nbeta        = 21

  ==> Algorithm <==

  SCF Algorithm Type is DF.
  DIIS enabled.
  MOM disabled.
  Fractional occupation disabled.
  Guess Type is READ.
  Energy threshold   = 1.00e-08
  Density threshold  = 1.00e-08
  Integral threshold = 0.00e+00

  ==> Primary Basis <==

  Basis Set: CC-PVTZ
    Number of shells: 98
    Number of basis function: 262
    Number of Cartesian functions: 295
    Spherical Harmonics?: true
    Max angular momentum: 3

  ==> Pre-Iterations <==

   -------------------------------------------------------
    Irrep   Nso     Nmo     Nalpha   Nbeta   Ndocc  Nsocc
   -------------------------------------------------------
     A        262     262       0       0       0       0
   -------------------------------------------------------
    Total     262     262      21      21      21       0
   -------------------------------------------------------

  ==> Integral Setup <==

  ==> DFJK: Density-Fitted J/K Matrices <==

    J tasked:                  Yes
    K tasked:                  Yes
    wK tasked:                  No
    OpenMP threads:              4
    Integrals threads:           4
    Memory (MB):              1430
    Algorithm:                Core
    Integral Cache:           NONE
    Schwarz Cutoff:          1E-12
    Fitting Condition:       1E-12

   => Auxiliary Basis Set <=

  Basis Set: 
    Number of shells: 205
    Number of basis function: 635
    Number of Cartesian functions: 760
    Spherical Harmonics?: true
    Max angular momentum: 4

  Minimum eigenvalue in the overlap matrix is 6.3481184561E-04.
  Using Symmetric Orthogonalization.
  SCF Guess: Reading in previously saved MOs, projecting if necessary.

  Using orbitals from previous SCF, no projection.
  Recomputing DOCC and SOCC from number of alpha and beta electrons from previous calculation.
              A 
    DOCC [    21 ]

  ==> Iterations <==

                           Total Energy        Delta E     RMS |[F,P]|

   @DF-RHF iter   0:  -268.04818082987185   -2.68048e+02   5.20318e-04 
   @DF-RHF iter   1:  -268.05833420808108   -1.01534e-02   8.59749e-05 
   @DF-RHF iter   2:  -268.05877287433736   -4.38666e-04   3.01521e-05 DIIS
   @DF-RHF iter   3:  -268.05883776730730   -6.48930e-05   1.20873e-05 DIIS
   @DF-RHF iter   4:  -268.05884389924574   -6.13194e-06   3.07919e-06 DIIS
   @DF-RHF iter   5:  -268.05884442199908   -5.22753e-07   1.07717e-06 DIIS
   @DF-RHF iter   6:  -268.05884450759027   -8.55912e-08   2.85632e-07 DIIS
   @DF-RHF iter   7:  -268.05884451423867   -6.64841e-09   7.61043e-08 DIIS
   @DF-RHF iter   8:  -268.05884451473963   -5.00961e-10   1.62387e-08 DIIS
   @DF-RHF iter   9:  -268.05884451476413   -2.44995e-11   4.65504e-09 DIIS

  ==> Post-Iterations <==

    Orbital Energies (a.u.)
    -----------------------

    Doubly Occupied:                                                      

       1A    -20.561383     2A    -20.551003     3A    -11.278181  
       4A    -11.271768     5A    -11.267602     6A     -1.397257  
       7A     -1.366644     8A     -1.023161     9A     -0.916898  
      10A     -0.852049    11A     -0.696647    12A     -0.689858  
      13A     -0.671963    14A     -0.626713    15A     -0.610797  
      16A     -0.580293    17A     -0.546580    18A     -0.500184  
      19A     -0.472859    20A     -0.444137    21A     -0.429850  

    Virtual:                                                              

      22A      0.137575    23A      0.154240    24A      0.180334  
      25A      0.189505    26A      0.197634    27A      0.223045  
      28A      0.234147    29A      0.259569    30A      0.276399  
      31A      0.324908    32A      0.334459    33A      0.376455  
      34A      0.387746    35A      0.412450    36A      0.451292  
      37A      0.496011    38A      0.503748    39A      0.518905  
      40A      0.567097    41A      0.582678    42A      0.584518  
      43A      0.590050    44A      0.621103    45A      0.638484  
      46A      0.639692    47A      0.644810    48A      0.658508  
      49A      0.666387    50A      0.680311    51A      0.696276  
      52A      0.699170    53A      0.765536    54A      0.787602  
      55A      0.818882    56A      0.829966    57A      0.848371  
      58A      0.887365    59A      0.899019    60A      0.923020  
      61A      0.935247    62A      0.969824    63A      0.981139  
      64A      1.033618    65A      1.075371    66A      1.085451  
      67A      1.133099    68A      1.165626    69A      1.176559  
      70A      1.211816    71A      1.214088    72A      1.217434  
      73A      1.243117    74A      1.264046    75A      1.275138  
      76A      1.290759    77A      1.308784    78A      1.345115  
      79A      1.357701    80A      1.376660    81A      1.408300  
      82A      1.411528    83A      1.452650    84A      1.470337  
      85A      1.481849    86A      1.498474    87A      1.499095  
      88A      1.521752    89A      1.551625    90A      1.569402  
      91A      1.591830    92A      1.617161    93A      1.623425  
      94A      1.661033    95A      1.702146    96A      1.724536  
      97A      1.777803    98A      1.880595    99A      1.889701  
     100A      2.034471   101A      2.097645   102A      2.197553  
     103A      2.216364   104A      2.226590   105A      2.298707  
     106A      2.317477   107A      2.318947   108A      2.330074  
     109A      2.453049   110A      2.487408   111A      2.492258  
     112A      2.543504   113A      2.610435   114A      2.632266  
     115A      2.687424   116A      2.744398   117A      2.758025  
     118A      2.801352   119A      2.831065   120A      2.908416  
     121A      2.928474   122A      2.978990   123A      3.009173  
     124A      3.049897   125A      3.057488   126A      3.100037  
     127A      3.120918   128A      3.126385   129A      3.154394  
     130A      3.159447   131A      3.196604   132A      3.235774  
     133A      3.244410   134A      3.275084   135A      3.296352  
     136A      3.298426   137A      3.309491   138A      3.343253  
     139A      3.370413   140A      3.384795   141A      3.407245  
     142A      3.418880   143A      3.430913   144A      3.450487  
     145A      3.486280   146A      3.501479   147A      3.515114  
     148A      3.541467   149A      3.606287   150A      3.617035  
     151A      3.633781   152A      3.652106   153A      3.682839  
     154A      3.699493   155A      3.748520   156A      3.758150  
     157A      3.771887   158A      3.779539   159A      3.800479  
     160A      3.811326   161A      3.841863   162A      3.850690  
     163A      3.893292   164A      3.912298   165A      3.932533  
     166A      3.939694   167A      3.992755   168A      4.036755  
     169A      4.063574   170A      4.077666   171A      4.098296  
     172A      4.114587   173A      4.144343   174A      4.167368  
     175A      4.173597   176A      4.206542   177A      4.213890  
     178A      4.243844   179A      4.264263   180A      4.296158  
     181A      4.305636   182A      4.336176   183A      4.340147  
     184A      4.354427   185A      4.393789   186A      4.406397  
     187A      4.441829   188A      4.471879   189A      4.501909  
     190A      4.525124   191A      4.557267   192A      4.592503  
     193A      4.594149   194A      4.616885   195A      4.627090  
     196A      4.634821   197A      4.698245   198A      4.779060  
     199A      4.809960   200A      4.876334   201A      4.928283  
     202A      4.953867   203A      4.984100   204A      5.004177  
     205A      5.072026   206A      5.083468   207A      5.149812  
     208A      5.175397   209A      5.213471   210A      5.234885  
     211A      5.241236   212A      5.311295   213A      5.356512  
     214A      5.391482   215A      5.400496   216A      5.423632  
     217A      5.435507   218A      5.466987   219A      5.489751  
     220A      5.516271   221A      5.594622   222A      5.602038  
     223A      5.648791   224A      5.708274   225A      5.747045  
     226A      5.822016   227A      5.836152   228A      5.910857  
     229A      5.920905   230A      5.962006   231A      6.096086  
     232A      6.124204   233A      6.157168   234A      6.172182  
     235A      6.240228   236A      6.246276   237A      6.318409  
     238A      6.439917   239A      6.548923   240A      6.636757  
     241A      6.694481   242A      6.725654   243A      6.877963  
     244A      6.972160   245A      7.076124   246A      7.180612  
     247A      7.251709   248A      7.268571   249A      7.316166  
     250A      7.360371   251A      7.428621   252A      7.548703  
     253A      7.557722   254A      7.704326   255A      7.875560  
     256A      7.897498   257A      8.015216   258A     11.321095  
     259A     12.613309   260A     13.264714   261A     13.802762  
     262A     14.204384  

    Final Occupation by Irrep:
              A 
    DOCC [    21 ]

  Energy converged.

  @DF-RHF Final Energy:  -268.05884451476413

   => Energetics <=

    Nuclear Repulsion Energy =            190.5677360246287435
    One-Electron Energy =                -743.7415077092089177
    Two-Electron Energy =                 285.1149271698160419
    DFT Exchange-Correlation Energy =       0.0000000000000000
    Empirical Dispersion Energy =           0.0000000000000000
    PCM Polarization Energy =               0.0000000000000000
    EFP Energy =                            0.0000000000000000
    Total Energy =                       -268.0588445147641323


  Saving occupied orbitals to File 180.

*** tstop() called on cx1-27-2-4 at Sat Sep 10 16:12:28 2016
Module time:
	user time   =      11.48 seconds =       0.19 minutes
	system time =       0.27 seconds =       0.00 minutes
	total time  =          4 seconds =       0.07 minutes
Total time:
	user time   =      42.51 seconds =       0.71 minutes
	system time =       1.11 seconds =       0.02 minutes
	total time  =         13 seconds =       0.22 minutes


Properties will be evaluated at   0.000000,   0.000000,   0.000000 Bohr

Properties computed using the SCF density matrix

  Nuclear Dipole Moment: (a.u.)
     X:     3.5654      Y:    -1.8963      Z:     0.0355

  Electronic Dipole Moment: (a.u.)
     X:    -2.8186      Y:     1.1584      Z:     0.0572

  Dipole Moment: (a.u.)
     X:     0.7468      Y:    -0.7380      Z:     0.0927     Total:     1.0540

  Dipole Moment: (Debye)
     X:     1.8981      Y:    -1.8757      Z:     0.2355     Total:     2.6789


*** tstart() called on cx1-27-2-4
*** at Sat Sep 10 16:12:28 2016


         ------------------------------------------------------------
                                   SCF GRAD                          
                          Rob Parrish, Justin Turney,                
                       Andy Simmonett, and Alex Sokolov              
         ------------------------------------------------------------

  ==> Geometry <==

    Molecular point group: c1
    Full point group: C1

    Geometry (in Angstrom), charge = 0, multiplicity = 1:

       Center              X                  Y                   Z               Mass       
    ------------   -----------------  -----------------  -----------------  -----------------
           H         -2.162115788502    -1.192651809906     0.320372453584     1.007825032070
           O         -2.357914503795    -0.291365646568     0.145528480251    15.994914619560
           C         -1.188617297896     0.483738166766     0.066800772022    12.000000000000
           C          0.066145158213    -0.364964886542     0.026827492132    12.000000000000
           H         -1.241325582541     1.062369451759    -0.845822132705     1.007825032070
           H         -1.125390633586     1.177833059584     0.897686910254     1.007825032070
           O          1.166048923229     0.469746455041    -0.108624572194    15.994914619560
           H          0.009815305784    -1.065132931118    -0.807614816044     1.007825032070
           H          0.144318057469    -0.948369458208     0.945408802090     1.007825032070
           C          2.391192490345    -0.186574479271    -0.145981251910    12.000000000000
           H          2.449187694599    -0.873649165436    -0.987125964642     1.007825032070
           H          3.163079944267     0.560718784676    -0.254933197627     1.007825032070
           H          2.571766818789    -0.744853547976     0.769694200004     1.007825032070

  Nuclear repulsion =  190.567736024628744

  ==> Basis Set <==

  Basis Set: CC-PVTZ
    Number of shells: 98
    Number of basis function: 262
    Number of Cartesian functions: 295
    Spherical Harmonics?: true
    Max angular momentum: 3

  ==> DFJKGrad: Density-Fitted SCF Gradients <==

    Gradient:                    1
    J tasked:                  Yes
    K tasked:                  Yes
    wK tasked:                  No
    OpenMP threads:              4
    Integrals threads:           4
    Memory (MB):              1430
    Schwarz Cutoff:          0E+00
    Fitting Condition:       1E-12

   => Auxiliary Basis Set <=

  Basis Set: 
    Number of shells: 205
    Number of basis function: 635
    Number of Cartesian functions: 760
    Spherical Harmonics?: true
    Max angular momentum: 4


  -Total Gradient:
     Atom            X                  Y                   Z
    ------   -----------------  -----------------  -----------------
       1       -0.000559215917    -0.000180813619    -0.001572666257
       2       -0.001522485535    -0.001542525561    -0.001261909774
       3       -0.000426652017     0.000403540101     0.005122828112
       4       -0.000328980840     0.001224641849    -0.000731831134
       5       -0.000427145848    -0.001776823934    -0.000443901736
       6        0.002028602794     0.001922571534    -0.000746508019
       7        0.000781430196    -0.000601853556    -0.000073408284
       8        0.000156420005    -0.000179242585    -0.000254837860
       9        0.000081819817     0.000752281641    -0.000060187576
      10       -0.000322643406     0.000091188178     0.000164777876
      11        0.000209435213     0.000011084679    -0.000123739999
      12        0.000143525246    -0.000170251759    -0.000031180906
      13        0.000185890290     0.000046203034     0.000012565556


*** tstop() called on cx1-27-2-4 at Sat Sep 10 16:12:32 2016
Module time:
	user time   =      14.60 seconds =       0.24 minutes
	system time =       0.37 seconds =       0.01 minutes
	total time  =          4 seconds =       0.07 minutes
Total time:
	user time   =      57.17 seconds =       0.95 minutes
	system time =       1.48 seconds =       0.02 minutes
	total time  =         17 seconds =       0.28 minutes

			-----------------------------------------
			 OPTKING 2.0: for geometry optimizations 
			  - R.A. King,  Bethel University        
			-----------------------------------------

	Previous internal coordinate definitions found.
	---Fragment 1 Geometry and Gradient---
	 H          -4.0858067079       -2.2537852926        0.6054161978
	 O          -4.4558126569       -0.5506012765        0.2750089722
	 C          -2.2461611698        0.9141326552        0.1262351646
	 C           0.1249962340       -0.6896836837        0.0506966130
	 H          -2.3457653927        2.0075873158       -1.5983721879
	 H          -2.1266800900        2.2257819129        1.6963824135
	 O           2.2035131224        0.8876921519       -0.2052706927
	 H           0.0185482398       -2.0128095349       -1.5261708232
	 H           0.2727216046       -1.7921585488        1.7865637196
	 C           4.5186989378       -0.3525746692       -0.2758645866
	 H           4.6282939908       -1.6509576589       -1.8653977318
	 H           5.9773548311        1.0596049406       -0.4817539257
	 H           4.8599349652       -1.4075692148        1.4545112441
	            -0.0005592159       -0.0001808136       -0.0015726663
	            -0.0015224855       -0.0015425256       -0.0012619098
	            -0.0004266520        0.0004035401        0.0051228281
	            -0.0003289808        0.0012246418       -0.0007318311
	            -0.0004271458       -0.0017768239       -0.0004439017
	             0.0020286028        0.0019225715       -0.0007465080
	             0.0007814302       -0.0006018536       -0.0000734083
	             0.0001564200       -0.0001792426       -0.0002548379
	             0.0000818198        0.0007522816       -0.0000601876
	            -0.0003226434        0.0000911882        0.0001647779
	             0.0002094352        0.0000110847       -0.0001237400
	             0.0001435252       -0.0001702518       -0.0000311809
	             0.0001858903        0.0000462030        0.0000125656

	---Fragment 1 Intrafragment Coordinates---
	 - Coordinate -           - BOHR/RAD -       - ANG/DEG -
	 R(1,2)           =         1.773953	       0.938735
	 R(2,3)           =         2.655210	       1.405076
	 R(3,4)           =         2.863620	       1.515363
	 R(3,5)           =         2.044464	       1.081884
	 R(3,6)           =         2.049405	       1.084499
	 R(4,7)           =         2.621806	       1.387400
	 R(4,8)           =         2.061190	       1.090735
	 R(4,9)           =         2.061676	       1.090992
	 R(7,10)          =         2.627419	       1.390370
	 R(10,11)         =         2.055341	       1.087639
	 R(10,12)         =         2.040666	       1.079874
	 R(10,13)         =         2.055154	       1.087540
	 B(1,2,3)         =         1.946038	     111.499775
	 B(2,3,4)         =         1.962324	     112.432868
	 B(2,3,5)         =         1.877336	     107.563424
	 B(2,3,6)         =         1.937618	     111.017331
	 B(3,4,7)         =         1.898704	     108.787751
	 B(3,4,8)         =         1.914458	     109.690382
	 B(3,4,9)         =         1.914115	     109.670729
	 B(4,3,5)         =         1.894028	     108.519828
	 B(4,3,6)         =         1.907509	     109.292210
	 B(4,7,10)        =         2.001149	     114.657379
	 B(5,3,6)         =         1.882647	     107.867738
	 B(7,4,8)         =         1.930992	     110.637698
	 B(7,4,9)         =         1.925295	     110.311262
	 B(7,10,11)       =         1.945463	     111.466827
	 B(7,10,12)       =         1.881675	     107.812037
	 B(7,10,13)       =         1.945511	     111.469562
	 B(8,4,9)         =         1.880276	     107.731904
	 B(11,10,12)      =         1.897597	     108.724302
	 B(11,10,13)      =         1.894431	     108.542876
	 B(12,10,13)      =         1.898117	     108.754075
	 D(1,2,3,4)       =         0.184768	      10.586428
	*D(1,2,3,5)       =         2.268928	     130.000006
	 D(1,2,3,6)       =        -1.958280	    -112.201187
	 D(2,3,4,7)       =         3.097035	     177.447015
	 D(2,3,4,8)       =         0.982714	      56.305342
	 D(2,3,4,9)       =        -1.079020	     -61.823282
	 D(3,4,7,10)      =         3.131641	     179.429806
	 D(4,7,10,11)     =         1.057985	      60.618080
	 D(4,7,10,12)     =         3.139333	     179.870506
	 D(4,7,10,13)     =        -1.061840	     -60.838977
	 D(5,3,4,7)       =         1.022630	      58.592358
	 D(5,3,4,8)       =        -1.091691	     -62.549315
	 D(5,3,4,9)       =         3.129760	     179.322061
	 D(6,3,4,7)       =        -1.026259	     -58.800307
	 D(6,3,4,8)       =        -3.140580	    -179.941979
	 D(6,3,4,9)       =         1.080872	      61.929396
	 D(8,4,7,10)      =        -1.047388	     -60.010919
	 D(9,4,7,10)      =         1.031406	      59.095189

	Current energy   :      -268.0588445148

	Energy change for the previous step:
		Projected    :        -0.0022420354
		Actual       :        -0.0006300778

	Performing BFGS update.
	Previous computed or guess Hessian on step 1.
	Steps to be used in Hessian update: 1
	Taking RFO optimization step.
	Going to follow RFO solution 1.
	Using RFO vector 1.
	Norm of target step-size    0.09251
	Projected energy change by RFO approximation:        -0.0002270639

	Back-transformation to cartesian coordinates...
	Successfully converged to displaced geometry.

	Back-transformation to cartesian coordinates to adjust frozen coordinates...
	Successfully converged to displaced geometry.

	--- Internal Coordinate Step in ANG or DEG, aJ/ANG or AJ/DEG ---
	 ---------------------------------------------------------------------------
	   Coordinate                Previous        Force       Change         New 
	   ----------                --------       ------       ------       ------
	    1 R(1,2)          =      0.938735     0.001944     0.000131     0.938866
	    2 R(2,3)          =      1.405076    -0.020796    -0.002003     1.403073
	    3 R(3,4)          =      1.515363    -0.001008    -0.000163     1.515200
	    4 R(3,5)          =      1.081884     0.004573     0.000521     1.082405
	    5 R(3,6)          =      1.084499    -0.006400    -0.000739     1.083760
	    6 R(4,7)          =      1.387400    -0.003466    -0.000391     1.387009
	    7 R(4,8)          =      1.090735    -0.002488    -0.000345     1.090390
	    8 R(4,9)          =      1.090992     0.003683     0.000555     1.091547
	    9 R(7,10)         =      1.390370    -0.001649    -0.000146     1.390224
	   10 R(10,11)        =      1.087639    -0.000823    -0.000112     1.087528
	   11 R(10,12)        =      1.079874     0.000100     0.000007     1.079881
	   12 R(10,13)        =      1.087540    -0.000146    -0.000017     1.087523
	   13 B(1,2,3)        =    111.499775    -0.000082    -0.252279   111.247496
	   14 B(2,3,4)        =    112.432868    -0.000069    -0.239473   112.193395
	   15 B(2,3,5)        =    107.563424     0.000148     0.912607   108.476031
	   16 B(2,3,6)        =    111.017331    -0.000161    -1.234637   109.782694
	   17 B(3,4,7)        =    108.787751    -0.000138    -0.348332   108.439419
	   18 B(3,4,8)        =    109.690382     0.000012    -0.055483   109.634900
	   19 B(3,4,9)        =    109.670729     0.000053     0.192783   109.863513
	   20 B(4,3,5)        =    108.519828    -0.000017     0.358835   108.878664
	   21 B(4,3,6)        =    109.292210     0.000084     0.001108   109.293318
	   22 B(4,7,10)       =    114.657379    -0.000019    -0.035936   114.621443
	   23 B(5,3,6)        =    107.867738     0.000021     0.256436   108.124174
	   24 B(7,4,8)        =    110.637698     0.000054     0.113756   110.751453
	   25 B(7,4,9)        =    110.311262     0.000049     0.170455   110.481717
	   26 B(7,10,11)      =    111.466827    -0.000013    -0.054926   111.411901
	   27 B(7,10,12)      =    107.812037    -0.000015    -0.050752   107.761285
	   28 B(7,10,13)      =    111.469562    -0.000013    -0.047391   111.422171
	   29 B(8,4,9)        =    107.731904    -0.000028    -0.066539   107.665366
	   30 B(11,10,12)     =    108.724302     0.000021     0.105777   108.830080
	   31 B(11,10,13)     =    108.542876     0.000003    -0.020550   108.522326
	   32 B(12,10,13)     =    108.754075     0.000017     0.075587   108.829662
	   33 D(1,2,3,4)      =     10.586428    -0.000008    -0.901636     9.684792
	   34 *D(1,2,3,5)     =    130.000006    -0.000000    -0.000000   130.000006
	   35 D(1,2,3,6)      =   -112.201187     0.000005     0.153326  -112.047861
	   36 D(2,3,4,7)      =    177.447015     0.000025     2.379946   179.826961
	   37 D(2,3,4,8)      =     56.305342     0.000028     2.490550    58.795892
	   38 D(2,3,4,9)      =    -61.823282     0.000027     2.489719   -59.333564
	   39 D(3,4,7,10)     =    179.429806     0.000004     0.363257   179.793063
	   40 D(4,7,10,11)    =     60.618080    -0.000002    -0.068390    60.549690
	   41 D(4,7,10,12)    =    179.870506     0.000000    -0.003120   179.867386
	   42 D(4,7,10,13)    =    -60.838977     0.000001     0.029583   -60.809394
	   43 D(5,3,4,7)      =     58.592358    -0.000005     1.153259    59.745617
	   44 D(5,3,4,8)      =    -62.549315    -0.000002     1.263863   -61.285452
	   45 D(5,3,4,9)      =    179.322061    -0.000003     1.263032   180.585093
	   46 D(6,3,4,7)      =    -58.800307    -0.000019     0.639223   -58.161083
	   47 D(6,3,4,8)      =   -179.941979    -0.000016     0.749827  -179.192152
	   48 D(6,3,4,9)      =     61.929396    -0.000017     0.748996    62.678392
	   49 D(8,4,7,10)     =    -60.010919    -0.000005     0.142994   -59.867925
	   50 D(9,4,7,10)     =     59.095189     0.000002     0.241708    59.336898
	 ---------------------------------------------------------------------------
	Successfully symmetrized geometry.

  ==> Convergence Check <==

  Measures of convergence in internal coordinates in au.
  Criteria marked as inactive (o), active & met (*), and active & unmet ( ).
  ---------------------------------------------------------------------------------------------
   Step     Total Energy     Delta E     MAX Force     RMS Force      MAX Disp      RMS Disp   
  ---------------------------------------------------------------------------------------------
    Convergence Criteria    1.00e-06 *    3.00e-04 *             o    1.20e-03 *             o
  ---------------------------------------------------------------------------------------------
      2    -268.05884451   -6.30e-04      2.52e-03      8.40e-04 o    4.35e-02      1.31e-02 o  ~
  ---------------------------------------------------------------------------------------------

	Writing optimization data to binary file.
	Structure for next step:
	Cartesian Geometry (in Angstrom)
	    H    -2.1226250369  -1.2301442229   0.3927735818
	    O    -2.3470894578  -0.3402298657   0.1949404775
	    C    -1.1993325938   0.4543872521   0.0540402613
	    C     0.0696072696  -0.3731120984   0.0245910502
	    H    -1.2775217712   1.0087440507  -0.8723374468
	    H    -1.1437297787   1.1663025425   0.8692824353
	    O     1.1496717014   0.4849683217  -0.1201636209
	    H     0.0256920793  -1.0819053986  -0.8028352471
	    H     0.1593096852  -0.9475489605   0.9484147250
	    C     2.3885885684  -0.1446162512  -0.1579874310
	    H     2.4571435546  -0.8361467216  -0.9945290904
	    H     3.1428888317   0.6193116507  -0.2745575789
	    H     2.5835875347  -0.6931663061   0.7605850593
			--------------------------
			 OPTKING Finished Execution 
			--------------------------

    Structure for next step:
    Molecular point group: c1
    Full point group: C1

    Geometry (in Angstrom), charge = 0, multiplicity = 1:

    H           -2.120106221912    -1.224159210450     0.389213115407
    O           -2.344570642850    -0.334244853288     0.191380011096
    C           -1.196813778860     0.460372264482     0.050479794834
    C            0.072126084511    -0.367127086030     0.021030583713
    H           -1.275002956289     1.014729063057    -0.875897913195
    H           -1.141210963741     1.172287554945     0.865721968816
    O            1.152190516359     0.490953334143    -0.123724087362
    H            0.028210894226    -1.075920386169    -0.806395713559
    H            0.161828500152    -0.941563948145     0.944854258569
    C            2.391107383308    -0.138631238802    -0.161547897482
    H            2.459662369556    -0.830161709157    -0.998089556873
    H            3.145407646632     0.625296663091    -0.278118045347
    H            2.586106349628    -0.687181293660     0.757024592910

gradient() will perform analytic gradient computation.

*** tstart() called on cx1-27-2-4
*** at Sat Sep 10 16:12:32 2016


         ---------------------------------------------------------
                                   SCF
            by Justin Turney, Rob Parrish, and Andy Simmonett
                              RHF Reference
                        4 Threads,   2000 MiB Core
         ---------------------------------------------------------

  ==> Geometry <==

    Molecular point group: c1
    Full point group: C1

    Geometry (in Angstrom), charge = 0, multiplicity = 1:

       Center              X                  Y                   Z               Mass       
    ------------   -----------------  -----------------  -----------------  -----------------
           H         -2.120106221912    -1.224159210450     0.389213115407     1.007825032070
           O         -2.344570642850    -0.334244853288     0.191380011096    15.994914619560
           C         -1.196813778860     0.460372264482     0.050479794834    12.000000000000
           C          0.072126084511    -0.367127086030     0.021030583713    12.000000000000
           H         -1.275002956289     1.014729063057    -0.875897913195     1.007825032070
           H         -1.141210963741     1.172287554945     0.865721968816     1.007825032070
           O          1.152190516359     0.490953334143    -0.123724087362    15.994914619560
           H          0.028210894226    -1.075920386169    -0.806395713559     1.007825032070
           H          0.161828500152    -0.941563948145     0.944854258569     1.007825032070
           C          2.391107383308    -0.138631238802    -0.161547897482    12.000000000000
           H          2.459662369556    -0.830161709157    -0.998089556873     1.007825032070
           H          3.145407646632     0.625296663091    -0.278118045347     1.007825032070
           H          2.586106349628    -0.687181293660     0.757024592910     1.007825032070

  Running in c1 symmetry.

  Rotational constants: A =      0.76511  B =      0.07277  C =      0.06900 [cm^-1]
  Rotational constants: A =  22937.44812  B =   2181.45523  C =   2068.69062 [MHz]
  Nuclear repulsion =  190.724454346441149

  Charge       = 0
  Multiplicity = 1
  Electrons    = 42
  Nalpha       = 21
  Nbeta        = 21

  ==> Algorithm <==

  SCF Algorithm Type is DF.
  DIIS enabled.
  MOM disabled.
  Fractional occupation disabled.
  Guess Type is READ.
  Energy threshold   = 1.00e-08
  Density threshold  = 1.00e-08
  Integral threshold = 0.00e+00

  ==> Primary Basis <==

  Basis Set: CC-PVTZ
    Number of shells: 98
    Number of basis function: 262
    Number of Cartesian functions: 295
    Spherical Harmonics?: true
    Max angular momentum: 3

  ==> Pre-Iterations <==

   -------------------------------------------------------
    Irrep   Nso     Nmo     Nalpha   Nbeta   Ndocc  Nsocc
   -------------------------------------------------------
     A        262     262       0       0       0       0
   -------------------------------------------------------
    Total     262     262      21      21      21       0
   -------------------------------------------------------

  ==> Integral Setup <==

  ==> DFJK: Density-Fitted J/K Matrices <==

    J tasked:                  Yes
    K tasked:                  Yes
    wK tasked:                  No
    OpenMP threads:              4
    Integrals threads:           4
    Memory (MB):              1430
    Algorithm:                Core
    Integral Cache:           NONE
    Schwarz Cutoff:          1E-12
    Fitting Condition:       1E-12

   => Auxiliary Basis Set <=

  Basis Set: 
    Number of shells: 205
    Number of basis function: 635
    Number of Cartesian functions: 760
    Spherical Harmonics?: true
    Max angular momentum: 4

  Minimum eigenvalue in the overlap matrix is 6.3517684211E-04.
  Using Symmetric Orthogonalization.
  SCF Guess: Reading in previously saved MOs, projecting if necessary.

  Using orbitals from previous SCF, no projection.
  Recomputing DOCC and SOCC from number of alpha and beta electrons from previous calculation.
              A 
    DOCC [    21 ]

  ==> Iterations <==

                           Total Energy        Delta E     RMS |[F,P]|

   @DF-RHF iter   0:  -268.05621220261821   -2.68056e+02   3.22901e-04 
   @DF-RHF iter   1:  -268.05878317291672   -2.57097e-03   5.33493e-05 
   @DF-RHF iter   2:  -268.05895333938395   -1.70166e-04   1.88104e-05 DIIS
   @DF-RHF iter   3:  -268.05897966561872   -2.63262e-05   5.37802e-06 DIIS
   @DF-RHF iter   4:  -268.05898124762723   -1.58201e-06   1.50232e-06 DIIS
   @DF-RHF iter   5:  -268.05898142946319   -1.81836e-07   5.67852e-07 DIIS
   @DF-RHF iter   6:  -268.05898145019967   -2.07365e-08   1.98198e-07 DIIS
   @DF-RHF iter   7:  -268.05898145260323   -2.40357e-09   4.68444e-08 DIIS
   @DF-RHF iter   8:  -268.05898145277115   -1.67915e-10   1.22969e-08 DIIS
   @DF-RHF iter   9:  -268.05898145278309   -1.19371e-11   4.22184e-09 DIIS

  ==> Post-Iterations <==

    Orbital Energies (a.u.)
    -----------------------

    Doubly Occupied:                                                      

       1A    -20.561409     2A    -20.550466     3A    -11.278233  
       4A    -11.271726     5A    -11.267154     6A     -1.397609  
       7A     -1.367187     8A     -1.023027     9A     -0.916559  
      10A     -0.852391    11A     -0.696406    12A     -0.690303  
      13A     -0.672241    14A     -0.626600    15A     -0.611171  
      16A     -0.580638    17A     -0.546642    18A     -0.500213  
      19A     -0.473119    20A     -0.443598    21A     -0.430023  

    Virtual:                                                              

      22A      0.137478    23A      0.154339    24A      0.180408  
      25A      0.189507    26A      0.197737    27A      0.222925  
      28A      0.234075    29A      0.259489    30A      0.276757  
      31A      0.325099    32A      0.334088    33A      0.376245  
      34A      0.387492    35A      0.413083    36A      0.451023  
      37A      0.496755    38A      0.503322    39A      0.519178  
      40A      0.567068    41A      0.582553    42A      0.584398  
      43A      0.590761    44A      0.621173    45A      0.638541  
      46A      0.639708    47A      0.644927    48A      0.658808  
      49A      0.667265    50A      0.679737    51A      0.696750  
      52A      0.699226    53A      0.764894    54A      0.787441  
      55A      0.818082    56A      0.831636    57A      0.848734  
      58A      0.888084    59A      0.899938    60A      0.922662  
      61A      0.934162    62A      0.970801    63A      0.980113  
      64A      1.035147    65A      1.077504    66A      1.084190  
      67A      1.133302    68A      1.165442    69A      1.177120  
      70A      1.211209    71A      1.213545    72A      1.217530  
      73A      1.243353    74A      1.264582    75A      1.274711  
      76A      1.290950    77A      1.308556    78A      1.346589  
      79A      1.357591    80A      1.377178    81A      1.408170  
      82A      1.412074    83A      1.454312    84A      1.471447  
      85A      1.484317    86A      1.498281    87A      1.499399  
      88A      1.523088    89A      1.550764    90A      1.568540  
      91A      1.590507    92A      1.617218    93A      1.623003  
      94A      1.660962    95A      1.700385    96A      1.724808  
      97A      1.778527    98A      1.879853    99A      1.890274  
     100A      2.036056   101A      2.098141   102A      2.197667  
     103A      2.214877   104A      2.228225   105A      2.298493  
     106A      2.316390   107A      2.321633   108A      2.330066  
     109A      2.453512   110A      2.487465   111A      2.494407  
     112A      2.542265   113A      2.610331   114A      2.632091  
     115A      2.687895   116A      2.744459   117A      2.760802  
     118A      2.799935   119A      2.830796   120A      2.912795  
     121A      2.926865   122A      2.977799   123A      3.008882  
     124A      3.049349   125A      3.056711   126A      3.099670  
     127A      3.121646   128A      3.125181   129A      3.154835  
     130A      3.161796   131A      3.198218   132A      3.234646  
     133A      3.243861   134A      3.274445   135A      3.297945  
     136A      3.301097   137A      3.308127   138A      3.342940  
     139A      3.369694   140A      3.386266   141A      3.407156  
     142A      3.419467   143A      3.430322   144A      3.450818  
     145A      3.486583   146A      3.506358   147A      3.513982  
     148A      3.541993   149A      3.605903   150A      3.619484  
     151A      3.633307   152A      3.652138   153A      3.682525  
     154A      3.698459   155A      3.746580   156A      3.759351  
     157A      3.770657   158A      3.781224   159A      3.801772  
     160A      3.814826   161A      3.841308   162A      3.850156  
     163A      3.894516   164A      3.914779   165A      3.933438  
     166A      3.941351   167A      3.993878   168A      4.037094  
     169A      4.065128   170A      4.080932   171A      4.098460  
     172A      4.114997   173A      4.145044   174A      4.166139  
     175A      4.173067   176A      4.205288   177A      4.214279  
     178A      4.243478   179A      4.263057   180A      4.296064  
     181A      4.304536   182A      4.335405   183A      4.340814  
     184A      4.357617   185A      4.393411   186A      4.405368  
     187A      4.441994   188A      4.472697   189A      4.501055  
     190A      4.527886   191A      4.559343   192A      4.588041  
     193A      4.596297   194A      4.616945   195A      4.627298  
     196A      4.636508   197A      4.696753   198A      4.779446  
     199A      4.810993   200A      4.875768   201A      4.931414  
     202A      4.953582   203A      4.983884   204A      5.004963  
     205A      5.072250   206A      5.084881   207A      5.151704  
     208A      5.176924   209A      5.214513   210A      5.236515  
     211A      5.240753   212A      5.312328   213A      5.356961  
     214A      5.394368   215A      5.401283   216A      5.421599  
     217A      5.438389   218A      5.468757   219A      5.489971  
     220A      5.518007   221A      5.595532   222A      5.600980  
     223A      5.649621   224A      5.708960   225A      5.747002  
     226A      5.826167   227A      5.835460   228A      5.911344  
     229A      5.921940   230A      5.961825   231A      6.098941  
     232A      6.123758   233A      6.158848   234A      6.174671  
     235A      6.240542   236A      6.245037   237A      6.317033  
     238A      6.439577   239A      6.549638   240A      6.639806  
     241A      6.694449   242A      6.725919   243A      6.879831  
     244A      6.973381   245A      7.078329   246A      7.180815  
     247A      7.254686   248A      7.266896   249A      7.316820  
     250A      7.360774   251A      7.432876   252A      7.550540  
     253A      7.560117   254A      7.705326   255A      7.876279  
     256A      7.896722   257A      8.013943   258A     11.329856  
     259A     12.622591   260A     13.272004   261A     13.808330  
     262A     14.208052  

    Final Occupation by Irrep:
              A 
    DOCC [    21 ]

  Energy converged.

  @DF-RHF Final Energy:  -268.05898145278309

   => Energetics <=

    Nuclear Repulsion Energy =            190.7244543464411493
    One-Electron Energy =                -744.0534396792264715
    Two-Electron Energy =                 285.2700038800023776
    DFT Exchange-Correlation Energy =       0.0000000000000000
    Empirical Dispersion Energy =           0.0000000000000000
    PCM Polarization Energy =               0.0000000000000000
    EFP Energy =                            0.0000000000000000
    Total Energy =                       -268.0589814527829731


  Saving occupied orbitals to File 180.

*** tstop() called on cx1-27-2-4 at Sat Sep 10 16:12:36 2016
Module time:
	user time   =      10.97 seconds =       0.18 minutes
	system time =       0.20 seconds =       0.00 minutes
	total time  =          4 seconds =       0.07 minutes
Total time:
	user time   =      69.20 seconds =       1.15 minutes
	system time =       1.71 seconds =       0.03 minutes
	total time  =         21 seconds =       0.35 minutes


Properties will be evaluated at   0.000000,   0.000000,   0.000000 Bohr

Properties computed using the SCF density matrix

  Nuclear Dipole Moment: (a.u.)
     X:     3.5987      Y:    -1.8242      Z:    -0.0013

  Electronic Dipole Moment: (a.u.)
     X:    -2.8315      Y:     1.1048      Z:     0.0845

  Dipole Moment: (a.u.)
     X:     0.7672      Y:    -0.7194      Z:     0.0832     Total:     1.0550

  Dipole Moment: (Debye)
     X:     1.9500      Y:    -1.8285      Z:     0.2115     Total:     2.6816


*** tstart() called on cx1-27-2-4
*** at Sat Sep 10 16:12:36 2016


         ------------------------------------------------------------
                                   SCF GRAD                          
                          Rob Parrish, Justin Turney,                
                       Andy Simmonett, and Alex Sokolov              
         ------------------------------------------------------------

  ==> Geometry <==

    Molecular point group: c1
    Full point group: C1

    Geometry (in Angstrom), charge = 0, multiplicity = 1:

       Center              X                  Y                   Z               Mass       
    ------------   -----------------  -----------------  -----------------  -----------------
           H         -2.120106221912    -1.224159210450     0.389213115407     1.007825032070
           O         -2.344570642850    -0.334244853288     0.191380011096    15.994914619560
           C         -1.196813778860     0.460372264482     0.050479794834    12.000000000000
           C          0.072126084511    -0.367127086030     0.021030583713    12.000000000000
           H         -1.275002956289     1.014729063057    -0.875897913195     1.007825032070
           H         -1.141210963741     1.172287554945     0.865721968816     1.007825032070
           O          1.152190516359     0.490953334143    -0.123724087362    15.994914619560
           H          0.028210894226    -1.075920386169    -0.806395713559     1.007825032070
           H          0.161828500152    -0.941563948145     0.944854258569     1.007825032070
           C          2.391107383308    -0.138631238802    -0.161547897482    12.000000000000
           H          2.459662369556    -0.830161709157    -0.998089556873     1.007825032070
           H          3.145407646632     0.625296663091    -0.278118045347     1.007825032070
           H          2.586106349628    -0.687181293660     0.757024592910     1.007825032070

  Nuclear repulsion =  190.724454346441149

  ==> Basis Set <==

  Basis Set: CC-PVTZ
    Number of shells: 98
    Number of basis function: 262
    Number of Cartesian functions: 295
    Spherical Harmonics?: true
    Max angular momentum: 3

  ==> DFJKGrad: Density-Fitted SCF Gradients <==

    Gradient:                    1
    J tasked:                  Yes
    K tasked:                  Yes
    wK tasked:                  No
    OpenMP threads:              4
    Integrals threads:           4
    Memory (MB):              1430
    Schwarz Cutoff:          0E+00
    Fitting Condition:       1E-12

   => Auxiliary Basis Set <=

  Basis Set: 
    Number of shells: 205
    Number of basis function: 635
    Number of Cartesian functions: 760
    Spherical Harmonics?: true
    Max angular momentum: 4


  -Total Gradient:
     Atom            X                  Y                   Z
    ------   -----------------  -----------------  -----------------
       1        0.000007597627    -0.000273111963    -0.001162502630
       2        0.000190413673     0.000052310866     0.001253606027
       3       -0.000296267670     0.000867638102     0.000219774722
       4       -0.000093526983    -0.000356916129     0.000135134391
       5        0.000351828107    -0.000685000125    -0.000480737380
       6       -0.000032161872     0.000191583608     0.000035223259
       7        0.000078926944     0.000102566498    -0.000036779693
       8       -0.000143569207     0.000076202258    -0.000066905825
       9        0.000185728021     0.000028923532    -0.000002168793
      10       -0.000248848510    -0.000018094049     0.000162666534
      11       -0.000010127462    -0.000016165418    -0.000029850321
      12       -0.000011005289     0.000031328690    -0.000013555223
      13        0.000021012626    -0.000001265873    -0.000013905066


*** tstop() called on cx1-27-2-4 at Sat Sep 10 16:12:39 2016
Module time:
	user time   =      14.45 seconds =       0.24 minutes
	system time =       0.32 seconds =       0.01 minutes
	total time  =          3 seconds =       0.05 minutes
Total time:
	user time   =      83.73 seconds =       1.40 minutes
	system time =       2.04 seconds =       0.03 minutes
	total time  =         24 seconds =       0.40 minutes

			-----------------------------------------
			 OPTKING 2.0: for geometry optimizations 
			  - R.A. King,  Bethel University        
			-----------------------------------------

	Previous internal coordinate definitions found.
	---Fragment 1 Geometry and Gradient---
	 H          -4.0064201320       -2.3133256508        0.7355061954
	 O          -4.4305964142       -0.6316312340        0.3616558083
	 C          -2.2616502741        0.8699774990        0.0953929875
	 C           0.1362985468       -0.6937696486        0.0397420436
	 H          -2.4094064060        1.9175600283       -1.6552071763
	 H          -2.1565761813        2.2153024278        1.6359774283
	 O           2.1773245288        0.9277673456       -0.2338046412
	 H           0.0533108641       -2.0331948706       -1.5238670534
	 H           0.3058115458       -1.7792979986        1.7855157842
	 C           4.5185381088       -0.2619750748       -0.3052812836
[...]
*** at Sat Sep 10 16:12:51 2016


         ------------------------------------------------------------
                                   SCF GRAD                          
                          Rob Parrish, Justin Turney,                
                       Andy Simmonett, and Alex Sokolov              
         ------------------------------------------------------------

  ==> Geometry <==

    Molecular point group: c1
    Full point group: C1

    Geometry (in Angstrom), charge = 0, multiplicity = 1:

       Center              X                  Y                   Z               Mass       
    ------------   -----------------  -----------------  -----------------  -----------------
           H         -2.121440121782    -1.223141219641     0.390137046412     1.007825032070
           O         -2.345489708324    -0.333828901557     0.189133372934    15.994914619560
           C         -1.197240072642     0.459917171687     0.047909126757    12.000000000000
           C          0.072365097927    -0.367090508490     0.023359669568    12.000000000000
           H         -1.273017067103     1.011628278169    -0.880173767279     1.007825032070
           H         -1.142593268359     1.173243148631     0.861660821779     1.007825032070
           O          1.152729850996     0.490925928867    -0.118765742973    15.994914619560
           H          0.032630701491    -1.077800620865    -0.802620393560     1.007825032070
           H          0.157795946067    -0.940242100697     0.948476888098     1.007825032070
           C          2.391710502075    -0.138611528291    -0.163881577666    12.000000000000
           H          2.458515297746    -0.823618967107    -1.005822000359     1.007825032070
           H          3.145847005703     0.626102011416    -0.275829608941     1.007825032070
           H          2.588232411843    -0.694261810837     0.750110183187     1.007825032070

  Nuclear repulsion =  190.704722301125543

  ==> Basis Set <==

  Basis Set: CC-PVTZ
    Number of shells: 98
    Number of basis function: 262
    Number of Cartesian functions: 295
    Spherical Harmonics?: true
    Max angular momentum: 3

  ==> DFJKGrad: Density-Fitted SCF Gradients <==

    Gradient:                    1
    J tasked:                  Yes
    K tasked:                  Yes
    wK tasked:                  No
    OpenMP threads:              4
    Integrals threads:           4
    Memory (MB):              1430
    Schwarz Cutoff:          0E+00
    Fitting Condition:       1E-12

   => Auxiliary Basis Set <=

  Basis Set: 
    Number of shells: 205
    Number of basis function: 635
    Number of Cartesian functions: 760
    Spherical Harmonics?: true
    Max angular momentum: 4


  -Total Gradient:
     Atom            X                  Y                   Z
    ------   -----------------  -----------------  -----------------
       1        0.000037305343    -0.000257778238    -0.001158230851
       2        0.000078847518     0.000131701899     0.001319808540
       3       -0.000562529345     0.000919525404     0.000346218510
       4       -0.000007993971    -0.000011750768    -0.000008004501
       5        0.000471915011    -0.000766489023    -0.000489661145
       6       -0.000006575790    -0.000014681410    -0.000001864939
       7       -0.000004676507     0.000014121216    -0.000005601926
       8        0.000012776304    -0.000009419649     0.000001233872
       9       -0.000007284993     0.000005696727    -0.000006075438
      10       -0.000011934079    -0.000007784656     0.000005284186
      11        0.000005043132    -0.000001724083    -0.000004045415
      12       -0.000009860588     0.000002761961    -0.000002926327
      13        0.000004967969    -0.000004179378     0.000003865435


*** tstop() called on cx1-27-2-4 at Sat Sep 10 16:12:55 2016
Module time:
	user time   =      15.47 seconds =       0.26 minutes
	system time =       0.35 seconds =       0.01 minutes
	total time  =          4 seconds =       0.07 minutes
Total time:
	user time   =     136.11 seconds =       2.27 minutes
	system time =       3.24 seconds =       0.05 minutes
	total time  =         40 seconds =       0.67 minutes

			-----------------------------------------
			 OPTKING 2.0: for geometry optimizations 
			  - R.A. King,  Bethel University        
			-----------------------------------------

	Previous internal coordinate definitions found.
	---Fragment 1 Geometry and Gradient---
	 H          -4.0089408375       -2.3114019270        0.7372521720
	 O          -4.4323331962       -0.6308451992        0.3574102774
	 C          -2.2624558526        0.8691174983        0.0905351288
	 C           0.1367502167       -0.6937005270        0.0441433780
	 H          -2.4056536193        1.9117003940       -1.6632873695
	 H          -2.1591883585        2.2171082382        1.6283029726
	 O           2.1783437236        0.9277155571       -0.2244347282
	 H           0.0616630893       -2.0367479993       -1.5167327325
	 H           0.2981911229       -1.7768000689        1.7923615619
	 C           4.5196778381       -0.2619378273       -0.3096913000
	 H           4.6459206062       -1.5564142857       -1.9007281191
	 H           5.9447892967        1.1831613328       -0.5212424202
	 H           4.8910504266       -1.3119646870        1.4175028157
	             0.0000373053       -0.0002577782       -0.0011582309
	             0.0000788475        0.0001317019        0.0013198085
	            -0.0005625293        0.0009195254        0.0003462185
	            -0.0000079940       -0.0000117508       -0.0000080045
	             0.0004719150       -0.0007664890       -0.0004896611
	            -0.0000065758       -0.0000146814       -0.0000018649
	            -0.0000046765        0.0000141212       -0.0000056019
	             0.0000127763       -0.0000094196        0.0000012339
	            -0.0000072850        0.0000056967       -0.0000060754
	            -0.0000119341       -0.0000077847        0.0000052842
	             0.0000050431       -0.0000017241       -0.0000040454
	            -0.0000098606        0.0000027620       -0.0000029263
	             0.0000049680       -0.0000041794        0.0000038654

	---Fragment 1 Intrafragment Coordinates---
	 - Coordinate -           - BOHR/RAD -       - ANG/DEG -
	 R(1,2)           =         1.774207	       0.938870
	 R(2,3)           =         2.651316	       1.403016
	 R(3,4)           =         2.863694	       1.515401
	 R(3,5)           =         2.045331	       1.082342
	 R(3,6)           =         2.047553	       1.083518
	 R(4,7)           =         2.620921	       1.386932
	 R(4,8)           =         2.060521	       1.090381
	 R(4,9)           =         2.062870	       1.091624
	 R(7,10)          =         2.627620	       1.390477
	 R(10,11)         =         2.054995	       1.087457
	 R(10,12)         =         2.040590	       1.079834
	 R(10,13)         =         2.055158	       1.087543
	 B(1,2,3)         =         1.941344	     111.230793
	 B(2,3,4)         =         1.959030	     112.244157
	 B(2,3,5)         =         1.893776	     108.505346
	 B(2,3,6)         =         1.915728	     109.763116
	 B(3,4,7)         =         1.893001	     108.460962
	 B(3,4,8)         =         1.915005	     109.721683
	 B(3,4,9)         =         1.915984	     109.777779
	 B(4,3,5)         =         1.899638	     108.841240
	 B(4,3,6)         =         1.906245	     109.219796
	 B(4,7,10)        =         2.001296	     114.665812
	 B(5,3,6)         =         1.888027	     108.175991
	 B(7,4,8)         =         1.932632	     110.731653
	 B(7,4,9)         =         1.929113	     110.530016
	 B(7,10,11)       =         1.944488	     111.410927
	 B(7,10,12)       =         1.880765	     107.759877
	 B(7,10,13)       =         1.944500	     111.411650
	 B(8,4,9)         =         1.878214	     107.613717
	 B(11,10,12)      =         1.899614	     108.839861
	 B(11,10,13)      =         1.894138	     108.526126
	 B(12,10,13)      =         1.899432	     108.829424
	 D(1,2,3,4)       =         0.168950	       9.680126
	*D(1,2,3,5)       =         2.268928	     130.000006
	 D(1,2,3,6)       =        -1.954409	    -111.979394
	 D(2,3,4,7)       =         3.141089	     179.971156
	 D(2,3,4,8)       =         1.027972	      58.898482
	 D(2,3,4,9)       =        -1.032690	     -59.168758
	 D(3,4,7,10)      =        -3.135785	    -179.667269
	 D(4,7,10,11)     =         1.058315	      60.637007
	 D(4,7,10,12)     =         3.140986	     179.965221
	 D(4,7,10,13)     =        -1.059745	     -60.718919
	 D(5,3,4,7)       =         1.044512	      59.846145
	 D(5,3,4,8)       =        -1.068605	     -61.226528
	 D(5,3,4,9)       =        -3.129267	    -179.293768
	 D(6,3,4,7)       =        -1.013327	     -58.059337
	 D(6,3,4,8)       =        -3.126443	    -179.132010
	 D(6,3,4,9)       =         1.096080	      62.800750
	 D(8,4,7,10)      =        -1.033581	     -59.219851
	 D(9,4,7,10)      =         1.046133	      59.938979

	Current energy   :      -268.0589833901

	Energy change for the previous step:
		Projected    :         0.0000001370
		Actual       :        -0.0000002073

	Performing BFGS update.
	Previous computed or guess Hessian on step 1.
	Steps to be used in Hessian update: 4 3
	Taking RFO optimization step.
	Going to follow RFO solution 1.
	Using RFO vector 1.
	Norm of target step-size    0.00154
	Projected energy change by RFO approximation:         0.0000000620

	Back-transformation to cartesian coordinates...
	Successfully converged to displaced geometry.
	First geometry is closer to target in internal coordinates, so am using that one.
	First geometry has RMS(Delta(q)) = 5.50e-07

	Back-transformation to cartesian coordinates to adjust frozen coordinates...
	Successfully converged to displaced geometry.

	--- Internal Coordinate Step in ANG or DEG, aJ/ANG or AJ/DEG ---
	 ---------------------------------------------------------------------------
	   Coordinate                Previous        Force       Change         New 
	   ----------                --------       ------       ------       ------
	    1 R(1,2)          =      0.938870    -0.000042    -0.000003     0.938867
	    2 R(2,3)          =      1.403016     0.000062     0.000003     1.403020
	    3 R(3,4)          =      1.515401     0.000074     0.000015     1.515417
	    4 R(3,5)          =      1.082342     0.000032     0.000005     1.082348
	    5 R(3,6)          =      1.083518     0.000094     0.000014     1.083533
	    6 R(4,7)          =      1.386932     0.000086     0.000003     1.386935
	    7 R(4,8)          =      1.090381    -0.000039    -0.000007     1.090374
	    8 R(4,9)          =      1.091624     0.000072     0.000015     1.091639
	    9 R(7,10)         =      1.390477     0.000046     0.000005     1.390482
	   10 R(10,11)        =      1.087457    -0.000037    -0.000008     1.087448
	   11 R(10,12)        =      1.079834     0.000038     0.000005     1.079839
	   12 R(10,13)        =      1.087543    -0.000052    -0.000009     1.087533
	   13 B(1,2,3)        =    111.230793     0.000000     0.001878   111.232670
	   14 B(2,3,4)        =    112.244157     0.000001     0.004350   112.248507
	   15 B(2,3,5)        =    108.505346    -0.000001    -0.001543   108.503803
	   16 B(2,3,6)        =    109.763116     0.000000     0.001473   109.764589
	   17 B(3,4,7)        =    108.460962     0.000001     0.002880   108.463842
	   18 B(3,4,8)        =    109.721683    -0.000002    -0.007777   109.713906
	   19 B(3,4,9)        =    109.777779     0.000000     0.003956   109.781735
	   20 B(4,3,5)        =    108.841240     0.000000     0.005187   108.846427
	   21 B(4,3,6)        =    109.219796    -0.000001    -0.004148   109.215648
	   22 B(4,7,10)       =    114.665812     0.000001     0.001650   114.667462
	   23 B(5,3,6)        =    108.175991    -0.000000    -0.005635   108.170356
	   24 B(7,4,8)        =    110.731653     0.000000     0.002373   110.734026
	   25 B(7,4,9)        =    110.530016    -0.000001    -0.002513   110.527503
	   26 B(7,10,11)      =    111.410927    -0.000001    -0.002936   111.407992
	   27 B(7,10,12)      =    107.759877     0.000001     0.005448   107.765325
	   28 B(7,10,13)      =    111.411650    -0.000001    -0.003081   111.408569
	   29 B(8,4,9)        =    107.613717     0.000000     0.000999   107.614715
	   30 B(11,10,12)     =    108.839861     0.000000     0.001863   108.841724
	   31 B(11,10,13)     =    108.526126     0.000000    -0.000407   108.525719
	   32 B(12,10,13)     =    108.829424    -0.000000    -0.000722   108.828702
	   33 D(1,2,3,4)      =      9.680126    -0.000000    -0.008173     9.671952
	   34 *D(1,2,3,5)     =    130.000006     0.000000    -0.000000   130.000006
	   35 D(1,2,3,6)      =   -111.979394    -0.000000    -0.006859  -111.986253
	   36 D(2,3,4,7)      =    179.971156     0.000000     0.028844   180.000000
	   37 D(2,3,4,8)      =     58.898482    -0.000000     0.028647    58.927129
	   38 D(2,3,4,9)      =    -59.168758     0.000000     0.029720   -59.139038
	   39 D(3,4,7,10)     =   -179.667269     0.000000     0.007052  -179.660217
	   40 D(4,7,10,11)    =     60.637007    -0.000000     0.003073    60.640080
	   41 D(4,7,10,12)    =    179.965221     0.000000     0.007059   179.972280
	   42 D(4,7,10,13)    =    -60.718919     0.000000     0.007795   -60.711124
	   43 D(5,3,4,7)      =     59.846145    -0.000000     0.024325    59.870470
	   44 D(5,3,4,8)      =    -61.226528    -0.000000     0.024349   -61.202179
	   45 D(5,3,4,9)      =   -179.293768     0.000000     0.025423  -179.268346
	   46 D(6,3,4,7)      =    -58.059337     0.000000     0.030488   -58.028848
	   47 D(6,3,4,8)      =   -179.132010     0.000000     0.030513  -179.101498
	   48 D(6,3,4,9)      =     62.800750     0.000000     0.031586    62.832336
	   49 D(8,4,7,10)     =    -59.219851    -0.000000     0.000756   -59.219095
	   50 D(9,4,7,10)     =     59.938979    -0.000000     0.001904    59.940883
	 ---------------------------------------------------------------------------
	Successfully symmetrized geometry.

  ==> Convergence Check <==

  Measures of convergence in internal coordinates in au.
  Criteria marked as inactive (o), active & met (*), and active & unmet ( ).
  ---------------------------------------------------------------------------------------------
   Step     Total Energy     Delta E     MAX Force     RMS Force      MAX Disp      RMS Disp   
  ---------------------------------------------------------------------------------------------
    Convergence Criteria    1.00e-06 *    3.00e-04 *             o    1.20e-03 *             o
  ---------------------------------------------------------------------------------------------
      5    -268.05898339   -2.07e-07 *    2.21e-05 *    7.93e-06 o    5.51e-04 *    2.18e-04 o  ~
  ---------------------------------------------------------------------------------------------


  **** Optimization is complete! (in 5 steps) ****

  ==> Optimization Summary <==

  Measures of convergence in internal coordinates in au.
  --------------------------------------------------------------------------------------------------------------- ~
   Step         Total Energy             Delta E       MAX Force       RMS Force        MAX Disp        RMS Disp  ~
  --------------------------------------------------------------------------------------------------------------- ~
      1    -268.058214436984   -268.058214436984      0.00623081      0.00201861      0.07058406      0.02608586  ~
      2    -268.058844514764     -0.000630077780      0.00252423      0.00084001      0.04346829      0.01309449  ~
      3    -268.058981452783     -0.000136938019      0.00028336      0.00009860      0.00881292      0.00210445  ~
      4    -268.058983182857     -0.000001730074      0.00015002      0.00004679      0.00254962      0.00076447  ~
      5    -268.058983390121     -0.000000207264      0.00002208      0.00000793      0.00055128      0.00021770  ~
  --------------------------------------------------------------------------------------------------------------- ~

	Writing optimization data to binary file.
	Final energy is   -268.0589833901209
	Final (previous) structure:
	Cartesian Geometry (in Angstrom)
	    H    -2.1214401218  -1.2231412196   0.3901370464
	    O    -2.3454897083  -0.3338289016   0.1891333729
	    C    -1.1972400726   0.4599171717   0.0479091268
	    C     0.0723650979  -0.3670905085   0.0233596696
	    H    -1.2730170671   1.0116282782  -0.8801737673
	    H    -1.1425932684   1.1732431486   0.8616608218
	    O     1.1527298510   0.4909259289  -0.1187657430
	    H     0.0326307015  -1.0778006209  -0.8026203936
	    H     0.1577959461  -0.9402421007   0.9484768881
	    C     2.3917105021  -0.1386115283  -0.1638815777
	    H     2.4585152977  -0.8236189671  -1.0058220004
	    H     3.1458470057   0.6261020114  -0.2758296089
	    H     2.5882324118  -0.6942618108   0.7501101832
	Saving final (previous) structure.
			--------------------------
			 OPTKING Finished Execution 
			--------------------------

    Final optimized geometry and variables:
    Molecular point group: c1
    Full point group: C1

    Geometry (in Angstrom), charge = 0, multiplicity = 1:

    H           -2.121440121782    -1.223141219641     0.390137046412
    O           -2.345489708324    -0.333828901557     0.189133372934
    C           -1.197240072642     0.459917171687     0.047909126757
    C            0.072365097927    -0.367090508490     0.023359669568
    H           -1.273017067103     1.011628278169    -0.880173767279
    H           -1.142593268359     1.173243148631     0.861660821779
    O            1.152729850996     0.490925928867    -0.118765742973
    H            0.032630701491    -1.077800620865    -0.802620393560
    H            0.157795946067    -0.940242100697     0.948476888098
    C            2.391710502075    -0.138611528291    -0.163881577666
    H            2.458515297746    -0.823618967107    -1.005822000359
    H            3.145847005703     0.626102011416    -0.275829608941
    H            2.588232411843    -0.694261810837     0.750110183187

	Cleaning optimization helper files.


Properties will be evaluated at   0.000000,   0.000000,   0.000000 Bohr

Properties computed using the  density matrix

  Nuclear Dipole Moment: (a.u.)
     X:     3.5997      Y:    -1.8255      Z:    -0.0128

  Electronic Dipole Moment: (a.u.)
     X:    -2.8322      Y:     1.1059      Z:     0.0943

  Dipole Moment: (a.u.)
     X:     0.7675      Y:    -0.7196      Z:     0.0815     Total:     1.0553

  Dipole Moment: (Debye)
     X:     1.9509      Y:    -1.8291      Z:     0.2071     Total:     2.6823

  Quadrupole Moment: (Debye Ang)
    XX:   -35.1414     YY:   -29.7369     ZZ:   -31.3156
    XY:     0.1390     XZ:    -0.2887     YZ:    -0.5634

  Traceless Quadrupole Moment: (Debye Ang)
    XX:    -3.0768     YY:     2.3278     ZZ:     0.7490
    XY:     0.1390     XZ:    -0.2887     YZ:    -0.5634

  Mulliken Charges: (a.u.)
   Center  Symbol    Alpha    Beta     Spin     Total
       1     H     0.39372  0.39372  0.00000  0.21255
       2     O     4.20379  4.20379  0.00000 -0.40757
       3     C     2.95031  2.95031  0.00000  0.09938
       4     C     2.97896  2.97896  0.00000  0.04209
       5     H     0.46482  0.46482  0.00000  0.07036
       6     H     0.46819  0.46819  0.00000  0.06362
       7     O     4.17131  4.17131  0.00000 -0.34262
       8     H     0.47247  0.47247  0.00000  0.05506
       9     H     0.47773  0.47773  0.00000  0.04454
      10     C     3.03364  3.03364  0.00000 -0.06727
      11     H     0.47009  0.47009  0.00000  0.05983
      12     H     0.44457  0.44457  0.00000  0.11087
      13     H     0.47042  0.47042  0.00000  0.05916

   Total alpha = 21.00000, Total beta = 21.00000, Total charge =  0.00000


*** Psi4 exiting successfully. Buy a developer a beer!
