    -----------------------------------------------------------------------
          Psi4: An Open-Source Ab Initio Electronic Structure Package
                              Psi4 1.0.54 Driver

                          Git: Rev {master} 8d4cec3 dirty

    J. M. Turney, A. C. Simmonett, R. M. Parrish, E. G. Hohenstein,
    F. A. Evangelista, J. T. Fermann, B. J. Mintz, L. A. Burns, J. J. Wilke,
    M. L. Abrams, N. J. Russ, M. L. Leininger, C. L. Janssen, E. T. Seidl,
    W. D. Allen, H. F. Schaefer, R. A. King, E. F. Valeev, C. D. Sherrill,
    and T. D. Crawford, WIREs Comput. Mol. Sci. 2, 556-565 (2012)
    (doi: 10.1002/wcms.93)

                         Additional Contributions by
    A. E. DePrince, U. Bozkaya, A. Yu. Sokolov, D. G. A. Smith, R. Di Remigio,
    R. M. Richard, J. F. Gonthier, H. R. McAlexander, M. Saitow, and
    B. P. Pritchard
    -----------------------------------------------------------------------


    Psi4 started on: Sat Sep 10 17:45:46 2016

    Process ID:   3370
    PSI4DATADIR: /export131/home/mjharvey/miniconda3/share/psi4
    Memory level set to 256.000 MB

  ==> Input File <==

--------------------------------------------------------------------------
set {
	reference rhf
	basis cc-pvtz
}


set_num_threads( 4 )
memory 2 gb

molecule MOL {
0 1

O	 -1.995610	 -0.469973	 0.563433
C	 -1.081510	 0.147522	 0.122720
C	 0.327029	 -0.064006	 0.641890
C	 -1.273462	 1.183911	 -0.958631
C	 1.349460	 -0.017068	 -0.500215
H	 0.399029	 -1.014606	 1.159950
H	 0.538021	 0.726928	 1.350471
C	 2.779782	 -0.209014	 -0.009215
H	 1.115007	 -0.782959	 -1.233891
H	 1.259071	 0.936707	 -1.006644
H	 3.481860	 -0.160270	 -0.833072
H	 2.903471	 -1.171535	 0.475559
H	 3.052569	 0.559584	 0.705428
H	 -0.795860	 2.117549	 -0.682999
H	 -2.325518	 1.344834	 -1.136901
H	 -0.799479	 0.839060	 -1.872015

	symmetry c1
}
set optking {
	frozen_dihedral = ("
		4 2 3 5
	")
}

ee,wfn = optimize('scf', return_wfn=True)
oeprop( wfn, 'DIPOLE', 'QUADRUPOLE', 'MULLIKEN_CHARGES')
f=open( 'psi4out.xyz', 'w' )
f.write( "16  " )
f.write( str(ee) + "\n" )
f.write( MOL.save_string_xyz() )
f.close()
--------------------------------------------------------------------------

  Memory set to   2.000 GiB by Python script.
gradient() will perform analytic gradient computation.

*** tstart() called on cx1-27-3-4
*** at Sat Sep 10 17:45:46 2016


         ---------------------------------------------------------
                                   SCF
            by Justin Turney, Rob Parrish, and Andy Simmonett
                              RHF Reference
                        4 Threads,   2000 MiB Core
         ---------------------------------------------------------

  ==> Geometry <==

    Molecular point group: c1
    Full point group: C1

    Geometry (in Angstrom), charge = 0, multiplicity = 1:

       Center              X                  Y                   Z               Mass       
    ------------   -----------------  -----------------  -----------------  -----------------
           O         -2.021090974921    -0.567573945267     0.592797765587    15.994914619560
           C         -1.106990974921     0.049921054733     0.152084765587    12.000000000000
           C          0.301548025079    -0.161606945267     0.671254765587    12.000000000000
           C         -1.298942974921     1.086310054733    -0.929266234413    12.000000000000
           C          1.323979025079    -0.114668945267    -0.470850234413    12.000000000000
           H          0.373548025079    -1.112206945267     1.189314765587     1.007825032070
           H          0.512540025079     0.629327054733     1.379835765587     1.007825032070
           C          2.754301025079    -0.306614945267     0.020149765587    12.000000000000
           H          1.089526025079    -0.880559945267    -1.204526234413     1.007825032070
           H          1.233590025079     0.839106054733    -0.977279234413     1.007825032070
           H          3.456379025079    -0.257870945267    -0.803707234413     1.007825032070
           H          2.877990025079    -1.269135945267     0.504923765587     1.007825032070
           H          3.027088025079     0.461983054733     0.734792765587     1.007825032070
           H         -0.821340974921     2.019948054733    -0.653634234413     1.007825032070
           H         -2.350998974921     1.247233054733    -1.107536234413     1.007825032070
           H         -0.824959974921     0.741459054733    -1.842650234413     1.007825032070

  Running in c1 symmetry.

  Rotational constants: A =      0.25191  B =      0.06355  C =      0.05406 [cm^-1]
  Rotational constants: A =   7551.94373  B =   1905.10620  C =   1620.77423 [MHz]
  Nuclear repulsion =  238.682502685837932

  Charge       = 0
  Multiplicity = 1
  Electrons    = 48
  Nalpha       = 24
  Nbeta        = 24

  ==> Algorithm <==

  SCF Algorithm Type is DF.
  DIIS enabled.
  MOM disabled.
  Fractional occupation disabled.
  Guess Type is SAD.
  Energy threshold   = 1.00e-08
  Density threshold  = 1.00e-08
  Integral threshold = 0.00e+00

  ==> Primary Basis <==

  Basis Set: CC-PVTZ
    Number of shells: 120
    Number of basis function: 320
    Number of Cartesian functions: 360
    Spherical Harmonics?: true
    Max angular momentum: 3

  ==> Pre-Iterations <==

   -------------------------------------------------------
    Irrep   Nso     Nmo     Nalpha   Nbeta   Ndocc  Nsocc
   -------------------------------------------------------
     A        320     320       0       0       0       0
   -------------------------------------------------------
    Total     320     320      24      24      24       0
   -------------------------------------------------------

  ==> Integral Setup <==

  ==> DFJK: Density-Fitted J/K Matrices <==

    J tasked:                  Yes
    K tasked:                  Yes
    wK tasked:                  No
    OpenMP threads:              4
    Integrals threads:           4
    Memory (MB):              1430
    Algorithm:                Core
    Integral Cache:           NONE
    Schwarz Cutoff:          1E-12
    Fitting Condition:       1E-12

   => Auxiliary Basis Set <=

  Basis Set: 
    Number of shells: 250
    Number of basis function: 774
    Number of Cartesian functions: 926
    Spherical Harmonics?: true
    Max angular momentum: 4

  Minimum eigenvalue in the overlap matrix is 3.7029241404E-04.
  Using Symmetric Orthogonalization.
  SCF Guess: Superposition of Atomic Densities via on-the-fly atomic UHF.

  ==> Iterations <==

                           Total Energy        Delta E     RMS |[F,P]|

   @DF-RHF iter   0:  -272.61960339065263   -2.72620e+02   1.47452e-02 
   @DF-RHF iter   1:  -269.94310739833065    2.67650e+00   1.51240e-03 
   @DF-RHF iter   2:  -270.08514859124273   -1.42041e-01   8.88033e-04 DIIS
   @DF-RHF iter   3:  -270.11704679884099   -3.18982e-02   3.04663e-04 DIIS
   @DF-RHF iter   4:  -270.12533212870994   -8.28533e-03   7.54624e-05 DIIS
   @DF-RHF iter   5:  -270.12609265522735   -7.60527e-04   2.93607e-05 DIIS
   @DF-RHF iter   6:  -270.12622929045722   -1.36635e-04   1.22415e-05 DIIS
   @DF-RHF iter   7:  -270.12625668388966   -2.73934e-05   4.43696e-06 DIIS
   @DF-RHF iter   8:  -270.12626236224719   -5.67836e-06   1.70728e-06 DIIS
   @DF-RHF iter   9:  -270.12626322205244   -8.59805e-07   7.78728e-07 DIIS
   @DF-RHF iter  10:  -270.12626339621602   -1.74164e-07   2.76661e-07 DIIS
   @DF-RHF iter  11:  -270.12626341610724   -1.98912e-08   7.96037e-08 DIIS
   @DF-RHF iter  12:  -270.12626341702071   -9.13474e-10   2.43770e-08 DIIS
   @DF-RHF iter  13:  -270.12626341710609   -8.53788e-11   7.91322e-09 DIIS

  ==> Post-Iterations <==

    Orbital Energies (a.u.)
    -----------------------

    Doubly Occupied:                                                      

       1A    -20.536659     2A    -11.319726     3A    -11.231834  
       4A    -11.229500     5A    -11.227374     6A    -11.218960  
       7A     -1.396553     8A     -1.089569     9A     -1.010966  
      10A     -0.952125    11A     -0.833289    12A     -0.736377  
      13A     -0.659865    14A     -0.655920    15A     -0.624654  
      16A     -0.604176    17A     -0.578756    18A     -0.554278  
      19A     -0.540676    20A     -0.519913    21A     -0.507431  
      22A     -0.486052    23A     -0.477423    24A     -0.400049  

    Virtual:                                                              

      25A      0.127396    26A      0.155208    27A      0.156998  
      28A      0.174778    29A      0.181004    30A      0.201785  
      31A      0.215852    32A      0.226683    33A      0.231329  
      34A      0.242094    35A      0.259333    36A      0.289916  
      37A      0.314890    38A      0.352017    39A      0.363074  
      40A      0.366456    41A      0.379670    42A      0.387958  
      43A      0.411750    44A      0.452823    45A      0.456662  
      46A      0.488018    47A      0.510405    48A      0.543715  
      49A      0.558604    50A      0.571189    51A      0.587968  
      52A      0.592664    53A      0.605084    54A      0.612801  
      55A      0.620778    56A      0.629353    57A      0.640918  
      58A      0.649989    59A      0.655548    60A      0.667030  
      61A      0.675690    62A      0.680600    63A      0.687435  
      64A      0.703331    65A      0.725072    66A      0.756677  
      67A      0.772548    68A      0.816693    69A      0.830998  
      70A      0.868542    71A      0.870543    72A      0.893122  
      73A      0.910406    74A      0.917206    75A      0.954658  
      76A      0.964157    77A      1.023147    78A      1.024032  
      79A      1.076731    80A      1.079319    81A      1.091082  
      82A      1.106088    83A      1.119816    84A      1.146783  
      85A      1.155506    86A      1.193709    87A      1.210296  
      88A      1.218294    89A      1.241602    90A      1.259648  
      91A      1.265739    92A      1.285652    93A      1.293762  
      94A      1.304481    95A      1.320009    96A      1.327351  
      97A      1.346372    98A      1.355604    99A      1.371413  
     100A      1.394395   101A      1.416310   102A      1.430745  
     103A      1.441759   104A      1.458802   105A      1.476171  
     106A      1.486910   107A      1.506800   108A      1.514330  
     109A      1.529937   110A      1.542297   111A      1.553195  
     112A      1.561204   113A      1.575575   114A      1.583993  
     115A      1.609440   116A      1.649983   117A      1.662630  
     118A      1.675241   119A      1.691954   120A      1.737396  
     121A      1.741736   122A      1.771622   123A      1.798309  
     124A      1.840128   125A      1.846010   126A      1.876123  
     127A      1.904401   128A      1.980442   129A      2.041535  
     130A      2.112618   131A      2.173200   132A      2.307684  
     133A      2.443674   134A      2.471659   135A      2.490351  
     136A      2.524628   137A      2.541737   138A      2.590376  
     139A      2.598707   140A      2.655590   141A      2.669365  
     142A      2.699795   143A      2.703310   144A      2.766751  
     145A      2.786476   146A      2.790449   147A      2.830895  
     148A      2.841083   149A      2.852645   150A      2.886685  
     151A      2.892287   152A      2.897737   153A      2.946464  
     154A      2.956837   155A      2.985948   156A      3.013015  
     157A      3.018895   158A      3.050158   159A      3.090002  
     160A      3.101724   161A      3.109190   162A      3.125134  
     163A      3.141712   164A      3.176789   165A      3.179847  
     166A      3.211280   167A      3.223589   168A      3.225360  
     169A      3.236458   170A      3.259181   171A      3.298010  
     172A      3.305338   173A      3.314965   174A      3.328088  
     175A      3.344602   176A      3.367297   177A      3.390961  
     178A      3.403348   179A      3.413229   180A      3.419935  
     181A      3.434125   182A      3.435410   183A      3.451533  
     184A      3.458727   185A      3.476526   186A      3.491492  
     187A      3.523427   188A      3.537054   189A      3.556956  
     190A      3.561023   191A      3.572865   192A      3.631929  
     193A      3.644946   194A      3.647629   195A      3.661031  
     196A      3.692190   197A      3.720950   198A      3.757926  
     199A      3.763671   200A      3.774624   201A      3.777408  
     202A      3.793385   203A      3.800149   204A      3.812998  
     205A      3.869352   206A      3.895354   207A      3.903170  
     208A      3.922070   209A      3.951405   210A      3.978908  
     211A      3.998575   212A      4.013172   213A      4.022645  
     214A      4.071297   215A      4.080969   216A      4.089166  
     217A      4.116731   218A      4.129013   219A      4.146018  
     220A      4.153066   221A      4.182263   222A      4.187615  
     223A      4.197048   224A      4.219446   225A      4.225270  
     226A      4.246110   227A      4.261703   228A      4.289455  
     229A      4.299406   230A      4.323406   231A      4.347077  
     232A      4.365872   233A      4.371824   234A      4.402853  
     235A      4.407630   236A      4.428355   237A      4.430591  
     238A      4.456540   239A      4.471283   240A      4.479691  
     241A      4.504742   242A      4.548008   243A      4.568147  
     244A      4.591466   245A      4.607821   246A      4.620361  
     247A      4.629062   248A      4.643846   249A      4.667794  
     250A      4.672273   251A      4.711850   252A      4.718729  
     253A      4.750242   254A      4.762907   255A      4.829933  
     256A      4.843725   257A      4.889490   258A      4.921988  
     259A      4.972102   260A      4.990056   261A      5.028772  
     262A      5.080550   263A      5.134245   264A      5.157577  
     265A      5.162953   266A      5.193813   267A      5.230989  
     268A      5.244534   269A      5.263710   270A      5.267266  
     271A      5.314522   272A      5.346608   273A      5.365282  
     274A      5.407080   275A      5.431567   276A      5.442832  
     277A      5.482022   278A      5.514660   279A      5.537490  
     280A      5.566428   281A      5.586618   282A      5.594158  
     283A      5.636773   284A      5.642572   285A      5.657172  
     286A      5.706946   287A      5.725566   288A      5.739453  
     289A      5.758243   290A      5.767255   291A      5.780567  
     292A      5.804853   293A      5.858436   294A      5.884186  
     295A      5.897441   296A      5.928770   297A      5.989846  
     298A      6.040081   299A      6.125943   300A      6.245124  
     301A      6.289315   302A      6.303723   303A      6.313846  
     304A      6.330257   305A      6.348871   306A      6.428079  
     307A      6.823448   308A      6.830684   309A      6.946596  
     310A      7.019728   311A      7.234420   312A      7.390878  
     313A      7.572074   314A      7.606058   315A      9.799126  
     316A     13.288445   317A     13.682587   318A     14.164380  
     319A     14.348712   320A     14.437918  

    Final Occupation by Irrep:
              A 
    DOCC [    24 ]

  Energy converged.

  @DF-RHF Final Energy:  -270.12626341710609

   => Energetics <=

    Nuclear Repulsion Energy =            238.6825026858379317
    One-Electron Energy =                -838.8332746495516403
    Two-Electron Energy =                 330.0245085466075921
    DFT Exchange-Correlation Energy =       0.0000000000000000
    Empirical Dispersion Energy =           0.0000000000000000
    PCM Polarization Energy =               0.0000000000000000
    EFP Energy =                            0.0000000000000000
    Total Energy =                       -270.1262634171061450


  Saving occupied orbitals to File 180.

*** tstop() called on cx1-27-3-4 at Sat Sep 10 17:45:54 2016
Module time:
	user time   =      24.92 seconds =       0.42 minutes
	system time =       0.66 seconds =       0.01 minutes
	total time  =          8 seconds =       0.13 minutes
Total time:
	user time   =      24.92 seconds =       0.42 minutes
	system time =       0.66 seconds =       0.01 minutes
	total time  =          8 seconds =       0.13 minutes


Properties will be evaluated at   0.000000,   0.000000,   0.000000 Bohr

Properties computed using the SCF density matrix

  Nuclear Dipole Moment: (a.u.)
     X:     8.0276      Y:     2.2653      Z:    -2.6038

  Electronic Dipole Moment: (a.u.)
     X:    -6.9975      Y:    -1.6320      Z:     2.1132

  Dipole Moment: (a.u.)
     X:     1.0301      Y:     0.6333      Z:    -0.4905     Total:     1.3049

  Dipole Moment: (Debye)
     X:     2.6182      Y:     1.6097      Z:    -1.2468     Total:     3.3167


*** tstart() called on cx1-27-3-4
*** at Sat Sep 10 17:45:54 2016


         ------------------------------------------------------------
                                   SCF GRAD                          
                          Rob Parrish, Justin Turney,                
                       Andy Simmonett, and Alex Sokolov              
         ------------------------------------------------------------

  ==> Geometry <==

    Molecular point group: c1
    Full point group: C1

    Geometry (in Angstrom), charge = 0, multiplicity = 1:

       Center              X                  Y                   Z               Mass       
    ------------   -----------------  -----------------  -----------------  -----------------
           O         -2.021090974921    -0.567573945267     0.592797765587    15.994914619560
           C         -1.106990974921     0.049921054733     0.152084765587    12.000000000000
           C          0.301548025079    -0.161606945267     0.671254765587    12.000000000000
           C         -1.298942974921     1.086310054733    -0.929266234413    12.000000000000
           C          1.323979025079    -0.114668945267    -0.470850234413    12.000000000000
           H          0.373548025079    -1.112206945267     1.189314765587     1.007825032070
           H          0.512540025079     0.629327054733     1.379835765587     1.007825032070
           C          2.754301025079    -0.306614945267     0.020149765587    12.000000000000
           H          1.089526025079    -0.880559945267    -1.204526234413     1.007825032070
           H          1.233590025079     0.839106054733    -0.977279234413     1.007825032070
           H          3.456379025079    -0.257870945267    -0.803707234413     1.007825032070
           H          2.877990025079    -1.269135945267     0.504923765587     1.007825032070
           H          3.027088025079     0.461983054733     0.734792765587     1.007825032070
           H         -0.821340974921     2.019948054733    -0.653634234413     1.007825032070
           H         -2.350998974921     1.247233054733    -1.107536234413     1.007825032070
           H         -0.824959974921     0.741459054733    -1.842650234413     1.007825032070

  Nuclear repulsion =  238.682502685837932

  ==> Basis Set <==

  Basis Set: CC-PVTZ
    Number of shells: 120
    Number of basis function: 320
    Number of Cartesian functions: 360
    Spherical Harmonics?: true
    Max angular momentum: 3

  ==> DFJKGrad: Density-Fitted SCF Gradients <==

    Gradient:                    1
    J tasked:                  Yes
    K tasked:                  Yes
    wK tasked:                  No
    OpenMP threads:              4
    Integrals threads:           4
    Memory (MB):              1430
    Schwarz Cutoff:          0E+00
    Fitting Condition:       1E-12

   => Auxiliary Basis Set <=

  Basis Set: 
    Number of shells: 250
    Number of basis function: 774
    Number of Cartesian functions: 926
    Spherical Harmonics?: true
    Max angular momentum: 4


  -Total Gradient:
     Atom            X                  Y                   Z
    ------   -----------------  -----------------  -----------------
       1        0.001637592369    -0.000097657302     0.001951749154
       2        0.002439389294     0.003839596758    -0.008978862059
       3       -0.004329270618     0.002824983509     0.013880502616
       4        0.001152103237    -0.000218253179     0.001936751500
       5       -0.004659352663    -0.001451675037    -0.005149492146
       6        0.005442384441    -0.003263257117    -0.000660800164
       7       -0.000576943520    -0.001878023585    -0.002343964189
       8       -0.000147786137     0.000006694366     0.001191071002
       9        0.000589847484     0.000056406551    -0.000576225199
      10       -0.004456387626     0.001440215706     0.000357358696
      11       -0.000398198259     0.000138487671    -0.000182932611
      12        0.000198944124    -0.000289569521     0.000054097646
      13       -0.000174670846    -0.000091802672    -0.000228091320
      14        0.000632475871    -0.000182630641     0.000096376883
      15       -0.000035920629     0.000654326313    -0.000975747525
      16        0.002685793473    -0.001487841818    -0.000371792286


*** tstop() called on cx1-27-3-4 at Sat Sep 10 17:46:00 2016
Module time:
	user time   =      23.77 seconds =       0.40 minutes
	system time =       0.50 seconds =       0.01 minutes
	total time  =          6 seconds =       0.10 minutes
Total time:
	user time   =      48.77 seconds =       0.81 minutes
	system time =       1.16 seconds =       0.02 minutes
	total time  =         14 seconds =       0.23 minutes

			-----------------------------------------
			 OPTKING 2.0: for geometry optimizations 
			  - R.A. King,  Bethel University        
			-----------------------------------------

	Internal coordinates to be generated automatically.
	Detected frag 1 with atoms:  1 2 3 4 5 6 7 8 9 10 11 12 13 14 15 16
	---Fragment 1 Bond Connectivity---
	 1 : 2
	 2 : 1 3 4
	 3 : 2 5 6 7
	 4 : 2 14 15 16
	 5 : 3 8 9 10
	 6 : 3
	 7 : 3
	 8 : 5 11 12 13
	 9 : 5
	 10 : 5
	 11 : 8
	 12 : 8
	 13 : 8
	 14 : 4
	 15 : 4
	 16 : 4

	Assuming in current code that numbering for constraints corresponds to unified fragment.
	Frozen dihedral atom list: 
	     4     2     3     5
	---Fragment 1 Geometry and Gradient---
	 O          -3.8193084322       -1.0725593167        1.1202254291
	 C          -2.0919097742        0.0943371217        0.2873985559
	 C           0.5698431833       -0.3053928677        1.2684876724
	 C          -2.4546464848        2.0528284988       -1.7560586876
	 C           2.5019577631       -0.2166929025       -0.8897779926
	 H           0.7059034649       -2.1017665296        2.2474791928
	 H           0.9685602795        1.1892557815        2.6075117053
	 C           5.2048746249       -0.5794182748        0.0380775386
	 H           2.0589058020       -1.6640171401       -2.2762247029
	 H           2.3311473077        1.5856806399       -1.8467901084
	 H           6.5316097688       -0.4873054642       -1.5187865641
	 H           5.4386129606       -2.3983193620        0.9541676349
	 H           5.7203673475        0.8730214515        1.3885570914
	 H          -1.5521095043        3.8171486261       -1.2351896941
	 H          -4.4427442013        2.3569288973       -2.0929401653
	 H          -1.5589484232        1.4011545522       -3.4821043017
	             0.0016375924       -0.0000976573        0.0019517492
	             0.0024393893        0.0038395968       -0.0089788621
	            -0.0043292706        0.0028249835        0.0138805026
	             0.0011521032       -0.0002182532        0.0019367515
	            -0.0046593527       -0.0014516750       -0.0051494921
	             0.0054423844       -0.0032632571       -0.0006608002
	            -0.0005769435       -0.0018780236       -0.0023439642
	            -0.0001477861        0.0000066944        0.0011910710
	             0.0005898475        0.0000564066       -0.0005762252
	            -0.0044563876        0.0014402157        0.0003573587
	            -0.0003981983        0.0001384877       -0.0001829326
	             0.0001989441       -0.0002895695        0.0000540976
	            -0.0001746708       -0.0000918027       -0.0002280913
	             0.0006324759       -0.0001826306        0.0000963769
	            -0.0000359206        0.0006543263       -0.0009757475
	             0.0026857935       -0.0014878418       -0.0003717923

	Previous optimization step data not found.  Starting new optimization.

	---Fragment 1 Intrafragment Coordinates---
	 - Coordinate -           - BOHR/RAD -       - ANG/DEG -
	 R(1,2)           =         2.244806	       1.187900
	 R(2,3)           =         2.864830	       1.516003
	 R(2,4)           =         2.853591	       1.510056
	 R(3,5)           =         2.898111	       1.533614
	 R(3,6)           =         2.050340	       1.084993
	 R(3,7)           =         2.045956	       1.082673
	 R(4,14)          =         2.049074	       1.084323
	 R(4,15)          =         2.039240	       1.079119
	 R(4,16)          =         2.050899	       1.085289
	 R(5,8)           =         2.880667	       1.524384
	 R(5,9)           =         2.052627	       1.086203
	 R(5,10)          =         2.047828	       1.083664
	 R(8,11)          =         2.047568	       1.083527
	 R(8,12)          =         2.049940	       1.084782
	 R(8,13)          =         2.049173	       1.084376
	 B(1,2,3)         =         2.112245	     121.022709
	 B(1,2,4)         =         2.123069	     121.642901
	 B(2,3,5)         =         1.939190	     111.107380
	 B(2,3,6)         =         1.925615	     110.329585
	 B(2,3,7)         =         1.878914	     107.653821
	 B(2,4,14)        =         1.931495	     110.666526
	 B(2,4,15)        =         1.922583	     110.155864
	 B(2,4,16)        =         1.906122	     109.212768
	 B(3,2,4)         =         2.047782	     117.329284
	 B(3,5,8)         =         1.962560	     112.446397
	 B(3,5,9)         =         1.915095	     109.726843
	 B(3,5,10)        =         1.895847	     108.624059
	 B(5,3,6)         =         1.915756	     109.764741
	 B(5,3,7)         =         1.912523	     109.579472
	 B(5,8,11)        =         1.936283	     110.940845
	 B(5,8,12)        =         1.941909	     111.263203
	 B(5,8,13)        =         1.938061	     111.042700
	 B(6,3,7)         =         1.890854	     108.337926
	 B(8,5,9)         =         1.908481	     109.347886
	 B(8,5,10)        =         1.917303	     109.853373
	 B(9,5,10)        =         1.861818	     106.674328
	 B(11,8,12)       =         1.881600	     107.807735
	 B(11,8,13)       =         1.882006	     107.830975
	 B(12,8,13)       =         1.881481	     107.800918
	 B(14,4,15)       =         1.920912	     110.060177
	 B(14,4,16)       =         1.870422	     107.167292
	 B(15,4,16)       =         1.911482	     109.519834
	 D(1,2,3,5)       =         2.457578	     140.808870
	 D(1,2,3,6)       =         0.328682	      18.832086
	 D(1,2,3,7)       =        -1.731422	     -99.203154
	 D(1,2,4,14)      =         2.260837	     129.536402
	 D(1,2,4,15)      =         0.132659	       7.600787
	 D(1,2,4,16)      =        -1.967332	    -112.719798
	 D(2,3,5,8)       =         3.128937	     179.274883
	 D(2,3,5,9)       =        -1.026094	     -58.790855
	 D(2,3,5,10)      =         1.003096	      57.473153
	 D(3,2,4,14)      =        -0.866546	     -49.649401
	 D(3,2,4,15)      =        -2.994723	    -171.585016
	 D(3,2,4,16)      =         1.188471	      68.094399
	 D(3,5,8,11)      =        -3.130235	    -179.349238
	 D(3,5,8,12)      =         1.058221	      60.631603
	 D(3,5,8,13)      =        -1.037552	     -59.447337
	*D(4,2,3,5)       =        -0.698131	     -39.999979
	 D(4,2,3,6)       =        -2.827028	    -161.976763
	 D(4,2,3,7)       =         1.396054	      79.987997
	 D(6,3,5,8)       =        -1.019626	     -58.420277
	 D(6,3,5,9)       =         1.108528	      63.513984
	 D(6,3,5,10)      =         3.137718	     179.777992
	 D(7,3,5,8)       =         1.054835	      60.437598
	 D(7,3,5,9)       =        -3.100196	    -177.628140
	 D(7,3,5,10)      =        -1.071006	     -61.364132
	 D(9,5,8,11)      =         1.021046	      58.501645
	 D(9,5,8,12)      =        -1.073683	     -61.517515
	 D(9,5,8,13)      =         3.113729	     178.403545
	 D(10,5,8,11)     =        -1.016636	     -58.248975
	 D(10,5,8,12)     =        -3.111366	    -178.268135
	 D(10,5,8,13)     =         1.076047	      61.652926

	Current energy   :      -270.1262634171

	Generating empirical Hessian (Schlegel '84) for each fragment.
	Taking RFO optimization step.
	Going to follow RFO solution 1.
	Using RFO vector 1.
	Norm of target step-size    0.30464
	Projected energy change by RFO approximation:        -0.0075147869

	Back-transformation to cartesian coordinates...
	Could not converge backtransformation.
	Using first guess instead.

	Back-transformation to cartesian coordinates to adjust frozen coordinates...
	Successfully converged to displaced geometry.

	--- Internal Coordinate Step in ANG or DEG, aJ/ANG or AJ/DEG ---
	 ---------------------------------------------------------------------------
	   Coordinate                Previous        Force       Change         New 
	   ----------                --------       ------       ------       ------
	    1 R(1,2)          =      1.187900     0.003998     0.002549     1.190449
	    2 R(2,3)          =      1.516003     0.044378     0.011586     1.527589
	    3 R(2,4)          =      1.510056     0.015669     0.009427     1.519483
	    4 R(3,5)          =      1.533614     0.021923     0.007611     1.541225
	    5 R(3,6)          =      1.084993    -0.023931    -0.003343     1.081651
	    6 R(3,7)          =      1.082673     0.024868     0.004497     1.087170
	    7 R(4,14)         =      1.084323    -0.001201     0.001736     1.086059
	    8 R(4,15)         =      1.079119    -0.002420     0.007417     1.086536
	    9 R(4,16)         =      1.085289    -0.016137     0.003062     1.088351
	   10 R(5,8)          =      1.524384     0.001574     0.006837     1.531221
	   11 R(5,9)          =      1.086203    -0.001830     0.000605     1.086808
	   12 R(5,10)         =      1.083664    -0.012130     0.004421     1.088085
	   13 R(8,11)         =      1.083527     0.000928     0.002884     1.086410
	   14 R(8,12)         =      1.084782    -0.002503     0.004219     1.089001
	   15 R(8,13)         =      1.084376     0.002137     0.001689     1.086065
	   16 B(1,2,3)        =    121.022709    -0.000175    -0.536886   120.485823
	   17 B(1,2,4)        =    121.642901    -0.000563    -1.628092   120.014810
	   18 B(2,3,5)        =    111.107380     0.001825     6.626366   117.733746
	   19 B(2,3,6)        =    110.329585    -0.000925    -4.166258   106.163327
	   20 B(2,3,7)        =    107.653821    -0.000448    -0.914077   106.739744
	   21 B(2,4,14)       =    110.666526     0.000047     0.198423   110.864949
	   22 B(2,4,15)       =    110.155864    -0.000202    -1.202742   108.953122
	   23 B(2,4,16)       =    109.212768     0.000243     1.549415   110.762183
	   24 B(3,2,4)        =    117.329284     0.000738     2.168847   119.498131
	   25 B(3,5,8)        =    112.446397    -0.000021    -0.171988   112.274409
	   26 B(3,5,9)        =    109.726843    -0.000090    -0.828813   108.898030
	   27 B(3,5,10)       =    108.624059     0.000265     2.285079   110.909138
	   28 B(5,3,6)        =    109.764741    -0.000197     0.556089   110.320829
	   29 B(5,3,7)        =    109.579472    -0.000481    -1.117502   108.461970
	   30 B(5,8,11)       =    110.940845     0.000052     0.292223   111.233067
	   31 B(5,8,12)       =    111.263203    -0.000029    -0.172533   111.090670
	   32 B(5,8,13)       =    111.042700     0.000010     0.158050   111.200750
	   33 B(6,3,7)        =    108.337926     0.000183    -1.455921   106.882005
	   34 B(8,5,9)        =    109.347886     0.000044    -0.233813   109.114072
	   35 B(8,5,10)       =    109.853373    -0.000204    -1.102800   108.750573
	   36 B(9,5,10)       =    106.674328     0.000007     0.054010   106.728338
	   37 B(11,8,12)      =    107.807735    -0.000011     0.111489   107.919224
	   38 B(11,8,13)      =    107.830975    -0.000021    -0.264602   107.566373
	   39 B(12,8,13)      =    107.800918    -0.000002    -0.141023   107.659895
	   40 B(14,4,15)      =    110.060177     0.000007    -0.055948   110.004229
	   41 B(14,4,16)      =    107.167292    -0.000023     0.011002   107.178294
	   42 B(15,4,16)      =    109.519834    -0.000065    -0.468619   109.051215
	   43 D(1,2,3,5)      =    140.808870     0.000004    -1.213292   139.595578
	   44 D(1,2,3,6)      =     18.832086    -0.000077    -3.353213    15.478873
	   45 D(1,2,3,7)      =    -99.203154     0.000052     0.922046   -98.281107
	   46 D(1,2,4,14)     =    129.536402    -0.000014     2.146762   131.683164
	   47 D(1,2,4,15)     =      7.600787     0.000008     2.885594    10.486381
	   48 D(1,2,4,16)     =   -112.719798     0.000020     3.253529  -109.466269
	   49 D(2,3,5,8)      =    179.274883     0.000030     5.247726   184.522610
	   50 D(2,3,5,9)      =    -58.790855     0.000025     4.260148   -54.530707
	   51 D(2,3,5,10)     =     57.473153     0.000050     5.155638    62.628790
	   52 D(3,2,4,14)     =    -49.649401    -0.000010     0.930056   -48.719345
	   53 D(3,2,4,15)     =   -171.585016     0.000012     1.668888  -169.916127
	   54 D(3,2,4,16)     =     68.094399     0.000024     2.036824    70.131223
	   55 D(3,5,8,11)     =   -179.349238    -0.000023    -1.238797  -180.588035
	   56 D(3,5,8,12)     =     60.631603    -0.000023    -1.460396    59.171206
	   57 D(3,5,8,13)     =    -59.447337    -0.000019    -1.272510   -60.719847
	   58 *D(4,2,3,5)     =    -39.999979    -0.000000    -0.000000   -39.999979
	   59 D(4,2,3,6)      =   -161.976763    -0.000081    -2.139921  -164.116684
	   60 D(4,2,3,7)      =     79.987997     0.000048     2.135338    82.123335
	   61 D(6,3,5,8)      =    -58.420277     0.000011     4.953969   -53.466308
	   62 D(6,3,5,9)      =     63.513984     0.000006     3.966390    67.480375
	   63 D(6,3,5,10)     =    179.777992     0.000031     4.861880   184.639872
	   64 D(7,3,5,8)      =     60.437598    -0.000032     2.847032    63.284630
	   65 D(7,3,5,9)      =   -177.628140    -0.000037     1.859454  -175.768687
	   66 D(7,3,5,10)     =    -61.364132    -0.000012     2.754943   -58.609189
	   67 D(9,5,8,11)     =     58.501645    -0.000000     0.088052    58.589697
	   68 D(9,5,8,12)     =    -61.517515    -0.000001    -0.133547   -61.651061
	   69 D(9,5,8,13)     =    178.403545     0.000003     0.054339   178.457885
	   70 D(10,5,8,11)    =    -58.248975     0.000019     0.776484   -57.472491
	   71 D(10,5,8,12)    =   -178.268135     0.000018     0.554885  -177.713250
	   72 D(10,5,8,13)    =     61.652926     0.000022     0.742771    62.395696
	 ---------------------------------------------------------------------------
	Successfully symmetrized geometry.

  ==> Convergence Check <==

  Measures of convergence in internal coordinates in au.
  Criteria marked as inactive (o), active & met (*), and active & unmet ( ).
  --------------------------------------------------------------------------------------------- ~
   Step     Total Energy     Delta E     MAX Force     RMS Force      MAX Disp      RMS Disp    ~
  --------------------------------------------------------------------------------------------- ~
    Convergence Criteria    1.00e-06 *    3.00e-04 *             o    1.20e-03 *             o  ~
  --------------------------------------------------------------------------------------------- ~
      1    -270.12626342   -2.70e+02      2.40e-02      4.02e-03 o    1.16e-01      3.60e-02 o  ~
  ---------------------------------------------------------------------------------------------

	Writing optimization data to binary file.
	Structure for next step:
	Cartesian Geometry (in Angstrom)
	    O    -1.9843594851  -0.5828450403   0.6278233508
	    C    -1.1166132788   0.0721616256   0.1428982925
	    C     0.3326854969  -0.1076650054   0.5909191325
	    C    -1.4452508016   1.0897723625  -0.9365893962
	    C     1.4280000765  -0.0727516280  -0.4927974463
	    H     0.3671832960  -1.0448851651   1.1298033117
	    H     0.5372583038   0.6792192806   1.3126549457
	    C     2.8171634829  -0.3748162583   0.0760784784
	    H     1.1895304511  -0.8066772461  -1.2580672033
	    H     1.4553173514   0.8966395370  -0.9862180448
	    H     3.5740298333  -0.3559529794  -0.7030778698
	    H     2.8434372718  -1.3573358111   0.5450012408
	    H     3.1015462065   0.3563951113   0.8270734257
	    H    -0.9798305838   2.0469513842  -0.7204513196
	    H    -2.5239609868   1.2058506077  -0.9955060271
	    H    -1.0699722326   0.7609881004  -1.9038406218
			--------------------------
			 OPTKING Finished Execution 
			--------------------------

    Structure for next step:
    Molecular point group: c1
    Full point group: C1

    Geometry (in Angstrom), charge = 0, multiplicity = 1:

    O           -1.996130495568    -0.587000600609     0.629752848172
    C           -1.128384289234     0.068006065289     0.144827789786
    C            0.320914486471    -0.111820565775     0.592848629835
    C           -1.457021811989     1.085616802136    -0.934659898818
    C            1.416229066080    -0.076907188325    -0.490867948926
    H            0.355412285545    -1.049040725418     1.131732809065
    H            0.525487293399     0.675063720227     1.314584443076
    C            2.805392472487    -0.378971818669     0.078007975700
    H            1.177759440635    -0.810832806406    -1.256137705923
    H            1.443546340956     0.892483976709    -0.984288547452
    H            3.562258822918    -0.360108539779    -0.701148372434
    H            2.831666261345    -1.361491371403     0.546930738135
    H            3.089775196037     0.352239550954     0.829002923078
    H           -0.991601594256     2.042795823857    -0.718521822298
    H           -2.535731997247     1.201695047398    -0.993576529769
    H           -1.081743243056     0.756832540101    -1.901911124486

gradient() will perform analytic gradient computation.

*** tstart() called on cx1-27-3-4
*** at Sat Sep 10 17:46:01 2016


         ---------------------------------------------------------
                                   SCF
            by Justin Turney, Rob Parrish, and Andy Simmonett
                              RHF Reference
                        4 Threads,   2000 MiB Core
         ---------------------------------------------------------

  ==> Geometry <==

    Molecular point group: c1
    Full point group: C1

    Geometry (in Angstrom), charge = 0, multiplicity = 1:

       Center              X                  Y                   Z               Mass       
    ------------   -----------------  -----------------  -----------------  -----------------
           O         -1.996130495568    -0.587000600609     0.629752848172    15.994914619560
           C         -1.128384289234     0.068006065289     0.144827789786    12.000000000000
           C          0.320914486471    -0.111820565775     0.592848629835    12.000000000000
           C         -1.457021811989     1.085616802136    -0.934659898818    12.000000000000
           C          1.416229066080    -0.076907188325    -0.490867948926    12.000000000000
           H          0.355412285545    -1.049040725418     1.131732809065     1.007825032070
           H          0.525487293399     0.675063720227     1.314584443076     1.007825032070
           C          2.805392472487    -0.378971818669     0.078007975700    12.000000000000
           H          1.177759440635    -0.810832806406    -1.256137705923     1.007825032070
           H          1.443546340956     0.892483976709    -0.984288547452     1.007825032070
           H          3.562258822918    -0.360108539779    -0.701148372434     1.007825032070
           H          2.831666261345    -1.361491371403     0.546930738135     1.007825032070
           H          3.089775196037     0.352239550954     0.829002923078     1.007825032070
           H         -0.991601594256     2.042795823857    -0.718521822298     1.007825032070
           H         -2.535731997247     1.201695047398    -0.993576529769     1.007825032070
           H         -1.081743243056     0.756832540101    -1.901911124486     1.007825032070

  Running in c1 symmetry.

  Rotational constants: A =      0.25222  B =      0.06026  C =      0.05154 [cm^-1]
  Rotational constants: A =   7561.49555  B =   1806.47925  C =   1545.11102 [MHz]
  Nuclear repulsion =  235.741816150599846

  Charge       = 0
  Multiplicity = 1
  Electrons    = 48
  Nalpha       = 24
  Nbeta        = 24

  ==> Algorithm <==

  SCF Algorithm Type is DF.
  DIIS enabled.
  MOM disabled.
  Fractional occupation disabled.
  Guess Type is READ.
  Energy threshold   = 1.00e-08
  Density threshold  = 1.00e-08
  Integral threshold = 0.00e+00

  ==> Primary Basis <==

  Basis Set: CC-PVTZ
    Number of shells: 120
    Number of basis function: 320
    Number of Cartesian functions: 360
    Spherical Harmonics?: true
    Max angular momentum: 3

  ==> Pre-Iterations <==

   -------------------------------------------------------
    Irrep   Nso     Nmo     Nalpha   Nbeta   Ndocc  Nsocc
   -------------------------------------------------------
     A        320     320       0       0       0       0
   -------------------------------------------------------
    Total     320     320      24      24      24       0
   -------------------------------------------------------

  ==> Integral Setup <==

  ==> DFJK: Density-Fitted J/K Matrices <==

    J tasked:                  Yes
    K tasked:                  Yes
    wK tasked:                  No
    OpenMP threads:              4
    Integrals threads:           4
    Memory (MB):              1430
    Algorithm:                Core
    Integral Cache:           NONE
    Schwarz Cutoff:          1E-12
    Fitting Condition:       1E-12

   => Auxiliary Basis Set <=

  Basis Set: 
    Number of shells: 250
    Number of basis function: 774
    Number of Cartesian functions: 926
    Spherical Harmonics?: true
    Max angular momentum: 4

  Minimum eigenvalue in the overlap matrix is 3.8457881527E-04.
  Using Symmetric Orthogonalization.
  SCF Guess: Reading in previously saved MOs, projecting if necessary.

  Using orbitals from previous SCF, no projection.
  Recomputing DOCC and SOCC from number of alpha and beta electrons from previous calculation.
              A 
    DOCC [    24 ]

  ==> Iterations <==

                           Total Energy        Delta E     RMS |[F,P]|

   @DF-RHF iter   0:  -270.08155199630465   -2.70082e+02   6.79544e-04 
   @DF-RHF iter   1:  -270.12660271800513   -4.50507e-02   1.11011e-04 
   @DF-RHF iter   2:  -270.12759541195373   -9.92694e-04   3.61927e-05 DIIS
   @DF-RHF iter   3:  -270.12771309529103   -1.17683e-04   1.45035e-05 DIIS
   @DF-RHF iter   4:  -270.12772869560371   -1.56003e-05   4.40775e-06 DIIS
   @DF-RHF iter   5:  -270.12773029503040   -1.59943e-06   2.02132e-06 DIIS
   @DF-RHF iter   6:  -270.12773116034072   -8.65310e-07   9.18433e-07 DIIS
   @DF-RHF iter   7:  -270.12773143681892   -2.76478e-07   3.60667e-07 DIIS
   @DF-RHF iter   8:  -270.12773147851334   -4.16944e-08   1.11873e-07 DIIS
   @DF-RHF iter   9:  -270.12773148130100   -2.78766e-09   3.49042e-08 DIIS
   @DF-RHF iter  10:  -270.12773148148995   -1.88948e-10   1.16878e-08 DIIS
   @DF-RHF iter  11:  -270.12773148151513   -2.51816e-11   3.41108e-09 DIIS

  ==> Post-Iterations <==

    Orbital Energies (a.u.)
    -----------------------

    Doubly Occupied:                                                      

       1A    -20.537926     2A    -11.323002     3A    -11.235538  
       4A    -11.231940     5A    -11.228931     6A    -11.221490  
       7A     -1.396271     8A     -1.081686     9A     -1.007692  
      10A     -0.951487    11A     -0.834232    12A     -0.734891  
      13A     -0.657678    14A     -0.650816    15A     -0.622652  
      16A     -0.601599    17A     -0.577063    18A     -0.551725  
      19A     -0.537429    20A     -0.521491    21A     -0.505166  
      22A     -0.488977    23A     -0.475058    24A     -0.401314  

    Virtual:                                                              

      25A      0.126807    26A      0.153890    27A      0.157286  
      28A      0.172453    29A      0.182145    30A      0.201402  
      31A      0.214400    32A      0.225633    33A      0.228608  
      34A      0.244656    35A      0.259318    36A      0.290932  
      37A      0.314346    38A      0.352187    39A      0.356999  
      40A      0.361502    41A      0.381318    42A      0.385999  
      43A      0.416034    44A      0.441390    45A      0.450952  
      46A      0.488357    47A      0.505720    48A      0.533843  
      49A      0.555706    50A      0.571011    51A      0.584249  
      52A      0.593426    53A      0.609891    54A      0.615645  
      55A      0.624540    56A      0.630255    57A      0.635090  
      58A      0.643399    59A      0.654310    60A      0.659158  
      61A      0.671127    62A      0.680226    63A      0.683734  
      64A      0.698219    65A      0.724437    66A      0.751520  
      67A      0.764810    68A      0.800129    69A      0.827906  
      70A      0.861860    71A      0.867405    72A      0.884853  
      73A      0.907967    74A      0.922010    75A      0.953181  
      76A      0.957019    77A      1.002298    78A      1.027132  
      79A      1.058665    80A      1.073417    81A      1.088102  
      82A      1.093483    83A      1.121833    84A      1.149934  
      85A      1.151465    86A      1.193001    87A      1.198890  
      88A      1.213595    89A      1.227164    90A      1.257932  
      91A      1.266376    92A      1.282428    93A      1.285479  
      94A      1.300146    95A      1.320102    96A      1.328406  
      97A      1.343964    98A      1.354827    99A      1.362440  
     100A      1.383092   101A      1.401338   102A      1.407955  
     103A      1.416919   104A      1.464501   105A      1.472620  
     106A      1.481556   107A      1.512466   108A      1.517138  
     109A      1.532848   110A      1.544625   111A      1.551959  
     112A      1.560758   113A      1.570183   114A      1.582807  
     115A      1.606684   116A      1.623980   117A      1.646589  
     118A      1.662746   119A      1.682259   120A      1.725382  
     121A      1.748292   122A      1.751283   123A      1.790836  
     124A      1.816466   125A      1.827082   126A      1.859110  
     127A      1.895507   128A      1.971928   129A      2.025190  
     130A      2.113166   131A      2.176547   132A      2.281814  
     133A      2.443184   134A      2.470962   135A      2.491646  
     136A      2.523355   137A      2.526071   138A      2.582401  
     139A      2.594876   140A      2.651178   141A      2.667910  
     142A      2.686435   143A      2.707248   144A      2.737460  
     145A      2.752058   146A      2.776787   147A      2.810320  
     148A      2.835618   149A      2.839522   150A      2.853016  
     151A      2.881162   152A      2.898429   153A      2.943031  
     154A      2.957953   155A      2.985978   156A      3.002174  
     157A      3.019120   158A      3.048293   159A      3.087088  
     160A      3.100126   161A      3.107737   162A      3.121227  
     163A      3.138553   164A      3.167452   165A      3.176593  
     166A      3.196893   167A      3.212187   168A      3.217534  
     169A      3.235874   170A      3.258743   171A      3.290083  
     172A      3.294721   173A      3.310044   174A      3.326322  
     175A      3.345463   176A      3.352685   177A      3.370438  
     178A      3.401527   179A      3.407003   180A      3.411349  
     181A      3.420954   182A      3.430774   183A      3.446913  
     184A      3.451537   185A      3.457881   186A      3.479420  
     187A      3.511874   188A      3.527671   189A      3.539768  
     190A      3.550809   191A      3.573501   192A      3.626315  
     193A      3.637275   194A      3.637783   195A      3.652700  
     196A      3.676928   197A      3.697090   198A      3.738071  
     199A      3.751667   200A      3.765994   201A      3.774350  
     202A      3.783249   203A      3.796637   204A      3.807035  
     205A      3.859635   206A      3.864200   207A      3.879436  
     208A      3.903271   209A      3.913274   210A      3.957475  
     211A      3.982469   212A      3.992426   213A      4.013078  
     214A      4.044873   215A      4.075750   216A      4.082415  
     217A      4.095544   218A      4.123926   219A      4.137461  
     220A      4.147366   221A      4.167151   222A      4.172173  
     223A      4.180585   224A      4.193242   225A      4.198532  
     226A      4.221178   227A      4.240555   228A      4.274999  
     229A      4.291100   230A      4.323172   231A      4.348240  
     232A      4.355438   233A      4.367513   234A      4.381433  
     235A      4.396114   236A      4.409661   237A      4.427912  
     238A      4.443937   239A      4.461468   240A      4.471271  
     241A      4.495574   242A      4.515909   243A      4.555329  
     244A      4.579302   245A      4.582310   246A      4.585560  
     247A      4.619398   248A      4.633294   249A      4.652902  
     250A      4.660998   251A      4.676093   252A      4.691358  
     253A      4.720513   254A      4.747654   255A      4.807283  
     256A      4.840401   257A      4.868002   258A      4.878459  
     259A      4.940625   260A      4.978649   261A      5.022182  
     262A      5.033125   263A      5.131511   264A      5.140180  
     265A      5.167205   266A      5.182709   267A      5.217072  
     268A      5.226874   269A      5.244414   270A      5.250207  
     271A      5.308223   272A      5.329208   273A      5.352319  
     274A      5.382387   275A      5.420320   276A      5.427312  
     277A      5.481547   278A      5.499340   279A      5.515926  
     280A      5.546516   281A      5.569030   282A      5.577476  
     283A      5.602125   284A      5.634008   285A      5.636155  
     286A      5.687359   287A      5.719817   288A      5.727291  
     289A      5.742466   290A      5.760951   291A      5.774617  
     292A      5.796757   293A      5.843505   294A      5.868189  
     295A      5.875778   296A      5.921010   297A      5.972908  
     298A      6.012323   299A      6.108551   300A      6.246303  
     301A      6.272704   302A      6.277201   303A      6.298448  
     304A      6.311313   305A      6.335351   306A      6.418351  
     307A      6.788487   308A      6.800228   309A      6.943756  
     310A      7.009959   311A      7.186825   312A      7.383969  
     313A      7.569832   314A      7.604352   315A      9.649924  
     316A     13.200200   317A     13.546452   318A     14.023071  
     319A     14.142409   320A     14.350473  

    Final Occupation by Irrep:
              A 
    DOCC [    24 ]

  Energy converged.

  @DF-RHF Final Energy:  -270.12773148151513

   => Energetics <=

    Nuclear Repulsion Energy =            235.7418161505998455
    One-Electron Energy =                -832.9869857326370948
    Two-Electron Energy =                 327.1174381005218947
    DFT Exchange-Correlation Energy =       0.0000000000000000
    Empirical Dispersion Energy =           0.0000000000000000
    PCM Polarization Energy =               0.0000000000000000
    EFP Energy =                            0.0000000000000000
    Total Energy =                       -270.1277314815154114


  Saving occupied orbitals to File 180.

*** tstop() called on cx1-27-3-4 at Sat Sep 10 17:46:07 2016
Module time:
	user time   =      20.91 seconds =       0.35 minutes
	system time =       0.44 seconds =       0.01 minutes
	total time  =          6 seconds =       0.10 minutes
Total time:
	user time   =      71.74 seconds =       1.20 minutes
	system time =       1.69 seconds =       0.03 minutes
	total time  =         21 seconds =       0.35 minutes


Properties will be evaluated at   0.000000,   0.000000,   0.000000 Bohr

Properties computed using the SCF density matrix

  Nuclear Dipole Moment: (a.u.)
     X:     7.8434      Y:     2.1905      Z:    -2.5594

  Electronic Dipole Moment: (a.u.)
     X:    -6.8564      Y:    -1.5402      Z:     2.0328

  Dipole Moment: (a.u.)
     X:     0.9870      Y:     0.6503      Z:    -0.5266     Total:     1.2940

  Dipole Moment: (Debye)
     X:     2.5088      Y:     1.6530      Z:    -1.3385     Total:     3.2891


*** tstart() called on cx1-27-3-4
*** at Sat Sep 10 17:46:07 2016


         ------------------------------------------------------------
                                   SCF GRAD                          
                          Rob Parrish, Justin Turney,                
                       Andy Simmonett, and Alex Sokolov              
         ------------------------------------------------------------

  ==> Geometry <==

    Molecular point group: c1
    Full point group: C1

    Geometry (in Angstrom), charge = 0, multiplicity = 1:

       Center              X                  Y                   Z               Mass       
    ------------   -----------------  -----------------  -----------------  -----------------
           O         -1.996130495568    -0.587000600609     0.629752848172    15.994914619560
           C         -1.128384289234     0.068006065289     0.144827789786    12.000000000000
           C          0.320914486471    -0.111820565775     0.592848629835    12.000000000000
           C         -1.457021811989     1.085616802136    -0.934659898818    12.000000000000
           C          1.416229066080    -0.076907188325    -0.490867948926    12.000000000000
           H          0.355412285545    -1.049040725418     1.131732809065     1.007825032070
           H          0.525487293399     0.675063720227     1.314584443076     1.007825032070
           C          2.805392472487    -0.378971818669     0.078007975700    12.000000000000
           H          1.177759440635    -0.810832806406    -1.256137705923     1.007825032070
           H          1.443546340956     0.892483976709    -0.984288547452     1.007825032070
           H          3.562258822918    -0.360108539779    -0.701148372434     1.007825032070
           H          2.831666261345    -1.361491371403     0.546930738135     1.007825032070
           H          3.089775196037     0.352239550954     0.829002923078     1.007825032070
           H         -0.991601594256     2.042795823857    -0.718521822298     1.007825032070
           H         -2.535731997247     1.201695047398    -0.993576529769     1.007825032070
           H         -1.081743243056     0.756832540101    -1.901911124486     1.007825032070

  Nuclear repulsion =  235.741816150599846

  ==> Basis Set <==

  Basis Set: CC-PVTZ
    Number of shells: 120
    Number of basis function: 320
    Number of Cartesian functions: 360
    Spherical Harmonics?: true
    Max angular momentum: 3

  ==> DFJKGrad: Density-Fitted SCF Gradients <==

    Gradient:                    1
    J tasked:                  Yes
    K tasked:                  Yes
    wK tasked:                  No
    OpenMP threads:              4
    Integrals threads:           4
    Memory (MB):              1430
    Schwarz Cutoff:          0E+00
    Fitting Condition:       1E-12

   => Auxiliary Basis Set <=

  Basis Set: 
    Number of shells: 250
    Number of basis function: 774
    Number of Cartesian functions: 926
    Spherical Harmonics?: true
    Max angular momentum: 4


  -Total Gradient:
     Atom            X                  Y                   Z
    ------   -----------------  -----------------  -----------------
       1       -0.005263253245    -0.002833312207    -0.000279158144
       2        0.000741364072     0.004359776142     0.006579909527
       3       -0.001765380146    -0.002878020886     0.002073738864
       4        0.000816180641    -0.001340231072    -0.002032447634
       5        0.003513392086     0.001089759499    -0.000155034677
       6       -0.000114266068    -0.000069346878    -0.000189210846
       7        0.000983950267    -0.000744810720    -0.001004180424
       8        0.001713284110     0.001618333920    -0.001356981491
       9       -0.000843668151    -0.000791092311     0.000236139261
      10        0.001868857347     0.001959601054    -0.001504490169
      11        0.002207366118     0.000196692810    -0.000942860872
      12       -0.000020241752    -0.002883298056     0.001580447646
      13        0.000641623857     0.000539508655     0.000479000221
      14        0.000673604866     0.000773314691     0.000355802161
      15       -0.005312901339     0.000460400785    -0.000410964517
      16        0.000160087336     0.000542724574    -0.003429708903


*** tstop() called on cx1-27-3-4 at Sat Sep 10 17:46:13 2016
Module time:
	user time   =      23.59 seconds =       0.39 minutes
	system time =       0.48 seconds =       0.01 minutes
	total time  =          6 seconds =       0.10 minutes
Total time:
	user time   =      95.41 seconds =       1.59 minutes
	system time =       2.17 seconds =       0.04 minutes
	total time  =         27 seconds =       0.45 minutes

			-----------------------------------------
			 OPTKING 2.0: for geometry optimizations 
			  - R.A. King,  Bethel University        
			-----------------------------------------

	Previous internal coordinate definitions found.
	---Fragment 1 Geometry and Gradient---
	 O          -3.7721399621       -1.1092703750        1.1900604145
	 C          -2.1323372793        0.1285128388        0.2736848591
	 C           0.6064404915       -0.2113102453        1.1203215486
	 C          -2.7533721943        2.0515184413       -1.7662512362
	 C           2.6762850763       -0.1453335236       -0.9276059909
	 H           0.6716318839       -1.9823996733        2.1386650647
	 H           0.9930270708        1.2756855535        2.4842045760
	 C           5.3014234683       -0.7161529494        0.1474137103
	 H           2.2256427932       -1.5322519437       -2.3737562494
	 H           2.7279072445        1.6865502940       -1.8600357904
	 H           6.7316935898       -0.6805065183       -1.3249784024
	 H           5.3510737337       -2.5728458242        1.0335493087
	 H           5.8388289327        0.6656362845        1.5665884880
	 H          -1.8738554461        3.8603246525       -1.3578094646
	 H          -4.7918390212        2.2708745348       -1.8775875333
	 H          -2.0441984755        1.4302062292       -3.5940911544
	            -0.0052632532       -0.0028333122       -0.0002791581
	             0.0007413641        0.0043597761        0.0065799095
	            -0.0017653801       -0.0028780209        0.0020737389
	             0.0008161806       -0.0013402311       -0.0020324476
	             0.0035133921        0.0010897595       -0.0001550347
	            -0.0001142661       -0.0000693469       -0.0001892108
	             0.0009839503       -0.0007448107       -0.0010041804
	             0.0017132841        0.0016183339       -0.0013569815
	            -0.0008436682       -0.0007910923        0.0002361393
	             0.0018688573        0.0019596011       -0.0015044902
	             0.0022073661        0.0001966928       -0.0009428609
	            -0.0000202418       -0.0028832981        0.0015804476
	             0.0006416239        0.0005395087        0.0004790002
	             0.0006736049        0.0007733147        0.0003558022
	            -0.0053129013        0.0004604008       -0.0004109645
	             0.0001600873        0.0005427246       -0.0034297089

	---Fragment 1 Intrafragment Coordinates---
	 - Coordinate -           - BOHR/RAD -       - ANG/DEG -
	 R(1,2)           =         2.249623	       1.190449
	 R(2,3)           =         2.886724	       1.527589
	 R(2,4)           =         2.871406	       1.519483
	 R(3,5)           =         2.912493	       1.541225
	 R(3,6)           =         2.044023	       1.081651
	 R(3,7)           =         2.054454	       1.087170
	 R(4,14)          =         2.052353	       1.086059
	 R(4,15)          =         2.053256	       1.086536
	 R(4,16)          =         2.056685	       1.088351
	 R(5,8)           =         2.893588	       1.531221
	 R(5,9)           =         2.053770	       1.086808
	 R(5,10)          =         2.056183	       1.088085
	 R(8,11)          =         2.053018	       1.086410
	 R(8,12)          =         2.057914	       1.089001
	 R(8,13)          =         2.052365	       1.086065
	 B(1,2,3)         =         2.102874	     120.485823
	 B(1,2,4)         =         2.094654	     120.014810
	 B(2,3,5)         =         2.054842	     117.733746
	 B(2,3,6)         =         1.852900	     106.163327
	 B(2,3,7)         =         1.862960	     106.739744
	 B(2,4,14)        =         1.934958	     110.864949
	 B(2,4,15)        =         1.901591	     108.953122
	 B(2,4,16)        =         1.933165	     110.762183
	 B(3,2,4)         =         2.085636	     119.498131
	 B(3,5,8)         =         1.959558	     112.274409
	 B(3,5,9)         =         1.900629	     108.898030
	 B(3,5,10)        =         1.935730	     110.909138
	 B(5,3,6)         =         1.925462	     110.320829
	 B(5,3,7)         =         1.893018	     108.461970
	 B(5,8,11)        =         1.941383	     111.233067
	 B(5,8,12)        =         1.938898	     111.090670
	 B(5,8,13)        =         1.940819	     111.200750
	 B(6,3,7)         =         1.865443	     106.882005
	 B(8,5,9)         =         1.904400	     109.114072
	 B(8,5,10)        =         1.898056	     108.750573
	 B(9,5,10)        =         1.862761	     106.728338
	 B(11,8,12)       =         1.883546	     107.919224
	 B(11,8,13)       =         1.877387	     107.566373
	 B(12,8,13)       =         1.879020	     107.659895
	 B(14,4,15)       =         1.919936	     110.004229
	 B(14,4,16)       =         1.870614	     107.178294
	 B(15,4,16)       =         1.903303	     109.051215
	 D(1,2,3,5)       =         2.436402	     139.595578
	 D(1,2,3,6)       =         0.270157	      15.478873
	 D(1,2,3,7)       =        -1.715329	     -98.281107
	 D(1,2,4,14)      =         2.298305	     131.683164
	 D(1,2,4,15)      =         0.183022	      10.486381
	 D(1,2,4,16)      =        -1.910547	    -109.466269
	 D(2,3,5,8)       =        -3.062658	    -175.477390
	 D(2,3,5,9)       =        -0.951740	     -54.530707
	 D(2,3,5,10)      =         1.093079	      62.628790
	 D(3,2,4,14)      =        -0.850313	     -48.719345
	 D(3,2,4,15)      =        -2.965596	    -169.916127
	 D(3,2,4,16)      =         1.224021	      70.131223
	 D(3,5,8,11)      =         3.131330	     179.411965
	 D(3,5,8,12)      =         1.032732	      59.171206
	 D(3,5,8,13)      =        -1.059761	     -60.719847
	*D(4,2,3,5)       =        -0.698131	     -39.999979
	 D(4,2,3,6)       =        -2.864376	    -164.116684
	 D(4,2,3,7)       =         1.433323	      82.123335
	 D(6,3,5,8)       =        -0.933163	     -53.466308
	 D(6,3,5,9)       =         1.177755	      67.480375
	 D(6,3,5,10)      =        -3.060612	    -175.360128
	 D(7,3,5,8)       =         1.104525	      63.284630
	 D(7,3,5,9)       =        -3.067742	    -175.768687
	 D(7,3,5,10)      =        -1.022923	     -58.609189
	 D(9,5,8,11)      =         1.022583	      58.589697
	 D(9,5,8,12)      =        -1.076014	     -61.651061
	 D(9,5,8,13)      =         3.114678	     178.457885
	 D(10,5,8,11)     =        -1.003084	     -57.472491
	 D(10,5,8,12)     =        -3.101681	    -177.713250
	 D(10,5,8,13)     =         1.089010	      62.395696

	Current energy   :      -270.1277314815

	Energy change for the previous step:
		Projected    :        -0.0075147869
		Actual       :        -0.0014680644
	Energy ratio indicates iffy step: Trust radius decreased to 1.250e-01.


	Performing BFGS update.
	Previous computed or guess Hessian on step 1.
	Steps to be used in Hessian update: 1
	Taking RFO optimization step.
	Going to follow RFO solution 1.
	Using RFO vector 1.

	Determining step-restricting scale parameter for RS-RFO.
	Maximum step size allowed    0.12500

	 Iter      |step|        alpha        rfo_root  
	------------------------------------------------
	    0     0.19918       1.00000           1
	    1     0.15035       2.26415           1
	    2     0.12999       3.24137           1
	    3     0.12528       3.53958           1
	    4     0.12500       3.55854           1
	------------------------------------------------
	Norm of target step-size    0.12500
	Projected energy change by RFO approximation:        -0.0009990910

	Back-transformation to cartesian coordinates...
	Successfully converged to displaced geometry.

	Back-transformation to cartesian coordinates to adjust frozen coordinates...
	Successfully converged to displaced geometry.

	--- Internal Coordinate Step in ANG or DEG, aJ/ANG or AJ/DEG ---
	 ---------------------------------------------------------------------------
	   Coordinate                Previous        Force       Change         New 
	   ----------                --------       ------       ------       ------
	    1 R(1,2)          =      1.190449    -0.043515    -0.002393     1.188056
	    2 R(2,3)          =      1.527589    -0.063988    -0.009818     1.517771
	    3 R(2,4)          =      1.519483    -0.041227    -0.007497     1.511986
	    4 R(3,5)          =      1.541225    -0.063129    -0.010427     1.530798
	    5 R(3,6)          =      1.081651     0.000312    -0.000313     1.081337
	    6 R(3,7)          =      1.087170     0.008408     0.001161     1.088331
	    7 R(4,14)         =      1.086059    -0.008577    -0.001608     1.084450
	    8 R(4,15)         =      1.086536    -0.044045    -0.007582     1.078954
	    9 R(4,16)         =      1.088351    -0.024216    -0.004725     1.083626
	   10 R(5,8)          =      1.531221    -0.034072    -0.006824     1.524397
	   11 R(5,9)          =      1.086808    -0.004557    -0.000837     1.085971
	   12 R(5,10)         =      1.088085    -0.020391    -0.004365     1.083720
	   13 R(8,11)         =      1.086410    -0.018269    -0.003031     1.083379
	   14 R(8,12)         =      1.089001    -0.027035    -0.004684     1.084317
	   15 R(8,13)         =      1.086065    -0.007106    -0.001238     1.084827
	   16 B(1,2,3)        =    120.485823    -0.000024    -0.128745   120.357078
	   17 B(1,2,4)        =    120.014810     0.000386     0.768660   120.783470
	   18 B(2,3,5)        =    117.733746    -0.000556    -1.209767   116.523979
	   19 B(2,3,6)        =    106.163327     0.000211     0.429633   106.592961
	   20 B(2,3,7)        =    106.739744     0.000088    -0.240410   106.499334
	   21 B(2,4,14)       =    110.864949     0.000065     0.279473   111.144422
	   22 B(2,4,15)       =    108.953122     0.000031     0.105507   109.058628
	   23 B(2,4,16)       =    110.762183    -0.000219    -0.802157   109.960026
	   24 B(3,2,4)        =    119.498131    -0.000362    -0.690002   118.808129
	   25 B(3,5,8)        =    112.274409    -0.000192    -0.456346   111.818062
	   26 B(3,5,9)        =    108.898030     0.000136     0.596045   109.494075
	   27 B(3,5,10)       =    110.909138    -0.000067    -0.587997   110.321141
	   28 B(5,3,6)        =    110.320829     0.000157     0.589255   110.910085
	   29 B(5,3,7)        =    108.461970     0.000207     0.454458   108.916428
	   30 B(5,8,11)       =    111.233067    -0.000092    -0.316412   110.916655
	   31 B(5,8,12)       =    111.090670     0.000024     0.056820   111.147489
	   32 B(5,8,13)       =    111.200750    -0.000019    -0.055961   111.144789
	   33 B(6,3,7)        =    106.882005    -0.000080     0.033501   106.915506
	   34 B(8,5,9)        =    109.114072     0.000021     0.138410   109.252483
	   35 B(8,5,10)       =    108.750573     0.000152     0.352518   109.103092
	   36 B(9,5,10)       =    106.728338    -0.000043    -0.014932   106.713406
	   37 B(11,8,12)      =    107.919224     0.000021    -0.041395   107.877829
	   38 B(11,8,13)      =    107.566373     0.000062     0.273112   107.839485
	   39 B(12,8,13)      =    107.659895     0.000010     0.102576   107.762471
	   40 B(14,4,15)      =    110.004229    -0.000014    -0.016747   109.987482
	   41 B(14,4,16)      =    107.178294     0.000059     0.236091   107.414385
	   42 B(15,4,16)      =    109.051215     0.000079     0.196025   109.247240
	   43 D(1,2,3,5)      =    139.595578     0.000012     2.989359   142.584938
	   44 D(1,2,3,6)      =     15.478873     0.000014     2.707859    18.186732
	   45 D(1,2,3,7)      =    -98.281107     0.000004     2.582731   -95.698376
	   46 D(1,2,4,14)     =    131.683164    -0.000001    -1.214336   130.468828
	   47 D(1,2,4,15)     =     10.486381    -0.000012    -1.440926     9.045455
	   48 D(1,2,4,16)     =   -109.466269    -0.000007    -1.258316  -110.724585
	   49 D(2,3,5,8)      =   -175.477390    -0.000009    -0.140696  -175.618086
	   50 D(2,3,5,9)      =    -54.530707    -0.000010     0.143729   -54.386979
	   51 D(2,3,5,10)     =     62.628790    -0.000012     0.140449    62.769239
	   52 D(3,2,4,14)     =    -48.719345     0.000010     1.784485   -46.934860
	   53 D(3,2,4,15)     =   -169.916127    -0.000000     1.557894  -168.358233
	   54 D(3,2,4,16)     =     70.131223     0.000004     1.740504    71.871727
	   55 D(3,5,8,11)     =    179.411965     0.000011     0.393567   179.805531
	   56 D(3,5,8,12)     =     59.171206     0.000016     0.619903    59.791109
	   57 D(3,5,8,13)     =    -60.719847     0.000012     0.489640   -60.230208
	   58 *D(4,2,3,5)     =    -39.999979    -0.000000     0.000000   -39.999979
	   59 D(4,2,3,6)      =   -164.116684     0.000002    -0.281500  -164.398184
	   60 D(4,2,3,7)      =     82.123335    -0.000008    -0.406628    81.716708
	   61 D(6,3,5,8)      =    -53.466308    -0.000010     0.012925   -53.453383
	   62 D(6,3,5,9)      =     67.480375    -0.000011     0.297350    67.777724
	   63 D(6,3,5,10)     =   -175.360128    -0.000013     0.294070  -175.066058
	   64 D(7,3,5,8)      =     63.284630     0.000016     0.661290    63.945920
	   65 D(7,3,5,9)      =   -175.768687     0.000015     0.945714  -174.822973
	   66 D(7,3,5,10)     =    -58.609189     0.000013     0.942434   -57.666755
	   67 D(9,5,8,11)     =     58.589697    -0.000003    -0.154988    58.434709
	   68 D(9,5,8,12)     =    -61.651061     0.000002     0.071348   -61.579713
	   69 D(9,5,8,13)     =    178.457885    -0.000002    -0.058915   178.398970
	   70 D(10,5,8,11)    =    -57.472491    -0.000013    -0.409853   -57.882344
	   71 D(10,5,8,12)    =   -177.713250    -0.000009    -0.183517  -177.896766
	   72 D(10,5,8,13)    =     62.395696    -0.000012    -0.313780    62.081917
	 ---------------------------------------------------------------------------
	Successfully symmetrized geometry.

  ==> Convergence Check <==

  Measures of convergence in internal coordinates in au.
  Criteria marked as inactive (o), active & met (*), and active & unmet ( ).
  ---------------------------------------------------------------------------------------------
   Step     Total Energy     Delta E     MAX Force     RMS Force      MAX Disp      RMS Disp   
  ---------------------------------------------------------------------------------------------
    Convergence Criteria    1.00e-06 *    3.00e-04 *             o    1.20e-03 *             o
  ---------------------------------------------------------------------------------------------
      2    -270.12773148   -1.47e-03      7.77e-03      2.39e-03 o    5.22e-02      1.47e-02 o  ~
  ---------------------------------------------------------------------------------------------

	Writing optimization data to binary file.
	Structure for next step:
	Cartesian Geometry (in Angstrom)
	    O    -1.9886094614  -0.5940697591   0.6347521848
	    C    -1.1184958194   0.0353970547   0.1266662703
	    C     0.3159997082  -0.1195890170   0.5976543509
	    C    -1.4247733878   1.0453348549  -0.9560710341
	    C     1.3996929167  -0.0653650414  -0.4821661721
	    H     0.3624792491  -1.0512254120   1.1446307420
	    H     0.4934208208   0.6785400470   1.3159691649
	    C     2.7853539844  -0.3383985641   0.0915775850
	    H     1.1804069106  -0.7984197915  -1.2528011252
	    H     1.4008695861   0.9044403050  -0.9658236925
	    H     3.5399344362  -0.2998566849  -0.6848460714
	    H     2.8317072114  -1.3188108085   0.5524311886
	    H     3.0477080104   0.3949745668   0.8466821616
	    H    -0.9491397146   1.9975869697  -0.7486555679
	    H    -2.4937445585   1.1743524699  -1.0253366211
	    H    -1.0449816577   0.6936687208  -1.9080871572
			--------------------------
			 OPTKING Finished Execution 
			--------------------------

    Structure for next step:
    Molecular point group: c1
    Full point group: C1

    Geometry (in Angstrom), charge = 0, multiplicity = 1:

    O           -1.990001714214    -0.589193595501     0.635477471701
    C           -1.119888072241     0.040273218295     0.127391557210
    C            0.314607455404    -0.114712853317     0.598379637814
    C           -1.426165640665     1.050211018542    -0.955345747158
    C            1.398300663889    -0.060488877727    -0.481440885244
    H            0.361086996269    -1.046349248409     1.145356028936
    H            0.492028567995     0.683416210607     1.316694451838
    C            2.783961731566    -0.333522400464     0.092302871923
    H            1.179014657743    -0.793543627825    -1.252075838261
    H            1.399477333275     0.909316468642    -0.965098405560
    H            3.538542183334    -0.294980521225    -0.684120784514
    H            2.830314958511    -1.313934644896     0.553156475474
    H            3.046315757557     0.399850730423     0.847407448468
    H           -0.950531967470     2.002463133333    -0.747930281049
    H           -2.495136811393     1.179228633556    -1.024611334203
    H           -1.046373910570     0.698544884476    -1.907361870347

gradient() will perform analytic gradient computation.

*** tstart() called on cx1-27-3-4
*** at Sat Sep 10 17:46:14 2016


         ---------------------------------------------------------
                                   SCF
            by Justin Turney, Rob Parrish, and Andy Simmonett
                              RHF Reference
                        4 Threads,   2000 MiB Core
         ---------------------------------------------------------

  ==> Geometry <==

    Molecular point group: c1
    Full point group: C1

    Geometry (in Angstrom), charge = 0, multiplicity = 1:

       Center              X                  Y                   Z               Mass       
    ------------   -----------------  -----------------  -----------------  -----------------
           O         -1.990001714214    -0.589193595501     0.635477471701    15.994914619560
           C         -1.119888072241     0.040273218295     0.127391557210    12.000000000000
           C          0.314607455404    -0.114712853317     0.598379637814    12.000000000000
           C         -1.426165640665     1.050211018542    -0.955345747158    12.000000000000
           C          1.398300663889    -0.060488877727    -0.481440885244    12.000000000000
           H          0.361086996269    -1.046349248409     1.145356028936     1.007825032070
           H          0.492028567995     0.683416210607     1.316694451838     1.007825032070
           C          2.783961731566    -0.333522400464     0.092302871923    12.000000000000
           H          1.179014657743    -0.793543627825    -1.252075838261     1.007825032070
           H          1.399477333275     0.909316468642    -0.965098405560     1.007825032070
           H          3.538542183334    -0.294980521225    -0.684120784514     1.007825032070
           H          2.830314958511    -1.313934644896     0.553156475474     1.007825032070
           H          3.046315757557     0.399850730423     0.847407448468     1.007825032070
           H         -0.950531967470     2.002463133333    -0.747930281049     1.007825032070
           H         -2.495136811393     1.179228633556    -1.024611334203     1.007825032070
           H         -1.046373910570     0.698544884476    -1.907361870347     1.007825032070

  Running in c1 symmetry.

  Rotational constants: A =      0.25336  B =      0.06153  C =      0.05243 [cm^-1]
  Rotational constants: A =   7595.53679  B =   1844.50696  C =   1571.93175 [MHz]
  Nuclear repulsion =  237.183121715316247

  Charge       = 0
  Multiplicity = 1
  Electrons    = 48
  Nalpha       = 24
  Nbeta        = 24

  ==> Algorithm <==

  SCF Algorithm Type is DF.
  DIIS enabled.
  MOM disabled.
  Fractional occupation disabled.
  Guess Type is READ.
  Energy threshold   = 1.00e-08
  Density threshold  = 1.00e-08
  Integral threshold = 0.00e+00

  ==> Primary Basis <==

  Basis Set: CC-PVTZ
    Number of shells: 120
    Number of basis function: 320
    Number of Cartesian functions: 360
    Spherical Harmonics?: true
    Max angular momentum: 3

  ==> Pre-Iterations <==

   -------------------------------------------------------
    Irrep   Nso     Nmo     Nalpha   Nbeta   Ndocc  Nsocc
   -------------------------------------------------------
     A        320     320       0       0       0       0
   -------------------------------------------------------
    Total     320     320      24      24      24       0
   -------------------------------------------------------

  ==> Integral Setup <==

  ==> DFJK: Density-Fitted J/K Matrices <==

    J tasked:                  Yes
    K tasked:                  Yes
    wK tasked:                  No
    OpenMP threads:              4
    Integrals threads:           4
    Memory (MB):              1430
    Algorithm:                Core
    Integral Cache:           NONE
    Schwarz Cutoff:          1E-12
    Fitting Condition:       1E-12

   => Auxiliary Basis Set <=

  Basis Set: 
    Number of shells: 250
    Number of basis function: 774
    Number of Cartesian functions: 926
    Spherical Harmonics?: true
    Max angular momentum: 4

  Minimum eigenvalue in the overlap matrix is 3.7054434343E-04.
  Using Symmetric Orthogonalization.
  SCF Guess: Reading in previously saved MOs, projecting if necessary.

  Using orbitals from previous SCF, no projection.
  Recomputing DOCC and SOCC from number of alpha and beta electrons from previous calculation.
              A 
    DOCC [    24 ]

  ==> Iterations <==

                           Total Energy        Delta E     RMS |[F,P]|

   @DF-RHF iter   0:  -270.14388376954275   -2.70144e+02   2.48431e-04 
   @DF-RHF iter   1:  -270.12818553106024    1.56982e-02   3.50987e-05 
   @DF-RHF iter   2:  -270.12830199492407   -1.16464e-04   1.26998e-05 DIIS
   @DF-RHF iter   3:  -270.12832143622870   -1.94413e-05   5.85630e-06 DIIS
   @DF-RHF iter   4:  -270.12832429317336   -2.85694e-06   2.31981e-06 DIIS
   @DF-RHF iter   5:  -270.12832511433402   -8.21161e-07   1.16022e-06 DIIS
   @DF-RHF iter   6:  -270.12832541461546   -3.00281e-07   4.44130e-07 DIIS
   @DF-RHF iter   7:  -270.12832546554262   -5.09272e-08   1.72125e-07 DIIS
   @DF-RHF iter   8:  -270.12832547440365   -8.86104e-09   6.95299e-08 DIIS
   @DF-RHF iter   9:  -270.12832547586368   -1.46002e-09   2.12406e-08 DIIS
   @DF-RHF iter  10:  -270.12832547596440   -1.00727e-10   5.55031e-09 DIIS

  ==> Post-Iterations <==

    Orbital Energies (a.u.)
    -----------------------

    Doubly Occupied:                                                      

[...]
	total time  =        103 seconds =       1.72 minutes

			-----------------------------------------
			 OPTKING 2.0: for geometry optimizations 
			  - R.A. King,  Bethel University        
			-----------------------------------------

	Previous internal coordinate definitions found.
	---Fragment 1 Geometry and Gradient---
	 O          -3.7707857427       -1.1215405259        1.1748629184
	 C          -2.1172065936        0.0898720579        0.2587890532
	 C           0.5917983515       -0.2349862125        1.1410354913
	 C          -2.6637516824        2.0119465582       -1.7826616710
	 C           2.6233466454       -0.1500887792       -0.9116311504
	 H           0.6726528682       -1.9958214651        2.1763701826
	 H           0.9427598607        1.2721395432        2.4972794604
	 C           5.2595900943       -0.6095988776        0.1583005541
	 H           2.2166780179       -1.5679000630       -2.3389844487
	 H           2.5904030175        1.6635120892       -1.8641863228
	 H           6.6739439145       -0.5477987729       -1.3207553358
	 H           5.3793299946       -2.4427226172        1.0657066894
	 H           5.7478760451        0.8108588482        1.5533374735
	 H          -1.7702680714        3.8067687025       -1.3611949996
	 H          -4.6803713005        2.2598197662       -1.9537482314
	 H          -1.9090659519        1.3582231675       -3.5715971300
	             0.0000183933        0.0000166770        0.0000056037
	            -0.0001902186        0.0015078919        0.0011103266
	            -0.0000677694       -0.0018221057       -0.0005101380
	             0.0001560248       -0.0006934128       -0.0007045042
	             0.0000825649        0.0010508646        0.0001269540
	             0.0000222218       -0.0000137786       -0.0000019944
	             0.0000010850        0.0000045065       -0.0000101754
	            -0.0000043007       -0.0000173710        0.0000003746
	             0.0000006691       -0.0000013041        0.0000049513
	            -0.0000079428       -0.0000032642        0.0000039687
	            -0.0000056736       -0.0000035702       -0.0000029713
	             0.0000019377       -0.0000042683        0.0000075554
	            -0.0000013983        0.0000049339       -0.0000019419
	            -0.0000031075       -0.0000053394       -0.0000117964
	            -0.0000013296       -0.0000047178       -0.0000049360
	            -0.0000011561       -0.0000157416       -0.0000112770

	---Fragment 1 Intrafragment Coordinates---
	 - Coordinate -           - BOHR/RAD -       - ANG/DEG -
	 R(1,2)           =         2.245225	       1.188122
	 R(2,3)           =         2.867508	       1.517420
	 R(2,4)           =         2.856677	       1.511688
	 R(3,5)           =         2.889262	       1.528932
	 R(3,6)           =         2.044259	       1.081775
	 R(3,7)           =         2.057669	       1.088871
	 R(4,14)          =         2.048740	       1.084146
	 R(4,15)          =         2.038987	       1.078985
	 R(4,16)          =         2.048706	       1.084128
	 R(5,8)           =         2.881958	       1.525067
	 R(5,9)           =         2.052536	       1.086155
	 R(5,10)          =         2.048803	       1.084180
	 R(8,11)          =         2.047394	       1.083434
	 R(8,12)          =         2.048918	       1.084241
	 R(8,13)          =         2.049939	       1.084781
	 B(1,2,3)         =         2.104958	     120.605205
	 B(1,2,4)         =         2.110284	     120.910369
	 B(2,3,5)         =         2.029024	     116.254498
	 B(2,3,6)         =         1.865829	     106.904106
	 B(2,3,7)         =         1.855577	     106.316748
	 B(2,4,14)        =         1.937987	     111.038488
	 B(2,4,15)        =         1.908138	     109.328282
	 B(2,4,16)        =         1.916478	     109.806123
	 B(3,2,4)         =         2.067853	     118.479241
	 B(3,5,8)         =         1.954922	     112.008776
	 B(3,5,9)         =         1.911809	     109.538592
	 B(3,5,10)        =         1.923050	     110.182661
	 B(5,3,6)         =         1.936185	     110.935203
	 B(5,3,7)         =         1.903729	     109.075656
	 B(5,8,11)        =         1.937886	     111.032694
	 B(5,8,12)        =         1.939627	     111.132463
	 B(5,8,13)        =         1.939118	     111.103294
	 B(6,3,7)         =         1.865371	     106.877863
	 B(8,5,9)         =         1.906329	     109.224583
	 B(8,5,10)        =         1.905464	     109.175031
	 B(9,5,10)        =         1.859758	     106.556284
	 B(11,8,12)       =         1.882382	     107.852548
	 B(11,8,13)       =         1.881948	     107.827682
	 B(12,8,13)       =         1.880358	     107.736596
	 B(14,4,15)       =         1.919938	     110.004333
	 B(14,4,16)       =         1.873945	     107.369122
	 B(15,4,16)       =         1.906945	     109.259887
	 D(1,2,3,5)       =         2.457788	     140.820886
	 D(1,2,3,6)       =         0.284980	      16.328133
	 D(1,2,3,7)       =        -1.702950	     -97.571864
	 D(1,2,4,14)      =         2.286651	     131.015470
	 D(1,2,4,15)      =         0.165105	       9.459830
	 D(1,2,4,16)      =        -1.926813	    -110.398251
	 D(2,3,5,8)       =        -3.097952	    -177.499576
	 D(2,3,5,9)       =        -0.979958	     -56.147440
	 D(2,3,5,10)      =         1.060514	      60.762964
	 D(3,2,4,14)      =        -0.840569	     -48.161059
	 D(3,2,4,15)      =        -2.962115	    -169.716699
	 D(3,2,4,16)      =         1.229152	      70.425220
	 D(3,5,8,11)      =         3.139056	     179.854651
	 D(3,5,8,12)      =         1.043787	      59.804611
	 D(3,5,8,13)      =        -1.049749	     -60.146173
	*D(4,2,3,5)       =        -0.698131	     -39.999979
	 D(4,2,3,6)       =        -2.870940	    -164.492731
	 D(4,2,3,7)       =         1.424316	      81.607272
	 D(6,3,5,8)       =        -0.961663	     -55.099208
	 D(6,3,5,9)       =         1.156332	      66.252927
	 D(6,3,5,10)      =        -3.086382	    -176.836669
	 D(7,3,5,8)       =         1.088491	      62.365913
	 D(7,3,5,9)       =        -3.076700	    -176.281952
	 D(7,3,5,10)      =        -1.036229	     -59.371547
	 D(9,5,8,11)      =         1.017908	      58.321843
	 D(9,5,8,12)      =        -1.077360	     -61.728197
	 D(9,5,8,13)      =         3.112289	     178.321019
	 D(10,5,8,11)     =        -1.009354	     -57.831747
	 D(10,5,8,12)     =        -3.104623	    -177.881787
	 D(10,5,8,13)     =         1.085026	      62.167429

	Current energy   :      -270.1284244497

	Energy change for the previous step:
		Projected    :        -0.0000012512
		Actual       :        -0.0000001943
	Energy ratio indicates iffy step: Trust radius decreased to 7.812e-03.


	Performing BFGS update.
	Previous computed or guess Hessian on step 1.
	Steps to be used in Hessian update: 7 6
	Taking RFO optimization step.
	Going to follow RFO solution 1.
	Using RFO vector 1.
	Norm of target step-size    0.00417
	Projected energy change by RFO approximation:         0.0000000754

	Back-transformation to cartesian coordinates...
	Could not converge backtransformation.
	Using first guess instead.

	Back-transformation to cartesian coordinates to adjust frozen coordinates...
	Successfully converged to displaced geometry.

	--- Internal Coordinate Step in ANG or DEG, aJ/ANG or AJ/DEG ---
	 ---------------------------------------------------------------------------
	   Coordinate                Previous        Force       Change         New 
	   ----------                --------       ------       ------       ------
	    1 R(1,2)          =      1.188122     0.000167     0.000006     1.188128
	    2 R(2,3)          =      1.517420     0.000054     0.000008     1.517427
	    3 R(2,4)          =      1.511688    -0.000089    -0.000015     1.511673
	    4 R(3,5)          =      1.528932     0.000183     0.000033     1.528965
	    5 R(3,6)          =      1.081775    -0.000097    -0.000013     1.081763
	    6 R(3,7)          =      1.088871     0.000027     0.000003     1.088875
	    7 R(4,14)         =      1.084146     0.000070     0.000016     1.084163
	    8 R(4,15)         =      1.078985    -0.000010    -0.000003     1.078982
	    9 R(4,16)         =      1.084128    -0.000119    -0.000025     1.084104
	   10 R(5,8)          =      1.525067     0.000035    -0.000009     1.525058
	   11 R(5,9)          =      1.086155     0.000022    -0.000004     1.086151
	   12 R(5,10)         =      1.084180     0.000038     0.000003     1.084183
	   13 R(8,11)         =      1.083434     0.000016     0.000003     1.083437
	   14 R(8,12)         =      1.084241    -0.000060    -0.000011     1.084230
	   15 R(8,13)         =      1.084781    -0.000015    -0.000008     1.084773
	   16 B(1,2,3)        =    120.605205     0.000001     0.000063   120.605268
	   17 B(1,2,4)        =    120.910369    -0.000000    -0.000644   120.909726
	   18 B(2,3,5)        =    116.254498     0.000001     0.004481   116.258979
	   19 B(2,3,6)        =    106.904106    -0.000002    -0.011859   106.892246
	   20 B(2,3,7)        =    106.316748    -0.000000     0.000922   106.317671
	   21 B(2,4,14)       =    111.038488    -0.000001    -0.004641   111.033846
	   22 B(2,4,15)       =    109.328282     0.000000     0.000131   109.328413
	   23 B(2,4,16)       =    109.806123     0.000001     0.004474   109.810597
	   24 B(3,2,4)        =    118.479241    -0.000000     0.000776   118.480016
	   25 B(3,5,8)        =    112.008776     0.000000     0.000622   112.009398
	   26 B(3,5,9)        =    109.538592     0.000000     0.002441   109.541034
	   27 B(3,5,10)       =    110.182661     0.000000     0.003391   110.186052
	   28 B(5,3,6)        =    110.935203     0.000001     0.011747   110.946950
	   29 B(5,3,7)        =    109.075656     0.000000    -0.000964   109.074692
	   30 B(5,8,11)       =    111.032694     0.000001     0.002048   111.034742
	   31 B(5,8,12)       =    111.132463    -0.000000    -0.002888   111.129575
	   32 B(5,8,13)       =    111.103294     0.000000     0.001292   111.104586
	   33 B(6,3,7)        =    106.877863    -0.000000    -0.005704   106.872159
	   34 B(8,5,9)        =    109.224583     0.000000     0.005005   109.229588
	   35 B(8,5,10)       =    109.175031    -0.000001    -0.009938   109.165093
	   36 B(9,5,10)       =    106.556284    -0.000000    -0.001631   106.554653
	   37 B(11,8,12)      =    107.852548    -0.000000    -0.000248   107.852301
	   38 B(11,8,13)      =    107.827682    -0.000000    -0.000251   107.827431
	   39 B(12,8,13)      =    107.736596    -0.000000     0.000019   107.736615
	   40 B(14,4,15)      =    110.004333     0.000000    -0.003041   110.001292
	   41 B(14,4,16)      =    107.369122    -0.000000    -0.001317   107.367805
	   42 B(15,4,16)      =    109.259887     0.000000     0.004550   109.264437
	   43 D(1,2,3,5)      =    140.820886    -0.000000    -0.015560   140.805326
	   44 D(1,2,3,6)      =     16.328133    -0.000000    -0.024670    16.303464
	   45 D(1,2,3,7)      =    -97.571864     0.000000    -0.013202   -97.585065
	   46 D(1,2,4,14)     =    131.015470    -0.000000    -0.030406   130.985063
	   47 D(1,2,4,15)     =      9.459830     0.000000    -0.023680     9.436150
	   48 D(1,2,4,16)     =   -110.398251    -0.000000    -0.032075  -110.430326
	   49 D(2,3,5,8)      =   -177.499576    -0.000000    -0.051143  -177.550719
	   50 D(2,3,5,9)      =    -56.147440     0.000000    -0.042715   -56.190155
	   51 D(2,3,5,10)     =     60.762964     0.000000    -0.041267    60.721697
	   52 D(3,2,4,14)     =    -48.161059    -0.000000    -0.046022   -48.207081
	   53 D(3,2,4,15)     =   -169.716699     0.000000    -0.039295  -169.755994
	   54 D(3,2,4,16)     =     70.425220    -0.000000    -0.047691    70.377530
	   55 D(3,5,8,11)     =    179.854651     0.000000     0.056605   179.911256
	   56 D(3,5,8,12)     =     59.804611     0.000000     0.057477    59.862088
	   57 D(3,5,8,13)     =    -60.146173     0.000000     0.058518   -60.087656
	   58 *D(4,2,3,5)     =    -39.999979     0.000000    -0.000000   -39.999979
	   59 D(4,2,3,6)      =   -164.492731    -0.000000    -0.009110  -164.501841
	   60 D(4,2,3,7)      =     81.607272     0.000000     0.002359    81.609630
	   61 D(6,3,5,8)      =    -55.099208    -0.000000    -0.054039   -55.153247
	   62 D(6,3,5,9)      =     66.252927    -0.000000    -0.045610    66.207317
	   63 D(6,3,5,10)     =   -176.836669    -0.000000    -0.044163  -176.880832
	   64 D(7,3,5,8)      =     62.365913    -0.000000    -0.054682    62.311230
	   65 D(7,3,5,9)      =   -176.281952    -0.000000    -0.046254  -176.328206
	   66 D(7,3,5,10)     =    -59.371547     0.000000    -0.044807   -59.416354
	   67 D(9,5,8,11)     =     58.321843    -0.000000     0.049668    58.371511
	   68 D(9,5,8,12)     =    -61.728197    -0.000000     0.050540   -61.677657
	   69 D(9,5,8,13)     =    178.321019    -0.000000     0.051581   178.372599
	   70 D(10,5,8,11)    =    -57.831747     0.000000     0.054383   -57.777364
	   71 D(10,5,8,12)    =   -177.881787     0.000000     0.055254  -177.826533
	   72 D(10,5,8,13)    =     62.167429     0.000000     0.056296    62.223724
	 ---------------------------------------------------------------------------
	Successfully symmetrized geometry.

  ==> Convergence Check <==

  Measures of convergence in internal coordinates in au.
  Criteria marked as inactive (o), active & met (*), and active & unmet ( ).
  ---------------------------------------------------------------------------------------------
   Step     Total Energy     Delta E     MAX Force     RMS Force      MAX Disp      RMS Disp   
  ---------------------------------------------------------------------------------------------
    Convergence Criteria    1.00e-06 *    3.00e-04 *             o    1.20e-03 *             o
  ---------------------------------------------------------------------------------------------
      8    -270.12842445   -1.94e-07 *    2.22e-05 *    8.17e-06 o    1.02e-03 *    4.92e-04 o  ~
  ---------------------------------------------------------------------------------------------


  **** Optimization is complete! (in 8 steps) ****

  ==> Optimization Summary <==

  Measures of convergence in internal coordinates in au.
  --------------------------------------------------------------------------------------------------------------- ~
   Step         Total Energy             Delta E       MAX Force       RMS Force        MAX Disp        RMS Disp  ~
  --------------------------------------------------------------------------------------------------------------- ~
      1    -270.126263417106   -270.126263417106      0.02398798      0.00402082      0.11565190      0.03602624  ~
      2    -270.127731481515     -0.001468064409      0.00776671      0.00239425      0.05217416      0.01472038  ~
      3    -270.128325475964     -0.000593994449      0.00153980      0.00045288      0.05853529      0.01474337  ~
      4    -270.128344472016     -0.000018996052      0.00162560      0.00054753      0.01295527      0.00368160  ~
      5    -270.128409649970     -0.000065177954      0.00075943      0.00014303      0.01001644      0.00368271  ~
      6    -270.128421919393     -0.000012269423      0.00015214      0.00003123      0.01049087      0.00368342  ~
      7    -270.128424255404     -0.000002336011      0.00014435      0.00002540      0.00304186      0.00107949  ~
      8    -270.128424449676     -0.000000194272      0.00002223      0.00000817      0.00102133      0.00049188  ~
  --------------------------------------------------------------------------------------------------------------- ~

	Writing optimization data to binary file.
	Final energy is   -270.1284244496763
	Final (previous) structure:
	Cartesian Geometry (in Angstrom)
	    O    -1.9954138735  -0.5934936848   0.6217106797
	    C    -1.1203774752   0.0475582448   0.1369452688
	    C     0.3131661997  -0.1243493480   0.6038099762
	    C    -1.4095966797   1.0646762635  -0.9433439269
	    C     1.3882152550  -0.0794235612  -0.4824144274
	    H     0.3559525672  -1.0561432317   1.1516854981
	    H     0.4988870315   0.6731872524   1.3215033739
	    C     2.7832552044  -0.3225858324   0.0837690454
	    H     1.1730154859  -0.8296969787  -1.2377372615
	    H     1.3707822379   0.8802926838  -0.9864849146
	    H     3.5316990109  -0.2898826255  -0.6989136218
	    H     2.8466188306  -1.2926331359   0.5639476911
	    H     3.0416450009   0.4290880219   0.8219907882
	    H    -0.9367855165   2.0144552357  -0.7203133703
	    H    -2.4767458200   1.1958451158  -1.0338790354
	    H    -1.0102341914   0.7187407444  -1.8900077995
	Saving final (previous) structure.
			--------------------------
			 OPTKING Finished Execution 
			--------------------------

    Final optimized geometry and variables:
    Molecular point group: c1
    Full point group: C1

    Geometry (in Angstrom), charge = 0, multiplicity = 1:

    O           -1.995413873511    -0.593493684801     0.621710679651
    C           -1.120377475234     0.047558244752     0.136945268800
    C            0.313166199686    -0.124349347995     0.603809976182
    C           -1.409596679690     1.064676263504    -0.943343926911
    C            1.388215254991    -0.079423561194    -0.482414427413
    H            0.355952567162    -1.056143231727     1.151685498113
    H            0.498887031462     0.673187252387     1.321503373939
    C            2.783255204436    -0.322585832419     0.083769045354
    H            1.173015485864    -0.829696978692    -1.237737261519
    H            1.370782237930     0.880292683835    -0.986484914595
    H            3.531699010947    -0.289882625532    -0.698913621839
    H            2.846618830634    -1.292633135928     0.563947691094
    H            3.041645000881     0.429088021855     0.821990788230
    H           -0.936785516486     2.014455235735    -0.720313370257
    H           -2.476745819974     1.195845115796    -1.033879035367
    H           -1.010234191448     0.718740744426    -1.890007799487

	Cleaning optimization helper files.


Properties will be evaluated at   0.000000,   0.000000,   0.000000 Bohr

Properties computed using the  density matrix

  Nuclear Dipole Moment: (a.u.)
     X:     7.8603      Y:     2.2876      Z:    -2.5359

  Electronic Dipole Moment: (a.u.)
     X:    -6.8669      Y:    -1.6395      Z:     2.0091

  Dipole Moment: (a.u.)
     X:     0.9934      Y:     0.6481      Z:    -0.5267     Total:     1.2978

  Dipole Moment: (Debye)
     X:     2.5250      Y:     1.6472      Z:    -1.3388     Total:     3.2987

  Quadrupole Moment: (Debye Ang)
    XX:   -44.4813     YY:   -38.0698     ZZ:   -38.4068
    XY:    -3.5115     XZ:     3.0692     YZ:     0.9692

  Traceless Quadrupole Moment: (Debye Ang)
    XX:    -4.1620     YY:     2.2495     ZZ:     1.9125
    XY:    -3.5115     XZ:     3.0692     YZ:     0.9692

  Mulliken Charges: (a.u.)
   Center  Symbol    Alpha    Beta     Spin     Total
       1     O     4.17237  4.17237  0.00000 -0.34474
       2     C     2.85895  2.85895  0.00000  0.28209
       3     C     3.09644  3.09644  0.00000 -0.19287
       4     C     3.16455  3.16455  0.00000 -0.32909
       5     C     3.09672  3.09672  0.00000 -0.19344
       6     H     0.43771  0.43771  0.00000  0.12458
       7     H     0.44733  0.44733  0.00000  0.10534
       8     C     3.14935  3.14935  0.00000 -0.29870
       9     H     0.44728  0.44728  0.00000  0.10544
      10     H     0.45065  0.45065  0.00000  0.09870
      11     H     0.44609  0.44609  0.00000  0.10782
      12     H     0.45099  0.45099  0.00000  0.09801
      13     H     0.45417  0.45417  0.00000  0.09167
      14     H     0.44850  0.44850  0.00000  0.10301
      15     H     0.43201  0.43201  0.00000  0.13598
      16     H     0.44690  0.44690  0.00000  0.10619

   Total alpha = 24.00000, Total beta = 24.00000, Total charge =  0.00000


*** Psi4 exiting successfully. Buy a developer a beer!
