    -----------------------------------------------------------------------
          Psi4: An Open-Source Ab Initio Electronic Structure Package
                              Psi4 (no tag) Driver

                          Git: Rev {detached?}  

    J. M. Turney, A. C. Simmonett, R. M. Parrish, E. G. Hohenstein,
    F. A. Evangelista, J. T. Fermann, B. J. Mintz, L. A. Burns, J. J. Wilke,
    M. L. Abrams, N. J. Russ, M. L. Leininger, C. L. Janssen, E. T. Seidl,
    W. D. Allen, H. F. Schaefer, R. A. King, E. F. Valeev, C. D. Sherrill,
    and T. D. Crawford, WIREs Comput. Mol. Sci. 2, 556-565 (2012)
    (doi: 10.1002/wcms.93)

                         Additional Contributions by
    A. E. DePrince, M. Saitow, U. Bozkaya, A. Yu. Sokolov
    -----------------------------------------------------------------------


    Psi4 started on: Fri Sep  2 15:59:11 2016

    Process ID:  32171
    PSI4DATADIR: /export131/home/mjharvey/miniconda3/share
    Memory level set to 256.000 MB

  ==> Input File <==

--------------------------------------------------------------------------
set {
	reference rhf
	basis 6-31G*
}


set_num_threads( 4 )
memory 2 gb

molecule MOL {
0 1

H	 -2.696796	 1.619900	 -2.117710
C	 -1.709131	 2.096286	 -2.083144
C	 -1.187476	 2.381863	 -0.697888
O	 -1.132691	 2.349665	 -3.090748
C	 -1.220012	 1.144545	 0.209990
H	 -0.185376	 2.785246	 -0.786127
H	 -1.822800	 3.156572	 -0.270285
C	 -0.252658	 0.041456	 -0.226725
H	 -0.980051	 1.454664	 1.222674
H	 -2.234284	 0.750009	 0.246745
C	 1.180775	 0.282413	 0.250794
H	 -0.266029	 -0.034465	 -1.312038
H	 -0.597733	 -0.921000	 0.146291
C	 2.148627	 -0.814315	 -0.201312
H	 1.516199	 1.249228	 -0.115937
H	 1.192670	 0.346017	 1.338083
C	 3.580890	 -0.659131	 0.322722
H	 2.166869	 -0.852443	 -1.289387
H	 1.762857	 -1.776509	 0.128956
C	 4.324889	 0.564933	 -0.213704
H	 4.142010	 -1.551473	 0.056605
H	 3.564836	 -0.624694	 1.410140
H	 4.342616	 0.565491	 -1.300421
H	 3.866655	 1.493402	 0.110242
H	 5.353900	 0.572371	 0.132816

	symmetry c1
}
set optking {
	frozen_dihedral = ("
		3 5 8 12
	")
}

ee = optimize('scf')
oeprop('DIPOLE', 'QUADRUPOLE', 'MULLIKEN_CHARGES')
f=open( 'psi4out.xyz', 'w' )
f.write( "25  " )
f.write( str(ee) + "\n" )
f.write( MOL.save_string_xyz() )
f.close()
--------------------------------------------------------------------------

  Memory set to   2.000 GiB by Python script.
gradient() will perform analytic gradient computation.

*** tstart() called on cx1-1-2-2.cx1.hpc.ic.ac.uk
*** at Fri Sep  2 15:59:11 2016


         ---------------------------------------------------------
                                   SCF
            by Justin Turney, Rob Parrish, and Andy Simmonett
                              RHF Reference
                        4 Threads,   2000 MiB Core
         ---------------------------------------------------------

  ==> Geometry <==

    Molecular point group: c1
    Full point group: C1

    Geometry (in Angstrom), charge = 0, multiplicity = 1:

       Center              X                  Y                   Z               Mass       
    ------------   -----------------  -----------------  -----------------  -----------------
           H         -3.348908691793     0.789928647834    -1.465778160115     1.007825032070
           C         -2.361243691793     1.266314647834    -1.431212160115    12.000000000000
           C         -1.839588691793     1.551891647834    -0.045956160115    12.000000000000
           O         -1.784803691793     1.519693647834    -2.438816160115    15.994914619560
           C         -1.872124691793     0.314573647834     0.861921839885    12.000000000000
           H         -0.837488691793     1.955274647834    -0.134195160115     1.007825032070
           H         -2.474912691793     2.326600647834     0.381646839885     1.007825032070
           C         -0.904770691793    -0.788515352166     0.425206839885    12.000000000000
           H         -1.632163691793     0.624692647834     1.874605839885     1.007825032070
           H         -2.886396691793    -0.079962352166     0.898676839885     1.007825032070
           C          0.528662308207    -0.547558352166     0.902725839885    12.000000000000
           H         -0.918141691793    -0.864436352166    -0.660106160115     1.007825032070
           H         -1.249845691793    -1.750971352166     0.798222839885     1.007825032070
           C          1.496514308207    -1.644286352166     0.450619839885    12.000000000000
           H          0.864086308207     0.419256647834     0.535994839885     1.007825032070
           H          0.540557308207    -0.483954352166     1.990014839885     1.007825032070
           C          2.928777308207    -1.489102352166     0.974653839885    12.000000000000
           H          1.514756308207    -1.682414352166    -0.637455160115     1.007825032070
           H          1.110744308207    -2.606480352166     0.780887839885     1.007825032070
           C          3.672776308207    -0.265038352166     0.438227839885    12.000000000000
           H          3.489897308207    -2.381444352166     0.708536839885     1.007825032070
           H          2.912723308207    -1.454665352166     2.062071839885     1.007825032070
           H          3.690503308207    -0.264480352166    -0.648489160115     1.007825032070
           H          3.214542308207     0.663430647834     0.762173839885     1.007825032070
           H          4.701787308207    -0.257600352166     0.784747839885     1.007825032070

  Running in c1 symmetry.

  Rotational constants: A =      0.08726  B =      0.02018  C =      0.01829 [cm^-1]
  Rotational constants: A =   2616.02507  B =    605.06016  C =    548.27265 [MHz]
  Nuclear repulsion =  448.105947316832442

  Charge       = 0
  Multiplicity = 1
  Electrons    = 72
  Nalpha       = 36
  Nbeta        = 36

  ==> Algorithm <==

  SCF Algorithm Type is DF.
  DIIS enabled.
  MOM disabled.
  Fractional occupation disabled.
  Guess Type is CORE.
  Energy threshold   = 1.00e-08
  Density threshold  = 1.00e-08
  Integral threshold = 0.00e+00

  ==> Primary Basis <==

  Basis Set: 6-31G*
    Number of shells: 86
    Number of basis function: 167
    Number of Cartesian functions: 167
    Spherical Harmonics?: false
    Max angular momentum: 2

  ==> Pre-Iterations <==

   -------------------------------------------------------
    Irrep   Nso     Nmo     Nalpha   Nbeta   Ndocc  Nsocc
   -------------------------------------------------------
     A        167     167       0       0       0       0
   -------------------------------------------------------
    Total     167     167      36      36      36       0
   -------------------------------------------------------

 OEINTS: Overlap, kinetic, potential, dipole, and quadrupole integrals
         stored in file 35.

  ==> Integral Setup <==

  ==> DFJK: Density-Fitted J/K Matrices <==

    J tasked:                  Yes
    K tasked:                  Yes
    wK tasked:                  No
    OpenMP threads:              4
    Integrals threads:           4
    Memory (MB):              1430
    Algorithm:                Core
    Integral Cache:           NONE
    Schwarz Cutoff:          1E-12
    Fitting Condition:       1E-12

   => Auxiliary Basis Set <=

  Basis Set: 
    Number of shells: 360
    Number of basis function: 1129
    Number of Cartesian functions: 1129
    Spherical Harmonics?: false
    Max angular momentum: 3

  Minimum eigenvalue in the overlap matrix is 3.4088704686E-03.
  Using Symmetric Orthogonalization.
  SCF Guess: Core (One-Electron) Hamiltonian.

  ==> Iterations <==

                           Total Energy        Delta E     RMS |[F,P]|

   @DF-RHF iter   1:  -291.56294476322142   -2.91563e+02   5.88796e-02 
   @DF-RHF iter   2:   -43.05179572835493    2.48511e+02   7.53498e-02 DIIS
   @DF-RHF iter   3:  -277.73165357603847   -2.34680e+02   4.40989e-02 DIIS
   @DF-RHF iter   4:  -204.10010739828641    7.36315e+01   6.68476e-02 DIIS
   @DF-RHF iter   5:  -340.91177097945280   -1.36812e+02   3.41948e-02 DIIS
   @DF-RHF iter   6:  -370.39416972340888   -2.94824e+01   2.48919e-02 DIIS
   @DF-RHF iter   7:  -386.67135483801570   -1.62772e+01   5.25209e-03 DIIS
   @DF-RHF iter   8:  -387.09414495769073   -4.22790e-01   1.21133e-03 DIIS
   @DF-RHF iter   9:  -387.11663870166404   -2.24937e-02   3.88984e-04 DIIS
   @DF-RHF iter  10:  -387.11916656438240   -2.52786e-03   1.46645e-04 DIIS
   @DF-RHF iter  11:  -387.11953233524065   -3.65771e-04   6.20917e-05 DIIS
   @DF-RHF iter  12:  -387.11960062805900   -6.82928e-05   1.94306e-05 DIIS
   @DF-RHF iter  13:  -387.11960941623312   -8.78817e-06   6.36342e-06 DIIS
   @DF-RHF iter  14:  -387.11961033711628   -9.20883e-07   1.97891e-06 DIIS
   @DF-RHF iter  15:  -387.11961043577963   -9.86633e-08   5.07053e-07 DIIS
   @DF-RHF iter  16:  -387.11961044198910   -6.20946e-09   1.75066e-07 DIIS
   @DF-RHF iter  17:  -387.11961044297192   -9.82823e-10   4.68649e-08 DIIS
   @DF-RHF iter  18:  -387.11961044306037   -8.84484e-11   2.21598e-08 DIIS
   @DF-RHF iter  19:  -387.11961044309129   -3.09228e-11   1.03535e-08 DIIS
   @DF-RHF iter  20:  -387.11961044310038   -9.09495e-12   4.04636e-09 DIIS

  ==> Post-Iterations <==

    Orbital Energies (a.u.)
    -----------------------

    Doubly Occupied:                                                      

       1A    -20.562778     2A    -11.326572     3A    -11.234942  
       4A    -11.234300     5A    -11.223083     6A    -11.218400  
       7A    -11.216358     8A    -11.215373     9A    -11.208239  
      10A     -1.402763    11A     -1.104510    12A     -1.067871  
      13A     -1.010521    14A     -0.942442    15A     -0.876483  
      16A     -0.821669    17A     -0.786526    18A     -0.777323  
      19A     -0.664918    20A     -0.655556    21A     -0.643042  
      22A     -0.614795    23A     -0.611438    24A     -0.592491  
      25A     -0.569678    26A     -0.547371    27A     -0.540895  
      28A     -0.518406    29A     -0.516094    30A     -0.499720  
      31A     -0.482805    32A     -0.475961    33A     -0.462755  
      34A     -0.455072    35A     -0.441712    36A     -0.410087  

    Virtual:                                                              

      37A      0.160079    38A      0.224274    39A      0.239510  
      40A      0.249534    41A      0.266398    42A      0.272665  
      43A      0.291179    44A      0.297523    45A      0.305500  
      46A      0.311227    47A      0.314893    48A      0.333730  
      49A      0.334775    50A      0.343346    51A      0.352053  
      52A      0.365565    53A      0.370372    54A      0.398314  
      55A      0.405864    56A      0.430521    57A      0.438635  
      58A      0.445675    59A      0.471107    60A      0.473851  
      61A      0.508902    62A      0.693087    63A      0.706584  
      64A      0.722390    65A      0.734769    66A      0.737541  
      67A      0.754349    68A      0.780130    69A      0.784069  
      70A      0.827025    71A      0.850165    72A      0.869496  
      73A      0.903718    74A      0.920250    75A      0.943258  
      76A      0.951389    77A      0.957571    78A      0.988768  
      79A      0.993935    80A      1.021057    81A      1.028214  
      82A      1.074849    83A      1.094834    84A      1.114556  
      85A      1.122855    86A      1.128215    87A      1.140351  
      88A      1.150534    89A      1.157806    90A      1.160573  
      91A      1.180676    92A      1.190439    93A      1.199090  
      94A      1.204336    95A      1.211723    96A      1.229990  
      97A      1.246262    98A      1.247862    99A      1.256394  
     100A      1.271021   101A      1.286068   102A      1.315052  
     103A      1.329854   104A      1.348639   105A      1.373921  
     106A      1.453981   107A      1.494150   108A      1.568708  
     109A      1.669954   110A      1.706643   111A      1.742248  
     112A      1.766524   113A      1.786195   114A      1.800812  
     115A      1.846512   116A      1.907810   117A      1.924177  
     118A      1.955912   119A      1.979129   120A      2.026504  
     121A      2.092252   122A      2.110915   123A      2.140051  
     124A      2.150942   125A      2.172345   126A      2.189623  
     127A      2.226689   128A      2.246736   129A      2.260296  
     130A      2.298936   131A      2.308157   132A      2.320280  
     133A      2.341593   134A      2.393449   135A      2.423448  
     136A      2.433765   137A      2.487059   138A      2.521758  
     139A      2.561825   140A      2.588563   141A      2.644878  
     142A      2.669938   143A      2.680647   144A      2.717805  
     145A      2.757132   146A      2.761975   147A      2.809921  
     148A      2.823624   149A      2.894380   150A      2.945862  
     151A      2.963340   152A      2.990432   153A      3.001963  
     154A      3.015215   155A      3.117687   156A      3.169102  
     157A      3.261697   158A      3.367026   159A      4.314811  
     160A      4.524457   161A      4.564571   162A      4.646280  
     163A      4.744968   164A      4.835189   165A      4.896461  
     166A      4.936620   167A      5.004925  

    Final Occupation by Irrep:
              A 
    DOCC [    36 ]

  Energy converged.

  @DF-RHF Final Energy:  -387.11961044310038

   => Energetics <=

    Nuclear Repulsion Energy =            448.1059473168324416
    One-Electron Energy =               -1412.5852162387122917
    Two-Electron Energy =                 577.3596584787801476
    DFT Exchange-Correlation Energy =       0.0000000000000000
    Empirical Dispersion Energy =           0.0000000000000000
    PCM Polarization Energy =               0.0000000000000000
    EFP Energy =                            0.0000000000000000
    Total Energy =                       -387.1196104430996456

    Alert: EFP and PCM quantities not currently incorporated into SCF psivars.

Properties will be evaluated at   0.000000,   0.000000,   0.000000 Bohr
  ==> Properties <==


Properties computed using the SCF density matrix

  Nuclear Dipole Moment: (a.u.)
     X:     8.1397      Y:    -4.7243      Z:     7.5176

  Electronic Dipole Moment: (a.u.)
     X:    -8.4868      Y:     4.4486      Z:    -6.4046

  Dipole Moment: (a.u.)
     X:    -0.3472      Y:    -0.2758      Z:     1.1130     Total:     1.1981

  Dipole Moment: (Debye)
     X:    -0.8824      Y:    -0.7009      Z:     2.8291     Total:     3.0453


  Saving occupied orbitals to File 180.

*** tstop() called on cx1-1-2-2.cx1.hpc.ic.ac.uk at Fri Sep  2 15:59:21 2016
Module time:
	user time   =      32.03 seconds =       0.53 minutes
	system time =       0.37 seconds =       0.01 minutes
	total time  =         10 seconds =       0.17 minutes
Total time:
	user time   =      32.03 seconds =       0.53 minutes
	system time =       0.37 seconds =       0.01 minutes
	total time  =         10 seconds =       0.17 minutes

*** tstart() called on cx1-1-2-2.cx1.hpc.ic.ac.uk
*** at Fri Sep  2 15:59:21 2016


         ------------------------------------------------------------
                                   SCF GRAD                          
                          Rob Parrish, Justin Turney,                
                       Andy Simmonett, and Alex Sokolov              
         ------------------------------------------------------------

  ==> Geometry <==

    Molecular point group: c1
    Full point group: C1

    Geometry (in Angstrom), charge = 0, multiplicity = 1:

       Center              X                  Y                   Z               Mass       
    ------------   -----------------  -----------------  -----------------  -----------------
           H         -3.348908691793     0.789928647834    -1.465778160115     1.007825032070
           C         -2.361243691793     1.266314647834    -1.431212160115    12.000000000000
           C         -1.839588691793     1.551891647834    -0.045956160115    12.000000000000
           O         -1.784803691793     1.519693647834    -2.438816160115    15.994914619560
           C         -1.872124691793     0.314573647834     0.861921839885    12.000000000000
           H         -0.837488691793     1.955274647834    -0.134195160115     1.007825032070
           H         -2.474912691793     2.326600647834     0.381646839885     1.007825032070
           C         -0.904770691793    -0.788515352166     0.425206839885    12.000000000000
           H         -1.632163691793     0.624692647834     1.874605839885     1.007825032070
           H         -2.886396691793    -0.079962352166     0.898676839885     1.007825032070
           C          0.528662308207    -0.547558352166     0.902725839885    12.000000000000
           H         -0.918141691793    -0.864436352166    -0.660106160115     1.007825032070
           H         -1.249845691793    -1.750971352166     0.798222839885     1.007825032070
           C          1.496514308207    -1.644286352166     0.450619839885    12.000000000000
           H          0.864086308207     0.419256647834     0.535994839885     1.007825032070
           H          0.540557308207    -0.483954352166     1.990014839885     1.007825032070
           C          2.928777308207    -1.489102352166     0.974653839885    12.000000000000
           H          1.514756308207    -1.682414352166    -0.637455160115     1.007825032070
           H          1.110744308207    -2.606480352166     0.780887839885     1.007825032070
           C          3.672776308207    -0.265038352166     0.438227839885    12.000000000000
           H          3.489897308207    -2.381444352166     0.708536839885     1.007825032070
           H          2.912723308207    -1.454665352166     2.062071839885     1.007825032070
           H          3.690503308207    -0.264480352166    -0.648489160115     1.007825032070
           H          3.214542308207     0.663430647834     0.762173839885     1.007825032070
           H          4.701787308207    -0.257600352166     0.784747839885     1.007825032070

  Nuclear repulsion =  448.105947316832442

  ==> Basis Set <==

  Basis Set: 6-31G*
    Number of shells: 86
    Number of basis function: 167
    Number of Cartesian functions: 167
    Spherical Harmonics?: false
    Max angular momentum: 2

  ==> DFJKGrad: Density-Fitted SCF Gradients <==

    Gradient:                    1
    J tasked:                  Yes
    K tasked:                  Yes
    wK tasked:                  No
    OpenMP threads:              4
    Integrals threads:           4
    Memory (MB):              1430
    Schwarz Cutoff:          0E+00
    Fitting Condition:       1E-12

   => Auxiliary Basis Set <=

  Basis Set: 
    Number of shells: 360
    Number of basis function: 1129
    Number of Cartesian functions: 1129
    Spherical Harmonics?: false
    Max angular momentum: 3


  -Total Gradient:
     Atom            X                  Y                   Z
    ------   -----------------  -----------------  -----------------
       1        0.000141332189    -0.000314749619     0.000098932750
       2        0.000265929093     0.000790229170    -0.000545902382
       3       -0.000416044084    -0.001399281679    -0.000734927961
       4       -0.000131701868    -0.000245814814     0.000276157025
       5        0.003046659170     0.000136451449    -0.001299303271
       6        0.000834488814    -0.000567586156     0.000417751625
       7       -0.000296716386    -0.000166802025    -0.000036245730
       8       -0.001110286457     0.002007357577     0.000228975785
       9        0.001269163779     0.000228489598    -0.000383391737
      10       -0.000275697930    -0.001344650856     0.000947037568
      11       -0.001542423647    -0.000395875341     0.002146841473
      12       -0.001140829018     0.001879430869    -0.000023258759
      13       -0.000185158203    -0.001397559643    -0.000889259944
      14       -0.000167520922    -0.000398196821     0.000272398014
      15       -0.000957329051     0.000776092004    -0.000466272330
      16        0.000609376022     0.000352112823     0.000228070252
      17       -0.000086563502     0.000164479659     0.000176593355
      18       -0.000064611793    -0.000118452748    -0.000196634090
      19        0.000145253301     0.000109174476    -0.000112145500
      20       -0.000107399397    -0.000044203113     0.000207716882
      21        0.000018964681     0.000044599661    -0.000041226543
      22        0.000046538537     0.000043829094    -0.000116882460
      23        0.000008161617    -0.000044385935    -0.000208657018
      24       -0.000011987479    -0.000084081840     0.000048821259
      25        0.000108402537    -0.000010605792     0.000004811743


*** tstop() called on cx1-1-2-2.cx1.hpc.ic.ac.uk at Fri Sep  2 15:59:31 2016
Module time:
	user time   =      36.73 seconds =       0.61 minutes
	system time =       0.28 seconds =       0.00 minutes
	total time  =         10 seconds =       0.17 minutes
Total time:
	user time   =      68.79 seconds =       1.15 minutes
	system time =       0.65 seconds =       0.01 minutes
	total time  =         20 seconds =       0.33 minutes
CURRENT ENERGY: -387.1196104431

			-----------------------------------------
			 OPTKING 2.0: for geometry optimizations 
			  - R.A. King,  Bethel University        
			-----------------------------------------

	Internal coordinates to be generated automatically.
	Detected frag with atoms:  1 2 3 4 5 6 7 8 9 10 11 12 13 14 15 16 17 18 19 20
	 21 22 23 24 25
	---Fragment 1 Bond Connectivity---
	 1 : 2
	 2 : 1 3 4
	 3 : 2 5 6 7
	 4 : 2
	 5 : 3 8 9 10
	 6 : 3
	 7 : 3
	 8 : 5 11 12 13
	 9 : 5
	 10 : 5
	 11 : 8 14 15 16
	 12 : 8
	 13 : 8
	 14 : 11 17 18 19
	 15 : 11
	 16 : 11
	 17 : 14 20 21 22
	 18 : 14
	 19 : 14
	 20 : 17 23 24 25
	 21 : 17
	 22 : 17
	 23 : 20
	 24 : 20
	 25 : 20

	Assuming in current code that numbering for constraints corresponds to unified fragment.
	Frozen dihedral atom list: 
	     3     5     8    12
	---Fragment 1 Geometry and Gradient---
	 H          -6.3285202715        1.4927488089       -2.7699192942
	 C          -4.4621039105        2.3929878825       -2.7045990207
	 C          -3.4763188246        2.9326502023       -0.0868445567
	 O          -3.3727901785        2.8718048003       -4.6086946311
	 C          -3.5378029541        0.5944580430        1.6287962253
	 H          -1.5826242669        3.6949335990       -0.2535921010
	 H          -4.6769071903        4.3966380450        0.7212080069
	 C          -1.7097688206       -1.4900780672        0.8035244772
	 H          -3.0843423815        1.1804980216        3.5424916445
	 H          -5.4544992584       -0.1511069465        1.6982531094
	 C           0.9990269793       -1.0347353274        1.7059046105
	 H          -1.7350363487       -1.6335479649       -1.2474198612
	 H          -2.3618660659       -3.3088563221        1.5084225604
	 C           2.8280021965       -3.1072508896        0.8515480874
	 H           1.6328864777        0.7922802438        1.0128834560
	 H           1.0215052716       -0.9145411864        3.7605830478
	 C           5.5345870167       -2.8139956294        1.8418288317
	 H           2.8624745806       -3.1793023676       -1.2046156746
	 H           2.0990025462       -4.9255340363        1.4756641579
	 C           6.9405413699       -0.5008499003        0.8281306012
	 H           6.5949501444       -4.5002776263        1.3389405824
	 H           5.5042493534       -2.7489191306        3.8967510437
	 H           6.9740405450       -0.4997954331       -1.2254669128
	 H           6.0746046051        1.2537022326        1.4402998230
	 H           8.8850903476       -0.4867941173        1.4829585008
	             0.0001413322       -0.0003147496        0.0000989328
	             0.0002659291        0.0007902292       -0.0005459024
	            -0.0004160441       -0.0013992817       -0.0007349280
	            -0.0001317019       -0.0002458148        0.0002761570
	             0.0030466592        0.0001364514       -0.0012993033
	             0.0008344888       -0.0005675862        0.0004177516
	            -0.0002967164       -0.0001668020       -0.0000362457
	            -0.0011102865        0.0020073576        0.0002289758
	             0.0012691638        0.0002284896       -0.0003833917
	            -0.0002756979       -0.0013446509        0.0009470376
	            -0.0015424236       -0.0003958753        0.0021468415
	            -0.0011408290        0.0018794309       -0.0000232588
	            -0.0001851582       -0.0013975596       -0.0008892599
	            -0.0001675209       -0.0003981968        0.0002723980
	            -0.0009573291        0.0007760920       -0.0004662723
	             0.0006093760        0.0003521128        0.0002280703
	            -0.0000865635        0.0001644797        0.0001765934
	            -0.0000646118       -0.0001184527       -0.0001966341
	             0.0001452533        0.0001091745       -0.0001121455
	            -0.0001073994       -0.0000442031        0.0002077169
	             0.0000189647        0.0000445997       -0.0000412265
	             0.0000465385        0.0000438291       -0.0001168825
	             0.0000081616       -0.0000443859       -0.0002086570
	            -0.0000119875       -0.0000840818        0.0000488213
	             0.0001084025       -0.0000106058        0.0000048117

	Previous optimization step data not found.  Starting new optimization.

	---Fragment 1 Intrafragment Coordinates---
	 - Coordinate -           - BOHR/RAD -       - ANG/DEG -
	 R(1,2)           =         2.073212	       1.097097
	 R(2,3)           =         2.848797	       1.507519
	 R(2,4)           =         2.245317	       1.188171
	 R(3,5)           =         2.900749	       1.535011
	 R(3,6)           =         2.048160	       1.083840
	 R(3,7)           =         2.058548	       1.089337
	 R(5,8)           =         2.892762	       1.530784
	 R(5,9)           =         2.052145	       1.085948
	 R(5,10)          =         2.057770	       1.088925
	 R(8,11)          =         2.891228	       1.529972
	 R(8,12)          =         2.056112	       1.088047
	 R(8,13)          =         2.056713	       1.088365
	 R(11,14)         =         2.893164	       1.530996
	 R(11,15)         =         2.054274	       1.087075
	 R(11,16)         =         2.058314	       1.089213
	 R(14,17)         =         2.896939	       1.532994
	 R(14,18)         =         2.057715	       1.088896
	 R(14,19)         =         2.055995	       1.087986
	 R(17,20)         =         2.890490	       1.529582
	 R(17,21)         =         2.054462	       1.087174
	 R(17,22)         =         2.056176	       1.088082
	 R(20,23)         =         2.053871	       1.086862
	 R(20,24)         =         2.050134	       1.084884
	 R(20,25)         =         2.051894	       1.085815
	 B(1,2,3)         =         2.007250	     115.006977
	 B(1,2,4)         =         2.097443	     120.174646
	 B(2,3,5)         =         1.964324	     112.547448
	 B(2,3,6)         =         1.891919	     108.398971
	 B(2,3,7)         =         1.868793	     107.073975
	 B(3,2,4)         =         2.178491	     124.818360
	 B(3,5,8)         =         1.980924	     113.498561
	 B(3,5,9)         =         1.893013	     108.461652
	 B(3,5,10)        =         1.908962	     109.375470
	 B(5,3,6)         =         1.947385	     111.576923
	 B(5,3,7)         =         1.905752	     109.191543
	 B(5,8,11)        =         1.970917	     112.925234
	 B(5,8,12)        =         1.904016	     109.092094
	 B(5,8,13)        =         1.916760	     109.822233
	 B(6,3,7)         =         1.882320	     107.848976
	 B(8,5,9)         =         1.909420	     109.401721
	 B(8,5,10)        =         1.914688	     109.703515
	 B(8,11,14)       =         1.968494	     112.786418
	 B(8,11,15)       =         1.900606	     108.896722
	 B(8,11,16)       =         1.908145	     109.328671
	 B(9,5,10)        =         1.852312	     106.129684
	 B(11,8,12)       =         1.911158	     109.501291
	 B(11,8,13)       =         1.906416	     109.229577
	 B(11,14,17)      =         2.001127	     114.656143
	 B(11,14,18)      =         1.907898	     109.314490
	 B(11,14,19)      =         1.896245	     108.646808
	 B(12,8,13)       =         1.850705	     106.037584
	 B(14,11,15)      =         1.920287	     110.024335
	 B(14,11,16)      =         1.906790	     109.251013
	 B(14,17,20)      =         1.999369	     114.555402
	 B(14,17,21)      =         1.891728	     108.388011
	 B(14,17,22)      =         1.908210	     109.332359
	 B(15,11,16)      =         1.856107	     106.347111
	 B(17,14,18)      =         1.906541	     109.236727
	 B(17,14,19)      =         1.893394	     108.483514
	 B(17,20,23)      =         1.937991	     111.038716
	 B(17,20,24)      =         1.954884	     112.006606
	 B(17,20,25)      =         1.933199	     110.764149
	 B(18,14,19)      =         1.852824	     106.158983
	 B(20,17,21)      =         1.896477	     108.660157
	 B(20,17,22)      =         1.909576	     109.410635
	 B(21,17,22)      =         1.852739	     106.154108
	 B(23,20,24)      =         1.880745	     107.758739
	 B(23,20,25)      =         1.879297	     107.675787
	 B(24,20,25)      =         1.874575	     107.405240
	 D(1,2,3,5)       =         0.911725	      52.238003
	 D(1,2,3,6)       =         3.074185	     176.137840
	 D(1,2,3,7)       =        -1.182515	     -67.753097
	 D(2,3,5,8)       =         1.166881	      66.857353
	 D(2,3,5,9)       =        -2.990400	    -171.337304
	 D(2,3,5,10)      =        -0.977462	     -56.004469
	 D(3,5,8,11)      =         1.431199	      82.001689
	*D(3,5,8,12)      =        -0.698132	     -39.999997
	 D(3,5,8,13)      =        -2.719551	    -155.818803
	 D(4,2,3,5)       =        -2.230678	    -127.808423
	 D(4,2,3,6)       =        -0.068218	      -3.908586
	 D(4,2,3,7)       =         1.958268	     112.200477
	 D(5,8,11,14)     =        -3.130079	    -179.340336
	 D(5,8,11,15)     =        -0.993161	     -56.903962
	 D(5,8,11,16)     =         1.028037	      58.902156
	 D(6,3,5,8)       =        -0.964519	     -55.262889
	 D(6,3,5,9)       =         1.161385	      66.542454
	 D(6,3,5,10)      =        -3.108863	    -178.124710
	 D(7,3,5,8)       =        -3.043568	    -174.383601
	 D(7,3,5,9)       =        -0.917664	     -52.578259
	 D(7,3,5,10)      =         1.095274	      62.754577
	 D(8,11,14,17)    =        -3.081836	    -176.576209
	 D(8,11,14,18)    =         1.054137	      60.397615
	 D(8,11,14,19)    =        -0.960606	     -55.038673
	 D(9,5,8,11)      =        -0.685537	     -39.278353
	 D(9,5,8,12)      =        -2.814868	    -161.280038
	 D(9,5,8,13)      =         1.446898	      82.901155
	 D(10,5,8,11)     =        -2.710799	    -155.317339
	 D(10,5,8,12)     =         1.443055	      82.680975
	 D(10,5,8,13)     =        -0.578364	     -33.137831
	 D(11,14,17,20)   =        -1.152772	     -66.048997
	 D(11,14,17,21)   =         3.009745	     172.445696
	 D(11,14,17,22)   =         0.997406	      57.147135
	 D(12,8,11,14)    =        -1.004768	     -57.568948
	 D(12,8,11,15)    =         1.132150	      64.867425
	 D(12,8,11,16)    =        -3.129837	    -179.326456
	 D(13,8,11,14)    =         1.014879	      58.148278
	 D(13,8,11,15)    =        -3.131389	    -179.415348
	 D(13,8,11,16)    =        -1.110190	     -63.609230
	 D(14,17,20,23)   =        -0.975995	     -55.920410
	 D(14,17,20,24)   =         1.127583	      64.605735
	 D(14,17,20,25)   =        -3.063188	    -175.507770
	 D(15,11,14,17)   =         1.075509	      61.622122
	 D(15,11,14,18)   =        -1.071703	     -61.404054
	 D(15,11,14,19)   =        -3.086446	    -176.840342
	 D(16,11,14,17)   =        -0.956001	     -54.774830
	 D(16,11,14,18)   =        -3.103213	    -177.801006
	 D(16,11,14,19)   =         1.165229	      66.762706
	 D(18,14,17,20)   =         0.995169	      57.018981
	 D(18,14,17,21)   =        -1.125499	     -64.486326
	 D(18,14,17,22)   =        -3.137838	    -179.784888
	 D(19,14,17,20)   =         3.007626	     172.324257
	 D(19,14,17,21)   =         0.886958	      50.818950
	 D(19,14,17,22)   =        -1.125382	     -64.479611
	 D(21,17,20,23)   =         1.142068	      65.435691
	 D(21,17,20,24)   =        -3.037539	    -174.038165
	 D(21,17,20,25)   =        -0.945125	     -54.151669
	 D(22,17,20,23)   =        -3.125439	    -179.074444
	 D(22,17,20,24)   =        -1.021861	     -58.548299
	 D(22,17,20,25)   =         1.070553	      61.338196

	Current energy   :      -387.1196104431

	Generating empirical Hessian (Schlegel '84) for each fragment.
	Taking RFO optimization step.
	Going to follow RFO solution 1.
	Using RFO vector 1.
	Norm of target step-size    0.41675
	Projected energy change by RFO approximation:        -0.0035224627

	Back-transformation to cartesian coordinates...
	Successfully converged to displaced geometry.

	Back-transformation to cartesian coordinates to adjust frozen coordinates...
	Successfully converged to displaced geometry.

	--- Internal Coordinate Step in ANG or DEG, aJ/ANG or AJ/DEG ---
	 ---------------------------------------------------------------------------
	   Coordinate                Previous        Force       Change         New 
	   ----------                --------       ------       ------       ------
	    1 R(1,2)          =      1.097097    -0.000052    -0.000010     1.097087
	    2 R(2,3)          =      1.507519    -0.000149    -0.000030     1.507488
	    3 R(2,4)          =      1.188171     0.002888     0.000167     1.188338
	    4 R(3,5)          =      1.535011     0.010021     0.002216     1.537227
	    5 R(3,6)          =      1.083840    -0.004336    -0.000782     1.083058
	    6 R(3,7)          =      1.089337    -0.000331    -0.000061     1.089276
	    7 R(5,8)          =      1.530784     0.043184     0.009426     1.540210
	    8 R(5,9)          =      1.085948     0.000097     0.000018     1.085966
	    9 R(5,10)         =      1.088925    -0.006393    -0.001173     1.087752
	   10 R(8,11)         =      1.529972     0.009937     0.002164     1.532136
	   11 R(8,12)         =      1.088047     0.000774     0.000142     1.088189
	   12 R(8,13)         =      1.088365    -0.008155    -0.001493     1.086872
	   13 R(11,14)        =      1.530996    -0.001332    -0.000291     1.530705
	   14 R(11,15)        =      1.087075    -0.004549    -0.000829     1.086246
	   15 R(11,16)        =      1.089213    -0.002100    -0.000386     1.088827
	   16 R(14,17)        =      1.532994    -0.000075    -0.000016     1.532978
	   17 R(14,18)        =      1.088896    -0.001644    -0.000302     1.088594
	   18 R(14,19)        =      1.087986     0.001500     0.000274     1.088260
	   19 R(17,20)        =      1.529582     0.001372     0.000298     1.529880
	   20 R(17,21)        =      1.087174     0.000138     0.000025     1.087200
	   21 R(17,22)        =      1.088082     0.000957     0.000175     1.088257
	   22 R(20,23)        =      1.086862    -0.001720    -0.000313     1.086548
	   23 R(20,24)        =      1.084884     0.000431     0.000078     1.084962
	   24 R(20,25)        =      1.085815    -0.000858    -0.000156     1.085660
	   25 B(1,2,3)        =    115.006977     0.000012     0.011614   115.018591
	   26 B(1,2,4)        =    120.174646    -0.000002    -0.056032   120.118614
	   27 B(2,3,5)        =    112.547448    -0.000043    -0.111095   112.436353
	   28 B(2,3,6)        =    108.398971    -0.000011     0.003291   108.402262
	   29 B(2,3,7)        =    107.073975     0.000009    -0.133954   106.940021
	   30 B(3,2,4)        =    124.818360    -0.000010    -0.073714   124.744646
	   31 B(3,5,8)        =    113.498561     0.000200     0.790070   114.288631
	   32 B(3,5,9)        =    108.461652    -0.000059     0.406302   108.867954
	   33 B(3,5,10)       =    109.375470    -0.000126    -1.287100   108.088369
	   34 B(5,3,6)        =    111.576923     0.000068     0.518447   112.095370
	   35 B(5,3,7)        =    109.191543     0.000005    -0.064305   109.127238
	   36 B(5,8,11)       =    112.925234     0.000242     0.737623   113.662857
	   37 B(5,8,12)       =    109.092094     0.000070     1.018041   110.110135
	   38 B(5,8,13)       =    109.822233    -0.000145    -0.581894   109.240339
	   39 B(6,3,7)        =    107.848976    -0.000031    -0.248358   107.600618
	   40 B(8,5,9)        =    109.401721    -0.000036     0.501650   109.903371
	   41 B(8,5,10)       =    109.703515    -0.000008    -0.161531   109.541983
	   42 B(8,11,14)      =    112.786418     0.000002    -0.007711   112.778707
	   43 B(8,11,15)      =    108.896722     0.000085     0.757658   109.654380
	   44 B(8,11,16)      =    109.328671    -0.000056    -0.499585   108.829085
	   45 B(9,5,10)       =    106.129684     0.000017    -0.338165   105.791519
	   46 B(11,8,12)      =    109.501291    -0.000185    -1.238311   108.262981
	   47 B(11,8,13)      =    109.229577    -0.000038    -0.364858   108.864719
	   48 B(11,14,17)     =    114.656143     0.000010     0.026130   114.682273
	   49 B(11,14,18)     =    109.314490    -0.000003    -0.020960   109.293529
	   50 B(11,14,19)     =    108.646808    -0.000008    -0.045086   108.601722
	   51 B(12,8,13)      =    106.037584     0.000043     0.402870   106.440454
	   52 B(14,11,15)     =    110.024335    -0.000064    -0.254673   109.769662
	   53 B(14,11,16)     =    109.251013     0.000029    -0.064872   109.186141
	   54 B(14,17,20)     =    114.555402    -0.000004    -0.010252   114.545150
	   55 B(14,17,21)     =    108.388011     0.000001     0.015645   108.403656
	   56 B(14,17,22)     =    109.332359    -0.000003    -0.044471   109.287888
	   57 B(15,11,16)     =    106.347111     0.000005     0.069439   106.416550
	   58 B(17,14,18)     =    109.236727    -0.000005    -0.022397   109.214330
	   59 B(17,14,19)     =    108.483514     0.000000     0.013398   108.496911
	   60 B(17,20,23)     =    111.038716     0.000003     0.011978   111.050694
	   61 B(17,20,24)     =    112.006606     0.000007     0.033057   112.039664
	   62 B(17,20,25)     =    110.764149    -0.000002    -0.008978   110.755170
	   63 B(18,14,19)     =    106.158983     0.000005     0.051793   106.210777
	   64 B(20,17,21)     =    108.660157     0.000004     0.046329   108.706486
	   65 B(20,17,22)     =    109.410635     0.000004     0.009151   109.419787
	   66 B(21,17,22)     =    106.154108    -0.000002    -0.016325   106.137783
	   67 B(23,20,24)     =    107.758739    -0.000006    -0.029891   107.728848
	   68 B(23,20,25)     =    107.675787     0.000000     0.004098   107.679885
	   69 B(24,20,25)     =    107.405240    -0.000003    -0.012495   107.392745
	   70 D(1,2,3,5)      =     52.238003    -0.000001     2.371863    54.609865
	   71 D(1,2,3,6)      =    176.137840     0.000010     2.961981   179.099822
	   72 D(1,2,3,7)      =    -67.753097     0.000002     2.604259   -65.148838
	   73 D(2,3,5,8)      =     66.857353     0.000003     6.655279    73.512632
	   74 D(2,3,5,9)      =   -171.337304     0.000013     8.143496  -163.193809
	   75 D(2,3,5,10)     =    -56.004469    -0.000005     7.277598   -48.726870
	   76 D(3,5,8,11)     =     82.001689    -0.000005    -0.346619    81.655070
	   77 *D(3,5,8,12)    =    -39.999997    -0.000000    -0.000000   -39.999997
	   78 D(3,5,8,13)     =   -155.818803    -0.000002    -0.733818  -156.552622
	   79 D(4,2,3,5)      =   -127.808423    -0.000007    -1.547146  -129.355570
	   80 D(4,2,3,6)      =     -3.908586     0.000005    -0.957028    -4.865613
	   81 D(4,2,3,7)      =    112.200477    -0.000004    -1.314750   110.885728
	   82 D(5,8,11,14)    =   -179.340336    -0.000010     1.407604  -177.932732
	   83 D(5,8,11,15)    =    -56.903962    -0.000015     1.622505   -55.281457
	   84 D(5,8,11,16)    =     58.902156    -0.000010     1.847442    60.749598
	   85 D(6,3,5,8)      =    -55.262889     0.000002     6.347584   -48.915305
	   86 D(6,3,5,9)      =     66.542454     0.000012     7.835801    74.378255
	   87 D(6,3,5,10)     =   -178.124710    -0.000006     6.969904  -171.154807
	   88 D(7,3,5,8)      =   -174.383601     0.000000     6.376484  -168.007117
	   89 D(7,3,5,9)      =    -52.578259     0.000010     7.864701   -44.713557
	   90 D(7,3,5,10)     =     62.754577    -0.000008     6.998804    69.753381
	   91 D(8,11,14,17)   =   -176.576209     0.000009     1.403369  -175.172841
	   92 D(8,11,14,18)   =     60.397615     0.000009     1.430312    61.827927
	   93 D(8,11,14,19)   =    -55.038673     0.000009     1.404757   -53.633917
	   94 D(9,5,8,11)     =    -39.278353    -0.000013    -1.799379   -41.077731
	   95 D(9,5,8,12)     =   -161.280038    -0.000008    -1.452760  -162.732798
	   96 D(9,5,8,13)     =     82.901155    -0.000010    -2.186578    80.714577
	   97 D(10,5,8,11)    =   -155.317339    -0.000012    -1.585658  -156.902997
	   98 D(10,5,8,12)    =     82.680975    -0.000006    -1.239039    81.441936
	   99 D(10,5,8,13)    =    -33.137831    -0.000009    -1.972858   -35.110689
	  100 D(11,14,17,20)  =    -66.048997     0.000000     0.209335   -65.839662
	  101 D(11,14,17,21)  =    172.445696    -0.000001     0.144971   172.590667
	  102 D(11,14,17,22)  =     57.147135     0.000000     0.179533    57.326667
	  103 D(12,8,11,14)   =    -57.568948     0.000017     2.313373   -55.255575
	  104 D(12,8,11,15)   =     64.867425     0.000013     2.528274    67.395699
	  105 D(12,8,11,16)   =   -179.326456     0.000018     2.753211  -176.573245
	  106 D(13,8,11,14)   =     58.148278     0.000001     1.918247    60.066525
	  107 D(13,8,11,15)   =   -179.415348    -0.000004     2.133148  -177.282201
	  108 D(13,8,11,16)   =    -63.609230     0.000001     2.358085   -61.251145
	  109 D(14,17,20,23)  =    -55.920410    -0.000000    -0.281983   -56.202392
	  110 D(14,17,20,24)  =     64.605735    -0.000001    -0.289190    64.316544
	  111 D(14,17,20,25)  =   -175.507770    -0.000001    -0.289062  -175.796831
	  112 D(15,11,14,17)  =     61.622122    -0.000006     0.618301    62.240423
	  113 D(15,11,14,18)  =    -61.404054    -0.000005     0.645244   -60.758810
	  114 D(15,11,14,19)  =   -176.840342    -0.000005     0.619689  -176.220653
	  115 D(16,11,14,17)  =    -54.774830    -0.000003     0.716695   -54.058134
	  116 D(16,11,14,18)  =   -177.801006    -0.000002     0.743639  -177.057367
	  117 D(16,11,14,19)  =     66.762706    -0.000002     0.718083    67.480790
	  118 D(18,14,17,20)  =     57.018981    -0.000000     0.183155    57.202135
	  119 D(18,14,17,21)  =    -64.486326    -0.000001     0.118791   -64.367535
	  120 D(18,14,17,22)  =   -179.784888    -0.000000     0.153353  -179.631535
	  121 D(19,14,17,20)  =    172.324257     0.000001     0.239917   172.564174
	  122 D(19,14,17,21)  =     50.818950     0.000000     0.175554    50.994504
	  123 D(19,14,17,22)  =    -64.479611     0.000001     0.210115   -64.269496
	  124 D(21,17,20,23)  =     65.435691    -0.000000    -0.234376    65.201315
	  125 D(21,17,20,24)  =   -174.038165    -0.000000    -0.241583  -174.279748
	  126 D(21,17,20,25)  =    -54.151669    -0.000000    -0.241455   -54.393124
	  127 D(22,17,20,23)  =   -179.074444     0.000000    -0.223293  -179.297737
	  128 D(22,17,20,24)  =    -58.548299     0.000000    -0.230500   -58.778800
	  129 D(22,17,20,25)  =     61.338196     0.000000    -0.230372    61.107824
	 ---------------------------------------------------------------------------

  ==> Convergence Check <==

  Measures of convergence in internal coordinates in au.
  Criteria marked as inactive (o), active & met (*), and active & unmet ( ).
  --------------------------------------------------------------------------------------------- ~
   Step     Total Energy     Delta E     MAX Force     RMS Force      MAX Disp      RMS Disp    ~
  --------------------------------------------------------------------------------------------- ~
    Convergence Criteria    1.00e-06 *    3.00e-04 *             o    1.20e-03 *             o  ~
  --------------------------------------------------------------------------------------------- ~
      1    -387.11961044   -3.87e+02      5.24e-03      7.80e-04 o    1.42e-01      3.67e-02 o  ~
  ---------------------------------------------------------------------------------------------

	Writing optimization data to binary file.
	Structure for next step:
	Cartesian Geometry (in Angstrom)
	    H    -3.5224706681   0.9049744944  -1.3669974094
	    C    -2.4952871566   1.2861865010  -1.4233060873
	    C    -1.8395175590   1.5506168136  -0.0919292202
	    O    -2.0047142207   1.5244573272  -2.4791053492
	    C    -1.8636792473   0.3198138563   0.8287262477
	    H    -0.8320765957   1.9053595628  -0.2714678056
	    H    -2.3946231736   2.3603275253   0.3800336017
	    C    -0.8808754178  -0.7944235633   0.4227481603
	    H    -1.6609200275   0.6387497475   1.8468083597
	    H    -2.8772750553  -0.0748169408   0.8384619507
	    C     0.5551469960  -0.5510368913   0.8981877185
	    H    -0.8675271562  -0.9054454051  -0.6596802527
	    H    -1.2282957823  -1.7424883378   0.8249466073
	    C     1.5240916634  -1.6443232944   0.4410989629
	    H     0.8986185694   0.4163072553   0.5429380311
	    H     0.5612428353  -0.4993417707   1.9857699540
	    C     2.9491737289  -1.5066668076   0.9890157510
	    H     1.5587260755  -1.6623803595  -0.6467942460
	    H     1.1277908362  -2.6101121439   0.7485197817
	    C     3.7057718215  -0.2742984804   0.4896554363
	    H     3.5104230738  -2.3959463866   0.7130012626
	    H     2.9165348725  -1.4950686046   2.0767210270
	    H     3.7435901360  -0.2529370681  -0.5960245530
	    H     3.2440534408   0.6494133644   0.8223957532
	    H     4.7280373694  -0.2761735896   0.8552049385
			--------------------------
			 OPTKING Finished Execution 
			--------------------------

    Structure for next step:
    Molecular point group: c1
    Full point group: C1

    Geometry (in Angstrom), charge = 0, multiplicity = 1:

    H           -3.497245496269     0.905482004632    -1.360397692093
    C           -2.470062063249     1.286693982037    -1.416706365748
    C           -1.814292515737     1.551124274445    -0.085329600308
    O           -1.979489164744     1.524964790140    -2.472505546976
    C           -1.838454202192     0.320321411231     0.835325797329
    H           -0.806851629329     1.905866996587    -0.264868172007
    H           -2.369398087897     2.360834924385     0.386633185563
    C           -0.855650447706    -0.793915923285     0.429347740874
    H           -1.635694997778     0.639257278041     1.853407831561
    H           -2.852049932764    -0.074309355804     0.845061499536
    C            0.580371856453    -0.550529269908     0.904787262827
    H           -0.842302187096    -0.904937756604    -0.653080589399
    H           -1.203070785646    -1.741980625464     0.831546157191
    C            1.549316449881    -1.643815589512     0.447698542128
    H            0.923843403641     0.416814802806     0.549537602518
    H            0.586467695276    -0.498834153310     1.992369415248
    C            2.974398406505    -1.506159113246     0.995615288393
    H            1.583950859295    -1.661872653230    -0.640194583755
    H            1.153015652888    -2.609604365321     0.755119337424
    C            3.730996441361    -0.273790880132     0.496255011773
    H            3.535647708603    -2.395438624334     0.719600821035
    H            2.941759552611    -1.494560911092     2.083320481308
    H            3.768814752941    -0.252429469487    -0.589424894622
    H            3.269278095878     0.649920894163     0.828995303253
    H            4.753261911230    -0.275665989255     0.861804486122

gradient() will perform analytic gradient computation.

*** tstart() called on cx1-1-2-2.cx1.hpc.ic.ac.uk
*** at Fri Sep  2 15:59:33 2016


         ---------------------------------------------------------
                                   SCF
            by Justin Turney, Rob Parrish, and Andy Simmonett
                              RHF Reference
                        4 Threads,   2000 MiB Core
         ---------------------------------------------------------

  ==> Geometry <==

    Molecular point group: c1
    Full point group: C1

    Geometry (in Angstrom), charge = 0, multiplicity = 1:

       Center              X                  Y                   Z               Mass       
    ------------   -----------------  -----------------  -----------------  -----------------
           H         -3.497245496269     0.905482004632    -1.360397692093     1.007825032070
           C         -2.470062063249     1.286693982037    -1.416706365748    12.000000000000
           C         -1.814292515737     1.551124274445    -0.085329600308    12.000000000000
           O         -1.979489164744     1.524964790140    -2.472505546976    15.994914619560
           C         -1.838454202192     0.320321411231     0.835325797329    12.000000000000
           H         -0.806851629329     1.905866996587    -0.264868172007     1.007825032070
           H         -2.369398087897     2.360834924385     0.386633185563     1.007825032070
           C         -0.855650447706    -0.793915923285     0.429347740874    12.000000000000
           H         -1.635694997778     0.639257278041     1.853407831561     1.007825032070
           H         -2.852049932764    -0.074309355804     0.845061499536     1.007825032070
           C          0.580371856453    -0.550529269908     0.904787262827    12.000000000000
           H         -0.842302187096    -0.904937756604    -0.653080589399     1.007825032070
           H         -1.203070785646    -1.741980625464     0.831546157191     1.007825032070
           C          1.549316449881    -1.643815589512     0.447698542128    12.000000000000
           H          0.923843403641     0.416814802806     0.549537602518     1.007825032070
           H          0.586467695276    -0.498834153310     1.992369415248     1.007825032070
           C          2.974398406505    -1.506159113246     0.995615288393    12.000000000000
           H          1.583950859295    -1.661872653230    -0.640194583755     1.007825032070
           H          1.153015652888    -2.609604365321     0.755119337424     1.007825032070
           C          3.730996441361    -0.273790880132     0.496255011773    12.000000000000
           H          3.535647708603    -2.395438624334     0.719600821035     1.007825032070
           H          2.941759552611    -1.494560911092     2.083320481308     1.007825032070
           H          3.768814752941    -0.252429469487    -0.589424894622     1.007825032070
           H          3.269278095878     0.649920894163     0.828995303253     1.007825032070
           H          4.753261911230    -0.275665989255     0.861804486122     1.007825032070

  Running in c1 symmetry.

  Rotational constants: A =      0.09069  B =      0.01925  C =      0.01767 [cm^-1]
  Rotational constants: A =   2718.96691  B =    577.18625  C =    529.74290 [MHz]
  Nuclear repulsion =  445.640539268563884

  Charge       = 0
  Multiplicity = 1
  Electrons    = 72
  Nalpha       = 36
  Nbeta        = 36

  ==> Algorithm <==

  SCF Algorithm Type is DF.
  DIIS enabled.
  MOM disabled.
  Fractional occupation disabled.
  Guess Type is READ.
  Energy threshold   = 1.00e-08
  Density threshold  = 1.00e-08
  Integral threshold = 0.00e+00

  ==> Primary Basis <==

  Basis Set: 6-31G*
    Number of shells: 86
    Number of basis function: 167
    Number of Cartesian functions: 167
    Spherical Harmonics?: false
    Max angular momentum: 2

  ==> Pre-Iterations <==

   -------------------------------------------------------
    Irrep   Nso     Nmo     Nalpha   Nbeta   Ndocc  Nsocc
   -------------------------------------------------------
     A        167     167       0       0       0       0
   -------------------------------------------------------
    Total     167     167      36      36      36       0
   -------------------------------------------------------

 OEINTS: Overlap, kinetic, potential, dipole, and quadrupole integrals
         stored in file 35.

  ==> Integral Setup <==

  ==> DFJK: Density-Fitted J/K Matrices <==

    J tasked:                  Yes
    K tasked:                  Yes
    wK tasked:                  No
    OpenMP threads:              4
    Integrals threads:           4
    Memory (MB):              1430
    Algorithm:                Core
    Integral Cache:           NONE
    Schwarz Cutoff:          1E-12
    Fitting Condition:       1E-12

   => Auxiliary Basis Set <=

  Basis Set: 
    Number of shells: 360
    Number of basis function: 1129
    Number of Cartesian functions: 1129
    Spherical Harmonics?: false
    Max angular momentum: 3

  Minimum eigenvalue in the overlap matrix is 3.4195479848E-03.
  Using Symmetric Orthogonalization.
  SCF Guess: Reading in previously saved MOs, projecting if necessary.

  Using orbitals from previous SCF, no projection.
  Recomputing DOCC and SOCC from number of alpha and beta electrons from previous calculation.
              A 
    DOCC [    36 ]

  ==> Iterations <==

                           Total Energy        Delta E     RMS |[F,P]|

   @DF-RHF iter   0:  -387.09968096022010   -3.87100e+02   1.29537e-03 
   @DF-RHF iter   1:  -387.11830023238747   -1.86193e-02   1.96165e-04 
   @DF-RHF iter   2:  -387.11926747575956   -9.67243e-04   7.25073e-05 DIIS
   @DF-RHF iter   3:  -387.11945048521807   -1.83009e-04   3.83349e-05 DIIS
   @DF-RHF iter   4:  -387.11949657150274   -4.60863e-05   1.70368e-05 DIIS
   @DF-RHF iter   5:  -387.11951725111874   -2.06796e-05   1.00850e-05 DIIS
   @DF-RHF iter   6:  -387.11952729060783   -1.00395e-05   2.50112e-06 DIIS
   @DF-RHF iter   7:  -387.11952779246963   -5.01862e-07   6.81034e-07 DIIS
   @DF-RHF iter   8:  -387.11952781122261   -1.87530e-08   2.12610e-07 DIIS
   @DF-RHF iter   9:  -387.11952781290904   -1.68643e-09   5.72901e-08 DIIS
   @DF-RHF iter  10:  -387.11952781304399   -1.34946e-10   1.87389e-08 DIIS
   @DF-RHF iter  11:  -387.11952781305763   -1.36424e-11   6.55665e-09 DIIS

  ==> Post-Iterations <==

    Orbital Energies (a.u.)
    -----------------------

    Doubly Occupied:                                                      

       1A    -20.562709     2A    -11.326478     3A    -11.235684  
       4A    -11.234739     5A    -11.224244     6A    -11.218441  
       7A    -11.216882     8A    -11.215809     9A    -11.208802  
      10A     -1.402501    11A     -1.102552    12A     -1.067890  
      13A     -1.011127    14A     -0.942419    15A     -0.876925  
      16A     -0.820054    17A     -0.787644    18A     -0.778071  
      19A     -0.664798    20A     -0.654535    21A     -0.643627  
      22A     -0.615077    23A     -0.609400    24A     -0.593015  
      25A     -0.569502    26A     -0.546767    27A     -0.542636  
      28A     -0.519602    29A     -0.514786    30A     -0.500216  
      31A     -0.482344    32A     -0.475614    33A     -0.462799  
      34A     -0.455428    35A     -0.442439    36A     -0.410269  

    Virtual:                                                              

      37A      0.158891    38A      0.223844    39A      0.240183  
      40A      0.251100    41A      0.265757    42A      0.271680  
      43A      0.288483    44A      0.297442    45A      0.308233  
      46A      0.310311    47A      0.314794    48A      0.332580  
      49A      0.334067    50A      0.340774    51A      0.352877  
      52A      0.364881    53A      0.368810    54A      0.394382  
      55A      0.403577    56A      0.432687    57A      0.437145  
      58A      0.446034    59A      0.471277    60A      0.477287  
      61A      0.504314    62A      0.692715    63A      0.705236  
      64A      0.721443    65A      0.731602    66A      0.734297  
      67A      0.754621    68A      0.779615    69A      0.788163  
      70A      0.827288    71A      0.841913    72A      0.864117  
      73A      0.901583    74A      0.920352    75A      0.942863  
      76A      0.949911    77A      0.957774    78A      0.985670  
      79A      0.990022    80A      1.019328    81A      1.027183  
      82A      1.074526    83A      1.092444    84A      1.114205  
      85A      1.123771    86A      1.128080    87A      1.139545  
      88A      1.149784    89A      1.154641    90A      1.161314  
      91A      1.182818    92A      1.191780    93A      1.197559  
      94A      1.204177    95A      1.213094    96A      1.230977  
      97A      1.242375    98A      1.247098    99A      1.256623  
     100A      1.267894   101A      1.290866   102A      1.305808  
     103A      1.330082   104A      1.350780   105A      1.373099  
     106A      1.449269   107A      1.490492   108A      1.566581  
     109A      1.668591   110A      1.705106   111A      1.742148  
     112A      1.775641   113A      1.790286   114A      1.796300  
     115A      1.843811   116A      1.906793   117A      1.924891  
     118A      1.944562   119A      1.974724   120A      2.029376  
     121A      2.089273   122A      2.111898   123A      2.134328  
     124A      2.138392   125A      2.179746   126A      2.193242  
     127A      2.221663   128A      2.243949   129A      2.260862  
     130A      2.298610   131A      2.309370   132A      2.317254  
     133A      2.338415   134A      2.387361   135A      2.419994  
     136A      2.427596   137A      2.485343   138A      2.521289  
     139A      2.568312   140A      2.585650   141A      2.643239  
     142A      2.670414   143A      2.681187   144A      2.713003  
     145A      2.750447   146A      2.767138   147A      2.803402  
     148A      2.828047   149A      2.900982   150A      2.943092  
     151A      2.961717   152A      2.990487   153A      3.000715  
     154A      3.008853   155A      3.112835   156A      3.163954  
     157A      3.262110   158A      3.365774   159A      4.307365  
     160A      4.520087   161A      4.562368   162A      4.642362  
     163A      4.742002   164A      4.833766   165A      4.895717  
     166A      4.937909   167A      5.002910  

    Final Occupation by Irrep:
              A 
    DOCC [    36 ]

  Energy converged.

  @DF-RHF Final Energy:  -387.11952781305763

   => Energetics <=

    Nuclear Repulsion Energy =            445.6405392685638844
    One-Electron Energy =               -1407.6484803469329563
    Two-Electron Energy =                 574.8884132653108736
    DFT Exchange-Correlation Energy =       0.0000000000000000
    Empirical Dispersion Energy =           0.0000000000000000
    PCM Polarization Energy =               0.0000000000000000
    EFP Energy =                            0.0000000000000000
    Total Energy =                       -387.1195278130581983

    Alert: EFP and PCM quantities not currently incorporated into SCF psivars.

Properties will be evaluated at   0.000000,   0.000000,   0.000000 Bohr
  ==> Properties <==


Properties computed using the SCF density matrix

  Nuclear Dipole Moment: (a.u.)
     X:     8.7178      Y:    -4.7095      Z:     7.6748

  Electronic Dipole Moment: (a.u.)
     X:    -8.9722      Y:     4.4485      Z:    -6.5258

  Dipole Moment: (a.u.)
     X:    -0.2544      Y:    -0.2610      Z:     1.1490     Total:     1.2054

  Dipole Moment: (Debye)
     X:    -0.6467      Y:    -0.6635      Z:     2.9204     Total:     3.0639


  Saving occupied orbitals to File 180.

*** tstop() called on cx1-1-2-2.cx1.hpc.ic.ac.uk at Fri Sep  2 15:59:42 2016
Module time:
	user time   =      27.66 seconds =       0.46 minutes
	system time =       0.31 seconds =       0.01 minutes
	total time  =          9 seconds =       0.15 minutes
Total time:
	user time   =      98.21 seconds =       1.64 minutes
	system time =       1.02 seconds =       0.02 minutes
	total time  =         31 seconds =       0.52 minutes

*** tstart() called on cx1-1-2-2.cx1.hpc.ic.ac.uk
*** at Fri Sep  2 15:59:42 2016


         ------------------------------------------------------------
                                   SCF GRAD                          
                          Rob Parrish, Justin Turney,                
                       Andy Simmonett, and Alex Sokolov              
         ------------------------------------------------------------

  ==> Geometry <==

    Molecular point group: c1
    Full point group: C1

    Geometry (in Angstrom), charge = 0, multiplicity = 1:

       Center              X                  Y                   Z               Mass       
    ------------   -----------------  -----------------  -----------------  -----------------
           H         -3.497245496269     0.905482004632    -1.360397692093     1.007825032070
           C         -2.470062063249     1.286693982037    -1.416706365748    12.000000000000
           C         -1.814292515737     1.551124274445    -0.085329600308    12.000000000000
           O         -1.979489164744     1.524964790140    -2.472505546976    15.994914619560
           C         -1.838454202192     0.320321411231     0.835325797329    12.000000000000
           H         -0.806851629329     1.905866996587    -0.264868172007     1.007825032070
           H         -2.369398087897     2.360834924385     0.386633185563     1.007825032070
           C         -0.855650447706    -0.793915923285     0.429347740874    12.000000000000
           H         -1.635694997778     0.639257278041     1.853407831561     1.007825032070
           H         -2.852049932764    -0.074309355804     0.845061499536     1.007825032070
           C          0.580371856453    -0.550529269908     0.904787262827    12.000000000000
           H         -0.842302187096    -0.904937756604    -0.653080589399     1.007825032070
           H         -1.203070785646    -1.741980625464     0.831546157191     1.007825032070
           C          1.549316449881    -1.643815589512     0.447698542128    12.000000000000
           H          0.923843403641     0.416814802806     0.549537602518     1.007825032070
           H          0.586467695276    -0.498834153310     1.992369415248     1.007825032070
           C          2.974398406505    -1.506159113246     0.995615288393    12.000000000000
           H          1.583950859295    -1.661872653230    -0.640194583755     1.007825032070
           H          1.153015652888    -2.609604365321     0.755119337424     1.007825032070
           C          3.730996441361    -0.273790880132     0.496255011773    12.000000000000
           H          3.535647708603    -2.395438624334     0.719600821035     1.007825032070
           H          2.941759552611    -1.494560911092     2.083320481308     1.007825032070
           H          3.768814752941    -0.252429469487    -0.589424894622     1.007825032070
           H          3.269278095878     0.649920894163     0.828995303253     1.007825032070
           H          4.753261911230    -0.275665989255     0.861804486122     1.007825032070

  Nuclear repulsion =  445.640539268563884

  ==> Basis Set <==

  Basis Set: 6-31G*
    Number of shells: 86
    Number of basis function: 167
    Number of Cartesian functions: 167
    Spherical Harmonics?: false
    Max angular momentum: 2

  ==> DFJKGrad: Density-Fitted SCF Gradients <==

    Gradient:                    1
    J tasked:                  Yes
    K tasked:                  Yes
    wK tasked:                  No
    OpenMP threads:              4
    Integrals threads:           4
    Memory (MB):              1430
    Schwarz Cutoff:          0E+00
    Fitting Condition:       1E-12

   => Auxiliary Basis Set <=

  Basis Set: 
    Number of shells: 360
    Number of basis function: 1129
    Number of Cartesian functions: 1129
    Spherical Harmonics?: false
    Max angular momentum: 3


  -Total Gradient:
     Atom            X                  Y                   Z
    ------   -----------------  -----------------  -----------------
       1       -0.001082226562     0.002747758392    -0.000007868576
       2        0.002648798022    -0.007733576720     0.000108675647
       3       -0.002710463596     0.002127060512    -0.001228042213
       4       -0.001122141927     0.002803262406     0.000120552712
       5        0.000999950184     0.001277756996     0.001427841301
       6       -0.000095103202    -0.000295909430     0.000137143051
       7        0.000527045641     0.000212695707     0.000581743174
       8       -0.001729306638    -0.002349580151     0.000332604489
       9       -0.000756595355     0.000872258997     0.000044843554
      10        0.000170465493     0.000672545389    -0.000317705123
      11        0.000186515615    -0.000544650397    -0.001159367036
      12        0.002637119663     0.000519217984     0.000177763745
      13        0.000101480882    -0.000300244294    -0.000265932545
      14        0.000377090744     0.000322102492     0.000113824015
      15        0.000231347662    -0.000104141845     0.000080346337
      16       -0.000337236785    -0.000274245626    -0.000245524076
      17        0.000052405878    -0.000102033051    -0.000095789940
      18        0.000009158432     0.000038475700     0.000063304968
      19       -0.000120325434     0.000089444473     0.000071167635
      20       -0.000016787134     0.000048827331    -0.000018733561
      21        0.000022062537    -0.000038767295     0.000038578314
      22       -0.000005801076    -0.000014045551     0.000034256769
      23       -0.000000657751     0.000016303556     0.000040329883
      24        0.000013715473     0.000010538728    -0.000043605485
      25       -0.000000510766    -0.000001054311     0.000009592967


*** tstop() called on cx1-1-2-2.cx1.hpc.ic.ac.uk at Fri Sep  2 15:59:52 2016
Module time:
	user time   =      36.78 seconds =       0.61 minutes
	system time =       0.29 seconds =       0.00 minutes
	total time  =         10 seconds =       0.17 minutes
Total time:
	user time   =     135.00 seconds =       2.25 minutes
	system time =       1.31 seconds =       0.02 minutes
	total time  =         41 seconds =       0.68 minutes
CURRENT ENERGY: -387.1195278131

			-----------------------------------------
			 OPTKING 2.0: for geometry optimizations 
			  - R.A. King,  Bethel University        
			-----------------------------------------

	Previous internal coordinate definitions found.
	---Fragment 1 Geometry and Gradient---
	 H          -6.6088362074        1.7111130070       -2.5707790699
	 C          -4.6677408308        2.4314992429       -2.6771870420
	 C          -3.4285159797        2.9312000768       -0.1612495756
	 O          -3.7406924044        2.8817658157       -4.6723583458
	 C          -3.4741749500        0.6053197417        1.5785369887
	 H          -1.5247286093        3.6015666693       -0.5005283064
	 H          -4.4775134859        4.4613314520        0.7306308346
	 C          -1.6169450116       -1.5002836675        0.8113496460
	 H          -3.0910155827        1.2080211840        3.5024332142
	 H          -5.3895932902       -0.1404243316        1.5969347996
	 C           1.0967438639       -1.0403495483        1.7098001353
	 H          -1.5917204547       -1.7100845273       -1.2341434567
	 H          -2.2734743033       -3.2918663109        1.5713945039
	 C           2.9277837834       -3.1063612771        0.8460276347
	 H           1.7458110226        0.7876658254        1.0384755685
	 H           1.1082633299       -0.9426599355        3.7650325504
	 C           5.6207983984       -2.8462282366        1.8814402288
	 H           2.9932333320       -3.1404841823       -1.2097924351
	 H           2.1788838109       -4.9314375656        1.4269687454
	 C           7.0505614769       -0.5173897811        0.9377860643
	 H           6.6814058716       -4.5267229681        1.3598484768
	 H           5.5591199032       -2.8243108109        3.9369051567
	 H           7.1220277286       -0.4770225652       -1.1138516267
	 H           6.1780402535        1.2281724980        1.5665740886
	 H           8.9823632501       -0.5209332238        1.6285744589
	            -0.0010822266        0.0027477584       -0.0000078686
	             0.0026487980       -0.0077335767        0.0001086756
	            -0.0027104636        0.0021270605       -0.0012280422
	            -0.0011221419        0.0028032624        0.0001205527
	             0.0009999502        0.0012777570        0.0014278413
	            -0.0000951032       -0.0002959094        0.0001371431
	             0.0005270456        0.0002126957        0.0005817432
	            -0.0017293066       -0.0023495802        0.0003326045
	            -0.0007565954        0.0008722590        0.0000448436
	             0.0001704655        0.0006725454       -0.0003177051
	             0.0001865156       -0.0005446504       -0.0011593670
	             0.0026371197        0.0005192180        0.0001777637
	             0.0001014809       -0.0003002443       -0.0002659325
	             0.0003770907        0.0003221025        0.0001138240
	             0.0002313477       -0.0001041418        0.0000803463
	            -0.0003372368       -0.0002742456       -0.0002455241
	             0.0000524059       -0.0001020331       -0.0000957899
	             0.0000091584        0.0000384757        0.0000633050
	            -0.0001203254        0.0000894445        0.0000711676
	            -0.0000167871        0.0000488273       -0.0000187336
	             0.0000220625       -0.0000387673        0.0000385783
	            -0.0000058011       -0.0000140456        0.0000342568
	            -0.0000006578        0.0000163036        0.0000403299
	             0.0000137155        0.0000105387       -0.0000436055
	            -0.0000005108       -0.0000010543        0.0000095930

	---Fragment 1 Intrafragment Coordinates---
	 - Coordinate -           - BOHR/RAD -       - ANG/DEG -
	 R(1,2)           =         2.073193	       1.097087
	 R(2,3)           =         2.848740	       1.507488
	 R(2,4)           =         2.245633	       1.188338
	 R(3,5)           =         2.904937	       1.537227
	 R(3,6)           =         2.046682	       1.083058
	 R(3,7)           =         2.058433	       1.089276
	 R(5,8)           =         2.910575	       1.540210
	 R(5,9)           =         2.052179	       1.085966
	 R(5,10)          =         2.055553	       1.087752
	 R(8,11)          =         2.895317	       1.532136
	 R(8,12)          =         2.056379	       1.088189
	 R(8,13)          =         2.053891	       1.086872
	 R(11,14)         =         2.892614	       1.530705
	 R(11,15)         =         2.052707	       1.086246
	 R(11,16)         =         2.057585	       1.088827
	 R(14,17)         =         2.896908	       1.532978
	 R(14,18)         =         2.057145	       1.088594
	 R(14,19)         =         2.056513	       1.088260
	 R(17,20)         =         2.891054	       1.529880
	 R(17,21)         =         2.054509	       1.087200
	 R(17,22)         =         2.056507	       1.088257
	 R(20,23)         =         2.053279	       1.086548
	 R(20,24)         =         2.050282	       1.084962
	 R(20,25)         =         2.051599	       1.085660
	 B(1,2,3)         =         2.007453	     115.018591
	 B(1,2,4)         =         2.096465	     120.118614
	 B(2,3,5)         =         1.962385	     112.436353
	 B(2,3,6)         =         1.891976	     108.402262
	 B(2,3,7)         =         1.866455	     106.940021
	 B(3,2,4)         =         2.177205	     124.744646
	 B(3,5,8)         =         1.994713	     114.288631
	 B(3,5,9)         =         1.900104	     108.867954
	 B(3,5,10)        =         1.886498	     108.088369
	 B(5,3,6)         =         1.956433	     112.095370
	 B(5,3,7)         =         1.904630	     109.127238
	 B(5,8,11)        =         1.983791	     113.662857
	 B(5,8,12)        =         1.921784	     110.110135
	 B(5,8,13)        =         1.906604	     109.240339
	 B(6,3,7)         =         1.877985	     107.600618
	 B(8,5,9)         =         1.918176	     109.903371
	 B(8,5,10)        =         1.911868	     109.541983
	 B(8,11,14)       =         1.968360	     112.778707
	 B(8,11,15)       =         1.913830	     109.654380
	 B(8,11,16)       =         1.899426	     108.829085
	 B(9,5,10)        =         1.846410	     105.791519
	 B(11,8,12)       =         1.889545	     108.262981
	 B(11,8,13)       =         1.900048	     108.864719
	 B(11,14,17)      =         2.001583	     114.682273
	 B(11,14,18)      =         1.907532	     109.293529
	 B(11,14,19)      =         1.895458	     108.601722
	 B(12,8,13)       =         1.857736	     106.440454
	 B(14,11,15)      =         1.915842	     109.769662
	 B(14,11,16)      =         1.905658	     109.186141
	 B(14,17,20)      =         1.999190	     114.545150
	 B(14,17,21)      =         1.892001	     108.403656
	 B(14,17,22)      =         1.907433	     109.287888
	 B(15,11,16)      =         1.857319	     106.416550
	 B(17,14,18)      =         1.906150	     109.214330
	 B(17,14,19)      =         1.893628	     108.496911
	 B(17,20,23)      =         1.938200	     111.050694
	 B(17,20,24)      =         1.955461	     112.039664
	 B(17,20,25)      =         1.933042	     110.755170
	 B(18,14,19)      =         1.853728	     106.210777
	 B(20,17,21)      =         1.897286	     108.706486
	 B(20,17,22)      =         1.909736	     109.419787
	 B(21,17,22)      =         1.852454	     106.137783
	 B(23,20,24)      =         1.880223	     107.728848
	 B(23,20,25)      =         1.879369	     107.679885
	 B(24,20,25)      =         1.874357	     107.392745
	 D(1,2,3,5)       =         0.953122	      54.609865
	 D(1,2,3,6)       =         3.125882	     179.099822
	 D(1,2,3,7)       =        -1.137062	     -65.148838
	 D(2,3,5,8)       =         1.283037	      73.512632
	 D(2,3,5,9)       =        -2.848269	    -163.193809
	 D(2,3,5,10)      =        -0.850444	     -48.726870
	 D(3,5,8,11)      =         1.425150	      81.655070
	*D(3,5,8,12)      =        -0.698132	     -39.999997
	 D(3,5,8,13)      =        -2.732359	    -156.552622
	 D(4,2,3,5)       =        -2.257681	    -129.355570
	 D(4,2,3,6)       =        -0.084921	      -4.865613
	 D(4,2,3,7)       =         1.935321	     110.885728
	 D(5,8,11,14)     =        -3.105512	    -177.932732
	 D(5,8,11,15)     =        -0.964843	     -55.281457
	 D(5,8,11,16)     =         1.060281	      60.749598
	 D(6,3,5,8)       =        -0.853733	     -48.915305
	 D(6,3,5,9)       =         1.298145	      74.378255
	 D(6,3,5,10)      =        -2.987215	    -171.154807
	 D(7,3,5,8)       =        -2.932277	    -168.007117
	 D(7,3,5,9)       =        -0.780399	     -44.713557
	 D(7,3,5,10)      =         1.217426	      69.753381
	 D(8,11,14,17)    =        -3.057343	    -175.172841
	 D(8,11,14,18)    =         1.079101	      61.827927
	 D(8,11,14,19)    =        -0.936088	     -53.633917
	 D(9,5,8,11)      =        -0.716942	     -41.077731
	 D(9,5,8,12)      =        -2.840223	    -162.732798
	 D(9,5,8,13)      =         1.408735	      80.714577
	 D(10,5,8,11)     =        -2.738474	    -156.902997
	 D(10,5,8,12)     =         1.421430	      81.441936
	 D(10,5,8,13)     =        -0.612797	     -35.110689
	 D(11,14,17,20)   =        -1.149119	     -65.839662
	 D(11,14,17,21)   =         3.012275	     172.590667
	 D(11,14,17,22)   =         1.000539	      57.326667
	 D(12,8,11,14)    =        -0.964392	     -55.255575
	 D(12,8,11,15)    =         1.176277	      67.395699
	 D(12,8,11,16)    =        -3.081785	    -176.573245
	 D(13,8,11,14)    =         1.048359	      60.066525
	 D(13,8,11,15)    =        -3.094158	    -177.282201
	 D(13,8,11,16)    =        -1.069034	     -61.251145
	 D(14,17,20,23)   =        -0.980917	     -56.202392
	 D(14,17,20,24)   =         1.122535	      64.316544
	 D(14,17,20,25)   =        -3.068234	    -175.796831
	 D(15,11,14,17)   =         1.086300	      62.240423
	 D(15,11,14,18)   =        -1.060441	     -60.758810
	 D(15,11,14,19)   =        -3.075631	    -176.220653
	 D(16,11,14,17)   =        -0.943492	     -54.058134
	 D(16,11,14,18)   =        -3.090234	    -177.057367
	 D(16,11,14,19)   =         1.177762	      67.480790
	 D(18,14,17,20)   =         0.998366	      57.202135
	 D(18,14,17,21)   =        -1.123425	     -64.367535
	 D(18,14,17,22)   =        -3.135162	    -179.631535
	 D(19,14,17,20)   =         3.011813	     172.564174
	 D(19,14,17,21)   =         0.890022	      50.994504
	 D(19,14,17,22)   =        -1.121714	     -64.269496
	 D(21,17,20,23)   =         1.137978	      65.201315
	 D(21,17,20,24)   =        -3.041755	    -174.279748
	 D(21,17,20,25)   =        -0.949339	     -54.393124
	 D(22,17,20,23)   =        -3.129336	    -179.297737
	 D(22,17,20,24)   =        -1.025884	     -58.778800
	 D(22,17,20,25)   =         1.066533	      61.107824

	Current energy   :      -387.1195278131

	Energy change for the previous step:
		Projected    :        -0.0035224627
		Actual       :         0.0000826300

	Performing BFGS update.
	Previous computed or guess Hessian on step 1.
	Steps to be used in Hessian update: 1
	Taking RFO optimization step.
	Going to follow RFO solution 1.
	Using RFO vector 1.
	Norm of target step-size    0.36102
	Projected energy change by RFO approximation:         0.0004891661

	Back-transformation to cartesian coordinates...
	Successfully converged to displaced geometry.

	Back-transformation to cartesian coordinates to adjust frozen coordinates...
	Successfully converged to displaced geometry.

	--- Internal Coordinate Step in ANG or DEG, aJ/ANG or AJ/DEG ---
	 ---------------------------------------------------------------------------
	   Coordinate                Previous        Force       Change         New 
	   ----------                --------       ------       ------       ------
	    1 R(1,2)          =      1.097087    -0.000479    -0.000056     1.097030
	    2 R(2,3)          =      1.507488     0.000049    -0.000035     1.507453
	    3 R(2,4)          =      1.188338     0.000068     0.000224     1.188562
	    4 R(3,5)          =      1.537227    -0.000267     0.002912     1.540139
	    5 R(3,6)          =      1.083058     0.001715    -0.000890     1.082168
	    6 R(3,7)          =      1.089276    -0.001166    -0.000184     1.089093
	    7 R(5,8)          =      1.540210    -0.025346     0.009854     1.550064
	    8 R(5,9)          =      1.085966    -0.001293    -0.000089     1.085877
	    9 R(5,10)         =      1.087752     0.003342    -0.001263     1.086489
	   10 R(8,11)         =      1.532136     0.000392     0.002912     1.535048
	   11 R(8,12)         =      1.088189     0.001627     0.000331     1.088520
	   12 R(8,13)         =      1.086872    -0.001080    -0.002077     1.084795
	   13 R(11,14)        =      1.530705     0.000977    -0.000284     1.530422
	   14 R(11,15)        =      1.086246     0.000378    -0.001068     1.085178
	   15 R(11,16)        =      1.088827     0.002143    -0.000323     1.088504
	   16 R(14,17)        =      1.532978    -0.000330    -0.000057     1.532921
	   17 R(14,18)        =      1.088594     0.000524    -0.000354     1.088240
	   18 R(14,19)        =      1.088260     0.000127     0.000375     1.088636
	   19 R(17,20)        =      1.529880    -0.000511     0.000343     1.530223
	   20 R(17,21)        =      1.087200    -0.000274     0.000009     1.087209
	   21 R(17,22)        =      1.088257    -0.000282     0.000208     1.088464
	   22 R(20,23)        =      1.086548     0.000330    -0.000387     1.086161
	   23 R(20,24)        =      1.084962     0.000084     0.000111     1.085073
	   24 R(20,25)        =      1.085660    -0.000023    -0.000209     1.085451
	   25 B(1,2,3)        =    115.018591     0.000002    -0.203933   114.814658
[...]
	 D(19,14,17,21)   =         0.892956	      51.162636
	 D(19,14,17,22)   =        -1.118964	     -64.111890
	 D(21,17,20,23)   =         1.140385	      65.339237
	 D(21,17,20,24)   =        -3.039344	    -174.141568
	 D(21,17,20,25)   =        -0.947057	     -54.262375
	 D(22,17,20,23)   =        -3.126898	    -179.158086
	 D(22,17,20,24)   =        -1.023442	     -58.638890
	 D(22,17,20,25)   =         1.068845	      61.240303

	Current energy   :      -387.1198683944

	Energy change for the previous step:
		Projected    :         0.0000010248
		Actual       :        -0.0000003775

	Performing BFGS update.
	Previous computed or guess Hessian on step 1.
	Steps to be used in Hessian update: 8 7
	Taking RFO optimization step.
	Going to follow RFO solution 1.
	Using RFO vector 1.
	Norm of target step-size    0.02411
	Projected energy change by RFO approximation:        -0.0000018351

	Back-transformation to cartesian coordinates...
	Successfully converged to displaced geometry.

	Back-transformation to cartesian coordinates to adjust frozen coordinates...
	Successfully converged to displaced geometry.

	--- Internal Coordinate Step in ANG or DEG, aJ/ANG or AJ/DEG ---
	 ---------------------------------------------------------------------------
	   Coordinate                Previous        Force       Change         New 
	   ----------                --------       ------       ------       ------
	    1 R(1,2)          =      1.097004    -0.000005    -0.000004     1.097000
	    2 R(2,3)          =      1.507419    -0.000083    -0.000196     1.507222
	    3 R(2,4)          =      1.188391     0.000070     0.000008     1.188399
	    4 R(3,5)          =      1.536975     0.000321     0.000190     1.537165
	    5 R(3,6)          =      1.083261    -0.000014    -0.000008     1.083253
	    6 R(3,7)          =      1.089161    -0.000069    -0.000041     1.089120
	    7 R(5,8)          =      1.536793     0.000160    -0.000108     1.536686
	    8 R(5,9)          =      1.085771    -0.000034    -0.000013     1.085759
	    9 R(5,10)         =      1.088216     0.000011     0.000026     1.088242
	   10 R(8,11)         =      1.532364    -0.000127     0.000043     1.532407
	   11 R(8,12)         =      1.087986    -0.000074    -0.000015     1.087971
	   12 R(8,13)         =      1.086634     0.000011    -0.000015     1.086619
	   13 R(11,14)        =      1.530967     0.000060     0.000037     1.531004
	   14 R(11,15)        =      1.086245    -0.000017    -0.000008     1.086237
	   15 R(11,16)        =      1.089102     0.000061     0.000008     1.089110
	   16 R(14,17)        =      1.532989    -0.000095    -0.000014     1.532974
	   17 R(14,18)        =      1.088631     0.000015    -0.000004     1.088627
	   18 R(14,19)        =      1.088263    -0.000016     0.000003     1.088266
	   19 R(17,20)        =      1.529799     0.000012    -0.000019     1.529780
	   20 R(17,21)        =      1.087186     0.000007     0.000005     1.087191
	   21 R(17,22)        =      1.088230    -0.000003     0.000000     1.088230
	   22 R(20,23)        =      1.086581     0.000026     0.000003     1.086584
	   23 R(20,24)        =      1.084972    -0.000004     0.000002     1.084975
	   24 R(20,25)        =      1.085670     0.000001     0.000002     1.085672
	   25 B(1,2,3)        =    115.041800    -0.000000    -0.011654   115.030146
	   26 B(1,2,4)        =    120.153936    -0.000001     0.014418   120.168354
	   27 B(2,3,5)        =    112.122163    -0.000003    -0.033038   112.089124
	   28 B(2,3,6)        =    108.325743     0.000002     0.004834   108.330577
	   29 B(2,3,7)        =    107.189802     0.000002     0.028166   107.217969
	   30 B(3,2,4)        =    124.804166     0.000001    -0.002709   124.801458
	   31 B(3,5,8)        =    114.155692     0.000001     0.004837   114.160528
	   32 B(3,5,9)        =    108.991764    -0.000001    -0.017571   108.974193
	   33 B(3,5,10)       =    108.307251    -0.000000     0.010366   108.317618
	   34 B(5,3,6)        =    112.171897    -0.000000    -0.011123   112.160774
	   35 B(5,3,7)        =    109.075331     0.000000    -0.013552   109.061779
	   36 B(5,8,11)       =    113.494320     0.000001     0.004458   113.498778
	   37 B(5,8,12)       =    109.806880    -0.000000    -0.005184   109.801696
	   38 B(5,8,13)       =    109.173219     0.000000    -0.018776   109.154443
	   39 B(6,3,7)        =    107.744519     0.000000     0.029051   107.773570
	   40 B(8,5,9)        =    109.691990     0.000000    -0.004830   109.687160
	   41 B(8,5,10)       =    109.434186     0.000000     0.004881   109.439067
	   42 B(8,11,14)      =    112.603550    -0.000000     0.004137   112.607687
	   43 B(8,11,15)      =    109.499036     0.000000    -0.009715   109.489321
	   44 B(8,11,16)      =    109.065891    -0.000000     0.010817   109.076708
	   45 B(9,5,10)       =    105.928282     0.000000     0.002302   105.930584
	   46 B(11,8,12)      =    108.501346    -0.000001     0.018487   108.519833
	   47 B(11,8,13)      =    108.926487    -0.000000    -0.000481   108.926006
	   48 B(11,14,17)     =    114.673371    -0.000000     0.001001   114.674372
	   49 B(11,14,18)     =    109.266982     0.000000     0.000844   109.267826
	   50 B(11,14,19)     =    108.671464     0.000000     0.003582   108.675046
	   51 B(12,8,13)      =    106.712454     0.000000     0.001554   106.714008
	   52 B(14,11,15)     =    109.807262    -0.000001    -0.001980   109.805282
	   53 B(14,11,16)     =    109.258414     0.000001    -0.001250   109.257165
	   54 B(14,17,20)     =    114.552326     0.000001    -0.001246   114.551080
	   55 B(14,17,21)     =    108.391569    -0.000001     0.001001   108.392570
	   56 B(14,17,22)     =    109.300033    -0.000000    -0.000210   109.299822
	   57 B(15,11,16)     =    106.412815     0.000000    -0.002251   106.410564
	   58 B(17,14,18)     =    109.211567    -0.000000    -0.002388   109.209179
	   59 B(17,14,19)     =    108.477844    -0.000000    -0.002759   108.475086
	   60 B(17,20,23)     =    111.050121     0.000000     0.000235   111.050356
	   61 B(17,20,24)     =    112.025782    -0.000000    -0.001805   112.023978
	   62 B(17,20,25)     =    110.757046     0.000000    -0.000622   110.756423
	   63 B(18,14,19)     =    106.198424    -0.000000    -0.000372   106.198052
	   64 B(20,17,21)     =    108.691760     0.000000    -0.000498   108.691262
	   65 B(20,17,22)     =    109.418280    -0.000000    -0.000218   109.418062
	   66 B(21,17,22)     =    106.146745     0.000000     0.001388   106.148133
	   67 B(23,20,24)     =    107.736806     0.000000     0.000104   107.736910
	   68 B(23,20,25)     =    107.684913    -0.000000     0.000773   107.685686
	   69 B(24,20,25)     =    107.393202     0.000000     0.001465   107.394667
	   70 D(1,2,3,5)      =     54.727494     0.000000     0.438168    55.165662
	   71 D(1,2,3,6)      =    179.045324    -0.000000     0.405056   179.450380
	   72 D(1,2,3,7)      =    -64.944439     0.000000     0.456104   -64.488335
	   73 D(2,3,5,8)      =     68.469924    -0.000000     0.108613    68.578537
	   74 D(2,3,5,9)      =   -168.511172    -0.000000     0.092396  -168.418776
	   75 D(2,3,5,10)     =    -53.703330    -0.000000     0.091426   -53.611904
	   76 D(3,5,8,11)     =     81.622965    -0.000000     0.023145    81.646109
	   77 *D(3,5,8,12)    =    -39.999997    -0.000000     0.000000   -39.999997
	   78 D(3,5,8,13)     =   -156.668809    -0.000000     0.011922  -156.656887
	   79 D(4,2,3,5)      =   -125.386716     0.000000     0.476576  -124.910140
	   80 D(4,2,3,6)      =     -1.068887    -0.000000     0.443464    -0.625422
	   81 D(4,2,3,7)      =    114.941350     0.000000     0.494513   115.435863
	   82 D(5,8,11,14)    =   -178.691054     0.000000     0.130561  -178.560494
	   83 D(5,8,11,15)    =    -56.224497     0.000000     0.123873   -56.100624
	   84 D(5,8,11,16)    =     59.849196     0.000000     0.121846    59.971042
	   85 D(6,3,5,8)      =    -53.682028     0.000000     0.134806   -53.547222
	   86 D(6,3,5,9)      =     69.336877     0.000000     0.118589    69.455465
	   87 D(6,3,5,10)     =   -175.855282     0.000000     0.117619  -175.737663
	   88 D(7,3,5,8)      =   -172.966784     0.000000     0.114472  -172.852312
	   89 D(7,3,5,9)      =    -49.947880     0.000000     0.098254   -49.849625
	   90 D(7,3,5,10)     =     64.859962    -0.000000     0.097285    64.957247
	   91 D(8,11,14,17)   =   -175.384786    -0.000000    -0.142805  -175.527591
	   92 D(8,11,14,18)   =     61.646543    -0.000000    -0.141040    61.505503
	   93 D(8,11,14,19)   =    -53.824496    -0.000000    -0.143018   -53.967514
	   94 D(9,5,8,11)     =    -41.014960    -0.000000     0.046345   -40.968615
	   95 D(9,5,8,12)     =   -162.637921     0.000000     0.023200  -162.614721
	   96 D(9,5,8,13)     =     80.693267    -0.000000     0.035121    80.728389
	   97 D(10,5,8,11)    =   -156.823516    -0.000000     0.043532  -156.779984
	   98 D(10,5,8,12)    =     81.553523     0.000000     0.020387    81.573909
	   99 D(10,5,8,13)    =    -35.115289    -0.000000     0.032308   -35.082981
	  100 D(11,14,17,20)  =    -65.624795    -0.000000    -0.146398   -65.771193
	  101 D(11,14,17,21)  =    172.828633    -0.000000    -0.145661   172.682972
	  102 D(11,14,17,22)  =     57.554107    -0.000000    -0.147740    57.406367
	  103 D(12,8,11,14)   =    -56.341985     0.000000     0.140350   -56.201634
	  104 D(12,8,11,15)   =     66.124573     0.000000     0.133663    66.258235
	  105 D(12,8,11,16)   =   -177.801735     0.000000     0.131636  -177.670099
	  106 D(13,8,11,14)   =     59.463187     0.000000     0.151970    59.615157
	  107 D(13,8,11,15)   =   -178.070256    -0.000000     0.145282  -177.924974
	  108 D(13,8,11,16)   =    -61.996563    -0.000000     0.143255   -61.853308
	  109 D(14,17,20,23)  =    -56.042801     0.000000     0.059445   -55.983356
	  110 D(14,17,20,24)  =     64.476394     0.000000     0.058505    64.534899
	  111 D(14,17,20,25)  =   -175.644413     0.000000     0.058731  -175.585682
	  112 D(15,11,14,17)  =     62.322246    -0.000000    -0.131758    62.190488
	  113 D(15,11,14,18)  =    -60.646425    -0.000000    -0.129993   -60.776418
	  114 D(15,11,14,19)  =   -176.117464    -0.000000    -0.131970  -176.249435
	  115 D(16,11,14,17)  =    -54.034617    -0.000000    -0.127201   -54.161818
	  116 D(16,11,14,18)  =   -177.003287    -0.000000    -0.125436  -177.128724
	  117 D(16,11,14,19)  =     67.525673    -0.000000    -0.127414    67.398260
	  118 D(18,14,17,20)  =     57.373675    -0.000000    -0.146424    57.227251
	  119 D(18,14,17,21)  =    -64.172897    -0.000000    -0.145688   -64.318584
	  120 D(18,14,17,22)  =   -179.447422    -0.000000    -0.147767  -179.595189
	  121 D(19,14,17,20)  =    172.709207    -0.000000    -0.149643   172.559565
	  122 D(19,14,17,21)  =     51.162636    -0.000000    -0.148906    51.013729
	  123 D(19,14,17,22)  =    -64.111890    -0.000000    -0.150985   -64.262875
	  124 D(21,17,20,23)  =     65.339237    -0.000000     0.059526    65.398762
	  125 D(21,17,20,24)  =   -174.141568    -0.000000     0.058585  -174.082982
	  126 D(21,17,20,25)  =    -54.262375    -0.000000     0.058811   -54.203564
	  127 D(22,17,20,23)  =   -179.158086     0.000000     0.060786  -179.097300
	  128 D(22,17,20,24)  =    -58.638890     0.000000     0.059845   -58.579045
	  129 D(22,17,20,25)  =     61.240303     0.000000     0.060071    61.300374
	 ---------------------------------------------------------------------------

  ==> Convergence Check <==

  Measures of convergence in internal coordinates in au.
  Criteria marked as inactive (o), active & met (*), and active & unmet ( ).
  ---------------------------------------------------------------------------------------------
   Step     Total Energy     Delta E     MAX Force     RMS Force      MAX Disp      RMS Disp   
  ---------------------------------------------------------------------------------------------
    Convergence Criteria    1.00e-06 *    3.00e-04 *             o    1.20e-03 *             o
  ---------------------------------------------------------------------------------------------
      9    -387.11986839   -3.78e-07 *    4.48e-05 *    8.84e-06 o    8.63e-03      2.12e-03 o  ~
  ---------------------------------------------------------------------------------------------


  **** Optimization is complete! (in 9 steps) ****

  ==> Optimization Summary <==

  Measures of convergence in internal coordinates in au.
  --------------------------------------------------------------------------------------------------------------- ~
   Step         Total Energy             Delta E       MAX Force       RMS Force        MAX Disp        RMS Disp  ~
  --------------------------------------------------------------------------------------------------------------- ~
      1    -387.119610443100   -387.119610443100      0.00524161      0.00078008      0.14213081      0.03669248  ~
      2    -387.119527813058      0.000082630043      0.00307644      0.00057464      0.15187858      0.03167616  ~
      3    -387.117361219899      0.002166593159      0.01043741      0.00197373      0.10531392      0.02349533  ~
      4    -387.119804746675     -0.002443526776      0.00123143      0.00019250      0.03911724      0.01100571  ~
      5    -387.119861009791     -0.000056263116      0.00022716      0.00006048      0.03630055      0.01037872  ~
      6    -387.119855027429      0.000005982361      0.00091916      0.00011983      0.03706753      0.01158096  ~
      7    -387.119848808336      0.000006219093      0.00070525      0.00014375      0.02742475      0.00872645  ~
      8    -387.119868016847     -0.000019208511      0.00009906      0.00001667      0.00452927      0.00171185  ~
      9    -387.119868394358     -0.000000377512      0.00004478      0.00000884      0.00863088      0.00212309  ~
  --------------------------------------------------------------------------------------------------------------- ~

	Writing optimization data to binary file.
	Final energy is   -387.1198683943585
	Final (previous) structure:
	Cartesian Geometry (in Angstrom)
	    H    -3.4106679160   0.8371819058  -1.4340374163
	    C    -2.4028408137   1.2703608785  -1.4263652723
	    C    -1.8457765039   1.5659076553  -0.0571893519
	    O    -1.8332625592   1.4750704954  -2.4490810126
	    C    -1.8652544944   0.3290211968   0.8549647809
	    H    -0.8480664866   1.9708999148  -0.1755520698
	    H    -2.4692995268   2.3427973714   0.3831894009
	    C    -0.8881120918  -0.7793484053   0.4325391235
	    H    -1.6502353874   0.6376842744   1.8734897748
	    H    -2.8783012589  -0.0680934345   0.8708117277
	    C     0.5508148508  -0.5359018490   0.8998327514
	    H    -0.8873749870  -0.8768780789  -0.6510662372
	    H    -1.2322638307  -1.7296625546   0.8315829741
	    C     1.5124438451  -1.6352923297   0.4410625772
	    H     0.8925673452   0.4281776530   0.5342042413
	    H     0.5663936342  -0.4757802982   1.9871625551
	    C     2.9428224910  -1.4981838866   0.9751722485
	    H     1.5371693260  -1.6598474679  -0.6470108800
	    H     1.1169356561  -2.5984754985   0.7575541846
	    C     3.6967289560  -0.2686876904   0.4650267610
	    H     3.5000011058  -2.3890924266   0.6962340213
	    H     2.9206516072  -1.4833568344   2.0630750335
	    H     3.7220547746  -0.2492601900  -0.6210850701
	    H     3.2410755627   0.6566474436   0.8016276654
	    H     4.7231209133  -0.2725012850   0.8188415159
	Saving final (previous) structure.
			--------------------------
			 OPTKING Finished Execution 
			--------------------------

    Final optimized geometry and variables:
    Molecular point group: c1
    Full point group: C1

    Geometry (in Angstrom), charge = 0, multiplicity = 1:

    H           -3.410667655575     0.837181841907    -1.434037306752
    C           -2.402840630236     1.270360781463    -1.426365163332
    C           -1.845776362953     1.565907535739    -0.057189347496
    O           -1.833262419245     1.475070382754    -2.449080825557
    C           -1.865254351979     0.329021171709     0.854964715578
    H           -0.848066421886     1.970899764281    -0.175552056434
    H           -2.469299338284     2.342797192511     0.383189371614
    C           -0.888112023949    -0.779348345826     0.432539090457
    H           -1.650235261402     0.637684225743     1.873489631689
    H           -2.878301039132    -0.068093429278     0.870811661202
    C            0.550814808742    -0.535901808101     0.899832682695
    H           -0.887374919254    -0.876878011972    -0.651066187476
    H           -1.232263736592    -1.729662422501     0.831582910582
    C            1.512443729572    -1.635292204798     0.441062543528
    H            0.892567276995     0.428177620304     0.534204200495
    H            0.566393590919    -0.475780261891     1.987162403327
    C            2.942822266298    -1.498183772210     0.975172174015
    H            1.537169208632    -1.659847341102    -0.647010830621
    H            1.116935570848    -2.598475300099     0.757554126768
    C            3.696728673701    -0.268687669858     0.465026725444
    H            3.500000838568    -2.389092244129     0.696233968112
    H            2.920651384202    -1.483356721140     2.063074875935
    H            3.722054490368    -0.249260171015    -0.621085022635
    H            3.241075315176     0.656647393499     0.801627604185
    H            4.723120552632    -0.272501264235     0.818841453330

	Cleaning optimization helper files.


Properties will be evaluated at   0.000000,   0.000000,   0.000000 Bohr

Properties computed using the  density matrix

  Nuclear Dipole Moment: (a.u.)
     X:     8.2819      Y:    -4.6142      Z:     7.5714

  Electronic Dipole Moment: (a.u.)
     X:    -8.6183      Y:     4.3789      Z:    -6.4500

  Dipole Moment: (a.u.)
     X:    -0.3364      Y:    -0.2354      Z:     1.1214     Total:     1.1942

  Dipole Moment: (Debye)
     X:    -0.8550      Y:    -0.5982      Z:     2.8503     Total:     3.0353

  Quadrupole Moment: (Debye Ang)
    XX:   -54.0412     YY:   -59.2831     ZZ:   -67.9019
    XY:    -0.8045     XZ:    -3.7194     YZ:     4.6830

  Traceless Quadrupole Moment: (Debye Ang)
    XX:     6.3675     YY:     1.1256     ZZ:    -7.4931
    XY:    -0.8045     XZ:    -3.7194     YZ:     4.6830

  Mulliken Charges: (a.u.)
   Center  Symbol    Alpha    Beta     Spin     Total
       1     H     0.43217  0.43217  0.00000  0.13566
       2     C     2.83047  2.83047  0.00000  0.33905
       3     C     3.20860  3.20860  0.00000 -0.41721
       4     O     4.23819  4.23819  0.00000 -0.47638
       5     C     3.16930  3.16930  0.00000 -0.33860
       6     H     0.39900  0.39900  0.00000  0.20201
       7     H     0.40740  0.40740  0.00000  0.18521
       8     C     3.15843  3.15843  0.00000 -0.31686
       9     H     0.41210  0.41210  0.00000  0.17579
      10     H     0.41773  0.41773  0.00000  0.16454
      11     C     3.15487  3.15487  0.00000 -0.30975
      12     H     0.41568  0.41568  0.00000  0.16863
      13     H     0.41793  0.41793  0.00000  0.16413
      14     C     3.15335  3.15335  0.00000 -0.30669
      15     H     0.41854  0.41854  0.00000  0.16292
      16     H     0.42418  0.42418  0.00000  0.15163
      17     C     3.15257  3.15257  0.00000 -0.30514
      18     H     0.42100  0.42100  0.00000  0.15800
      19     H     0.42262  0.42262  0.00000  0.15475
      20     C     3.24146  3.24146  0.00000 -0.48293
      21     H     0.42041  0.42041  0.00000  0.15917
      22     H     0.42382  0.42382  0.00000  0.15235
      23     H     0.42040  0.42040  0.00000  0.15920
      24     H     0.42064  0.42064  0.00000  0.15871
      25     H     0.41910  0.41910  0.00000  0.16180

   Total alpha = 36.00000, Total beta = 36.00000, Total charge =  0.00000


*** PSI4 exiting successfully. Buy a developer a beer!
