    -----------------------------------------------------------------------
          Psi4: An Open-Source Ab Initio Electronic Structure Package
                              Psi4 (no tag) Driver

                          Git: Rev {detached?}  

    J. M. Turney, A. C. Simmonett, R. M. Parrish, E. G. Hohenstein,
    F. A. Evangelista, J. T. Fermann, B. J. Mintz, L. A. Burns, J. J. Wilke,
    M. L. Abrams, N. J. Russ, M. L. Leininger, C. L. Janssen, E. T. Seidl,
    W. D. Allen, H. F. Schaefer, R. A. King, E. F. Valeev, C. D. Sherrill,
    and T. D. Crawford, WIREs Comput. Mol. Sci. 2, 556-565 (2012)
    (doi: 10.1002/wcms.93)

                         Additional Contributions by
    A. E. DePrince, M. Saitow, U. Bozkaya, A. Yu. Sokolov
    -----------------------------------------------------------------------


    Psi4 started on: Fri Sep  9 20:59:20 2016

    Process ID:  31381
    PSI4DATADIR: /export131/home/mjharvey/miniconda3/share
    Memory level set to 256.000 MB

  ==> Input File <==

--------------------------------------------------------------------------
set {
	reference rhf
	basis cc-pvtz
}


set_num_threads( 4 )
memory 2 gb

molecule MOL {
0 1

H	 -2.817963	 0.279626	 -0.697834
O	 -2.313989	 -0.142475	 -0.025864
C	 -0.943808	 -0.065018	 -0.330000
H	 -0.812293	 -0.225641	 -1.398673
C	 -0.231030	 -1.182113	 0.407592
C	 -0.353797	 1.300461	 0.050970
H	 -0.312800	 -0.992012	 1.473041
H	 -0.738841	 -2.119564	 0.220514
C	 1.246176	 -1.268044	 -0.015480
H	 -0.539537	 2.008579	 -0.751815
H	 -0.889989	 1.662858	 0.920677
C	 1.153605	 1.231851	 0.356834
H	 1.823096	 -1.684665	 0.802361
H	 1.352335	 -1.958223	 -0.845114
C	 1.826409	 0.100723	 -0.416008
H	 1.622968	 2.181508	 0.128734
H	 1.301983	 1.066493	 1.419367
H	 2.897299	 0.112407	 -0.249665
H	 1.683458	 0.265621	 -1.480024

	symmetry c1
}
set optking {
	frozen_dihedral = ("
		1 2 3 4
	")
}

ee = optimize('scf')
oeprop('DIPOLE', 'QUADRUPOLE', 'MULLIKEN_CHARGES')
f=open( 'psi4out.xyz', 'w' )
f.write( "19  " )
f.write( str(ee) + "\n" )
f.write( MOL.save_string_xyz() )
f.close()
--------------------------------------------------------------------------

  Memory set to   2.000 GiB by Python script.
gradient() will perform analytic gradient computation.

*** tstart() called on cx1-27-1-4
*** at Fri Sep  9 20:59:20 2016


         ---------------------------------------------------------
                                   SCF
            by Justin Turney, Rob Parrish, and Andy Simmonett
                              RHF Reference
                        4 Threads,   2000 MiB Core
         ---------------------------------------------------------

  ==> Geometry <==

    Molecular point group: c1
    Full point group: C1

    Geometry (in Angstrom), charge = 0, multiplicity = 1:

       Center              X                  Y                   Z               Mass       
    ------------   -----------------  -----------------  -----------------  -----------------
           H         -2.817604095647     0.282252637332    -0.695547883325     1.007825032070
           O         -2.313630095647    -0.139848362668    -0.023577883325    15.994914619560
           C         -0.943449095647    -0.062391362668    -0.327713883325    12.000000000000
           H         -0.811934095647    -0.223014362668    -1.396386883325     1.007825032070
           C         -0.230671095647    -1.179486362668     0.409878116675    12.000000000000
           C         -0.353438095647     1.303087637332     0.053256116675    12.000000000000
           H         -0.312441095647    -0.989385362668     1.475327116675     1.007825032070
           H         -0.738482095647    -2.116937362668     0.222800116675     1.007825032070
           C          1.246534904353    -1.265417362668    -0.013193883325    12.000000000000
           H         -0.539178095647     2.011205637332    -0.749528883325     1.007825032070
           H         -0.889630095647     1.665484637332     0.922963116675     1.007825032070
           C          1.153963904353     1.234477637332     0.359120116675    12.000000000000
           H          1.823454904353    -1.682038362668     0.804647116675     1.007825032070
           H          1.352693904353    -1.955596362668    -0.842827883325     1.007825032070
           C          1.826767904353     0.103349637332    -0.413721883325    12.000000000000
           H          1.623326904353     2.184134637332     0.131020116675     1.007825032070
           H          1.302341904353     1.069119637332     1.421653116675     1.007825032070
           H          2.897657904353     0.115033637332    -0.247378883325     1.007825032070
           H          1.683816904353     0.268247637332    -1.477737883325     1.007825032070

  Running in c1 symmetry.

  Rotational constants: A =      0.14166  B =      0.07552  C =      0.05532 [cm^-1]
  Rotational constants: A =   4246.77553  B =   2264.02465  C =   1658.55256 [MHz]
  Nuclear repulsion =  331.877247376575838

  Charge       = 0
  Multiplicity = 1
  Electrons    = 56
  Nalpha       = 28
  Nbeta        = 28

  ==> Algorithm <==

  SCF Algorithm Type is DF.
  DIIS enabled.
  MOM disabled.
  Fractional occupation disabled.
  Guess Type is CORE.
  Energy threshold   = 1.00e-08
  Density threshold  = 1.00e-08
  Integral threshold = 0.00e+00

  ==> Primary Basis <==

  Basis Set: CC-PVTZ
    Number of shells: 142
    Number of basis function: 378
    Number of Cartesian functions: 425
    Spherical Harmonics?: true
    Max angular momentum: 3

  ==> Pre-Iterations <==

   -------------------------------------------------------
    Irrep   Nso     Nmo     Nalpha   Nbeta   Ndocc  Nsocc
   -------------------------------------------------------
     A        378     378       0       0       0       0
   -------------------------------------------------------
    Total     378     378      28      28      28       0
   -------------------------------------------------------

 OEINTS: Overlap, kinetic, potential, dipole, and quadrupole integrals
         stored in file 35.

  ==> Integral Setup <==

  ==> DFJK: Density-Fitted J/K Matrices <==

    J tasked:                  Yes
    K tasked:                  Yes
    wK tasked:                  No
    OpenMP threads:              4
    Integrals threads:           4
    Memory (MB):              1430
    Algorithm:                Core
    Integral Cache:           NONE
    Schwarz Cutoff:          1E-12
    Fitting Condition:       1E-12

   => Auxiliary Basis Set <=

  Basis Set: 
    Number of shells: 295
    Number of basis function: 913
    Number of Cartesian functions: 1092
    Spherical Harmonics?: true
    Max angular momentum: 4

  Minimum eigenvalue in the overlap matrix is 1.3990215765E-04.
  Using Symmetric Orthogonalization.
  SCF Guess: Core (One-Electron) Hamiltonian.

  ==> Iterations <==

                           Total Energy        Delta E     RMS |[F,P]|

   @DF-RHF iter   1:  -227.64896816174212   -2.27649e+02   3.63724e-02 
   @DF-RHF iter   2:  -191.49290512021105    3.61561e+01   2.25129e-02 DIIS
   @DF-RHF iter   3:  -213.96315243073559   -2.24702e+01   2.84345e-02 DIIS
   @DF-RHF iter   4:  -289.65918104529680   -7.56960e+01   1.33506e-02 DIIS
   @DF-RHF iter   5:  -307.07270206393184   -1.74135e+01   5.61908e-03 DIIS
   @DF-RHF iter   6:  -309.06617911292176   -1.99348e+00   1.15919e-03 DIIS
   @DF-RHF iter   7:  -309.15819857558483   -9.20195e-02   1.91062e-04 DIIS
   @DF-RHF iter   8:  -309.16249969380635   -4.30112e-03   6.34375e-05 DIIS
   @DF-RHF iter   9:  -309.16292014923772   -4.20455e-04   2.59132e-05 DIIS
   @DF-RHF iter  10:  -309.16297536628042   -5.52170e-05   6.84787e-06 DIIS
   @DF-RHF iter  11:  -309.16298063325542   -5.26697e-06   2.47423e-06 DIIS
   @DF-RHF iter  12:  -309.16298129543895   -6.62184e-07   6.71595e-07 DIIS
   @DF-RHF iter  13:  -309.16298134862939   -5.31904e-08   1.61031e-07 DIIS
   @DF-RHF iter  14:  -309.16298135215936   -3.52998e-09   4.83481e-08 DIIS
   @DF-RHF iter  15:  -309.16298135251884   -3.59478e-10   1.39128e-08 DIIS
   @DF-RHF iter  16:  -309.16298135254465   -2.58069e-11   3.47438e-09 DIIS

  ==> Post-Iterations <==

    Orbital Energies (a.u.)
    -----------------------

    Doubly Occupied:                                                      

       1A    -20.543353     2A    -11.267580     3A    -11.213567  
       4A    -11.213119     5A    -11.212623     6A    -11.209167  
       7A    -11.206154     8A     -1.363445     9A     -1.109363  
      10A     -1.001910    11A     -0.989103    12A     -0.842571  
      13A     -0.835425    14A     -0.732150    15A     -0.707936  
      16A     -0.660037    17A     -0.628524    18A     -0.590654  
      19A     -0.573032    20A     -0.546693    21A     -0.535024  
      22A     -0.517785    23A     -0.498131    24A     -0.489127  
      25A     -0.462187    26A     -0.449655    27A     -0.429839  
      28A     -0.411325  

    Virtual:                                                              

      29A      0.135688    30A      0.145013    31A      0.163951  
      32A      0.171022    33A      0.192853    34A      0.203890  
      35A      0.217835    36A      0.219840    37A      0.231738  
      38A      0.239883    39A      0.258254    40A      0.266928  
      41A      0.303467    42A      0.339194    43A      0.354572  
      44A      0.372401    45A      0.381963    46A      0.393968  
      47A      0.401713    48A      0.406947    49A      0.433128  
      50A      0.442968    51A      0.452669    52A      0.471281  
      53A      0.494162    54A      0.511891    55A      0.548310  
      56A      0.561953    57A      0.566090    58A      0.572597  
      59A      0.585701    60A      0.596420    61A      0.601812  
      62A      0.614761    63A      0.623949    64A      0.631042  
      65A      0.641297    66A      0.649072    67A      0.656029  
      68A      0.658965    69A      0.675124    70A      0.683668  
      71A      0.691826    72A      0.702340    73A      0.718988  
      74A      0.725755    75A      0.746375    76A      0.749595  
      77A      0.750997    78A      0.761620    79A      0.838619  
      80A      0.854588    81A      0.864138    82A      0.892705  
      83A      0.897796    84A      0.947545    85A      0.972644  
      86A      0.986763    87A      0.996338    88A      1.003549  
      89A      1.015722    90A      1.032125    91A      1.074504  
      92A      1.091587    93A      1.101947    94A      1.128712  
      95A      1.144157    96A      1.156470    97A      1.177957  
      98A      1.199135    99A      1.220834   100A      1.232906  
     101A      1.251401   102A      1.258293   103A      1.260484  
     104A      1.280102   105A      1.283439   106A      1.294520  
     107A      1.302844   108A      1.317415   109A      1.324953  
     110A      1.340058   111A      1.353917   112A      1.368304  
     113A      1.386245   114A      1.401505   115A      1.416455  
     116A      1.424934   117A      1.436392   118A      1.450738  
     119A      1.463260   120A      1.471656   121A      1.485260  
     122A      1.499568   123A      1.504482   124A      1.519939  
     125A      1.534843   126A      1.563268   127A      1.567490  
     128A      1.589380   129A      1.594155   130A      1.610065  
     131A      1.619742   132A      1.632615   133A      1.645010  
     134A      1.651450   135A      1.686573   136A      1.705074  
     137A      1.710068   138A      1.721893   139A      1.744401  
     140A      1.746262   141A      1.758900   142A      1.809851  
     143A      1.835511   144A      1.845229   145A      1.883097  
     146A      1.902519   147A      1.917311   148A      1.940203  
     149A      1.977456   150A      2.001433   151A      2.012228  
     152A      2.036562   153A      2.122890   154A      2.246049  
     155A      2.276552   156A      2.333314   157A      2.417446  
     158A      2.452230   159A      2.581772   160A      2.600548  
     161A      2.636592   162A      2.669180   163A      2.691894  
     164A      2.711818   165A      2.726339   166A      2.741410  
     167A      2.774572   168A      2.807709   169A      2.830926  
     170A      2.836895   171A      2.850116   172A      2.877716  
     173A      2.891710   174A      2.911845   175A      2.926596  
     176A      2.935780   177A      2.945657   178A      2.957243  
     179A      2.974630   180A      2.982411   181A      2.996127  
     182A      3.010094   183A      3.023771   184A      3.066142  
     185A      3.075234   186A      3.096176   187A      3.108503  
     188A      3.125015   189A      3.139408   190A      3.186403  
     191A      3.195614   192A      3.223881   193A      3.249587  
     194A      3.257672   195A      3.264360   196A      3.284300  
     197A      3.294857   198A      3.309542   199A      3.326427  
     200A      3.355256   201A      3.360178   202A      3.370319  
     203A      3.380485   204A      3.398378   205A      3.407592  
     206A      3.417617   207A      3.441599   208A      3.447212  
     209A      3.459428   210A      3.472911   211A      3.485895  
     212A      3.493665   213A      3.507790   214A      3.512213  
     215A      3.518938   216A      3.523323   217A      3.533713  
     218A      3.546787   219A      3.555472   220A      3.579213  
     221A      3.596667   222A      3.612169   223A      3.621091  
     224A      3.627458   225A      3.648172   226A      3.690216  
     227A      3.707770   228A      3.711274   229A      3.723370  
     230A      3.764794   231A      3.777928   232A      3.779603  
     233A      3.811508   234A      3.846408   235A      3.854936  
     236A      3.870532   237A      3.873135   238A      3.914505  
     239A      3.919648   240A      3.942463   241A      3.951075  
     242A      3.972775   243A      3.982456   244A      4.001671  
     245A      4.009508   246A      4.020543   247A      4.022856  
     248A      4.061824   249A      4.071710   250A      4.073284  
     251A      4.090017   252A      4.095283   253A      4.106429  
     254A      4.119486   255A      4.138791   256A      4.158866  
     257A      4.178605   258A      4.184944   259A      4.195509  
     260A      4.204564   261A      4.241030   262A      4.253111  
     263A      4.265243   264A      4.272419   265A      4.291627  
     266A      4.319988   267A      4.324172   268A      4.332148  
     269A      4.347580   270A      4.358247   271A      4.369473  
     272A      4.382299   273A      4.391293   274A      4.406395  
     275A      4.418869   276A      4.441804   277A      4.465793  
     278A      4.486877   279A      4.492023   280A      4.506479  
     281A      4.507322   282A      4.531613   283A      4.553372  
     284A      4.558358   285A      4.575832   286A      4.582105  
     287A      4.599626   288A      4.610113   289A      4.623689  
     290A      4.642384   291A      4.647322   292A      4.666051  
     293A      4.674526   294A      4.678798   295A      4.695890  
     296A      4.732577   297A      4.740826   298A      4.765233  
     299A      4.777900   300A      4.798543   301A      4.813350  
     302A      4.859640   303A      4.897892   304A      4.936565  
     305A      4.946930   306A      4.959616   307A      4.981057  
     308A      5.003426   309A      5.033801   310A      5.083192  
     311A      5.101739   312A      5.138325   313A      5.178732  
     314A      5.181187   315A      5.189912   316A      5.229829  
     317A      5.252009   318A      5.265048   319A      5.276271  
     320A      5.286183   321A      5.340205   322A      5.357138  
     323A      5.367694   324A      5.381318   325A      5.410241  
     326A      5.419900   327A      5.431476   328A      5.449359  
     329A      5.480223   330A      5.493316   331A      5.500129  
     332A      5.523869   333A      5.569428   334A      5.578230  
     335A      5.654527   336A      5.658591   337A      5.670793  
     338A      5.698116   339A      5.716942   340A      5.742631  
     341A      5.749023   342A      5.764752   343A      5.818716  
     344A      5.836486   345A      5.873156   346A      5.898410  
     347A      5.940953   348A      5.955267   349A      5.977377  
     350A      6.020295   351A      6.054156   352A      6.078636  
     353A      6.108168   354A      6.159196   355A      6.218530  
     356A      6.297370   357A      6.354868   358A      6.389182  
     359A      6.415918   360A      6.457624   361A      6.516031  
     362A      6.546114   363A      6.751917   364A      7.112408  
     365A      7.178590   366A      7.261157   367A      7.300769  
     368A      7.457988   369A      7.558656   370A      7.798748  
     371A      8.060168   372A     12.123620   373A     12.581680  
     374A     12.923502   375A     13.278201   376A     13.664783  
     377A     13.806883   378A     14.204340  

    Final Occupation by Irrep:
              A 
    DOCC [    28 ]

  Energy converged.

  @DF-RHF Final Energy:  -309.16298135254465

   => Energetics <=

    Nuclear Repulsion Energy =            331.8772473765758377
    One-Electron Energy =               -1077.6014972763714468
    Two-Electron Energy =                 436.5612685472510748
    DFT Exchange-Correlation Energy =       0.0000000000000000
    Empirical Dispersion Energy =           0.0000000000000000
    PCM Polarization Energy =               0.0000000000000000
    EFP Energy =                            0.0000000000000000
    Total Energy =                       -309.1629813525445343

    Alert: EFP and PCM quantities not currently incorporated into SCF psivars.

Properties will be evaluated at   0.000000,   0.000000,   0.000000 Bohr
  ==> Properties <==


Properties computed using the SCF density matrix

  Nuclear Dipole Moment: (a.u.)
     X:     4.2769      Y:     0.5885      Z:    -0.4042

  Electronic Dipole Moment: (a.u.)
     X:    -4.0049      Y:    -0.3181      Z:    -0.0912

  Dipole Moment: (a.u.)
     X:     0.2720      Y:     0.2704      Z:    -0.4953     Total:     0.6264

  Dipole Moment: (Debye)
     X:     0.6913      Y:     0.6873      Z:    -1.2590     Total:     1.5923


  Saving occupied orbitals to File 180.

*** tstop() called on cx1-27-1-4 at Fri Sep  9 20:59:40 2016
Module time:
	user time   =      65.27 seconds =       1.09 minutes
	system time =       0.84 seconds =       0.01 minutes
	total time  =         20 seconds =       0.33 minutes
Total time:
	user time   =      65.27 seconds =       1.09 minutes
	system time =       0.84 seconds =       0.01 minutes
	total time  =         20 seconds =       0.33 minutes

*** tstart() called on cx1-27-1-4
*** at Fri Sep  9 20:59:40 2016


         ------------------------------------------------------------
                                   SCF GRAD                          
                          Rob Parrish, Justin Turney,                
                       Andy Simmonett, and Alex Sokolov              
         ------------------------------------------------------------

  ==> Geometry <==

    Molecular point group: c1
    Full point group: C1

    Geometry (in Angstrom), charge = 0, multiplicity = 1:

       Center              X                  Y                   Z               Mass       
    ------------   -----------------  -----------------  -----------------  -----------------
           H         -2.817604095647     0.282252637332    -0.695547883325     1.007825032070
           O         -2.313630095647    -0.139848362668    -0.023577883325    15.994914619560
           C         -0.943449095647    -0.062391362668    -0.327713883325    12.000000000000
           H         -0.811934095647    -0.223014362668    -1.396386883325     1.007825032070
           C         -0.230671095647    -1.179486362668     0.409878116675    12.000000000000
           C         -0.353438095647     1.303087637332     0.053256116675    12.000000000000
           H         -0.312441095647    -0.989385362668     1.475327116675     1.007825032070
           H         -0.738482095647    -2.116937362668     0.222800116675     1.007825032070
           C          1.246534904353    -1.265417362668    -0.013193883325    12.000000000000
           H         -0.539178095647     2.011205637332    -0.749528883325     1.007825032070
           H         -0.889630095647     1.665484637332     0.922963116675     1.007825032070
           C          1.153963904353     1.234477637332     0.359120116675    12.000000000000
           H          1.823454904353    -1.682038362668     0.804647116675     1.007825032070
           H          1.352693904353    -1.955596362668    -0.842827883325     1.007825032070
           C          1.826767904353     0.103349637332    -0.413721883325    12.000000000000
           H          1.623326904353     2.184134637332     0.131020116675     1.007825032070
           H          1.302341904353     1.069119637332     1.421653116675     1.007825032070
           H          2.897657904353     0.115033637332    -0.247378883325     1.007825032070
           H          1.683816904353     0.268247637332    -1.477737883325     1.007825032070

  Nuclear repulsion =  331.877247376575838

  ==> Basis Set <==

  Basis Set: CC-PVTZ
    Number of shells: 142
    Number of basis function: 378
    Number of Cartesian functions: 425
    Spherical Harmonics?: true
    Max angular momentum: 3

  ==> DFJKGrad: Density-Fitted SCF Gradients <==

    Gradient:                    1
    J tasked:                  Yes
    K tasked:                  Yes
    wK tasked:                  No
    OpenMP threads:              4
    Integrals threads:           4
    Memory (MB):              1430
    Schwarz Cutoff:          0E+00
    Fitting Condition:       1E-12

   => Auxiliary Basis Set <=

  Basis Set: 
    Number of shells: 295
    Number of basis function: 913
    Number of Cartesian functions: 1092
    Spherical Harmonics?: true
    Max angular momentum: 4


  -Total Gradient:
     Atom            X                  Y                   Z
    ------   -----------------  -----------------  -----------------
       1       -0.000156347878    -0.000820984783    -0.001747200922
       2        0.001863681483    -0.000568336845     0.001809524984
       3       -0.000685173706     0.001097876098     0.000204458254
       4       -0.000161077623     0.000303603157    -0.000385708667
       5       -0.001176034151     0.000086278244     0.000242044610
       6        0.000411746945    -0.000512882340    -0.000003422506
       7       -0.000015930138     0.000023005192    -0.000087973008
       8       -0.000015896040    -0.000147477596     0.000041387007
       9       -0.000209040890    -0.000077024727    -0.000534729120
      10        0.000128811181     0.000048819031    -0.000259720704
      11        0.000249019586     0.000234931781     0.000595587787
      12        0.000109480299     0.000289762973     0.000125616087
      13       -0.000125154049     0.000017964517     0.000040042234
      14        0.000072974667     0.000079225743     0.000046059569
      15       -0.000135021513    -0.000114658361    -0.000196366177
      16       -0.000023967723    -0.000020422361    -0.000006249829
      17       -0.000096845181     0.000030719076    -0.000030248004
      18       -0.000047513526     0.000068752036     0.000071662618
      19        0.000012288251    -0.000019150836     0.000075235788


*** tstop() called on cx1-27-1-4 at Fri Sep  9 21:00:11 2016
Module time:
	user time   =     119.83 seconds =       2.00 minutes
	system time =       0.72 seconds =       0.01 minutes
	total time  =         31 seconds =       0.52 minutes
Total time:
	user time   =     185.12 seconds =       3.09 minutes
	system time =       1.56 seconds =       0.03 minutes
	total time  =         51 seconds =       0.85 minutes
CURRENT ENERGY: -309.1629813525

			-----------------------------------------
			 OPTKING 2.0: for geometry optimizations 
			  - R.A. King,  Bethel University        
			-----------------------------------------

	Internal coordinates to be generated automatically.
	Detected frag with atoms:  1 2 3 4 5 6 7 8 9 10 11 12 13 14 15 16 17 18 19
	---Fragment 1 Bond Connectivity---
	 1 : 2
	 2 : 1 3
	 3 : 2 4 5 6
	 4 : 3
	 5 : 3 7 8 9
	 6 : 3 10 11 12
	 7 : 5
	 8 : 5
	 9 : 5 13 14 15
	 10 : 6
	 11 : 6
	 12 : 6 15 16 17
	 13 : 9
	 14 : 9
	 15 : 9 12 18 19
	 16 : 12
	 17 : 12
	 18 : 15
	 19 : 15

	Assuming in current code that numbering for constraints corresponds to unified fragment.
	Frozen dihedral atom list: 
	     1     2     3     4
	---Fragment 1 Geometry and Gradient---
	 H          -5.3245000917        0.5333801848       -1.3143950118
	 O          -4.3721272536       -0.2642751056       -0.0445557423
	 C          -1.7828604111       -0.1179025885       -0.6192894894
	 H          -1.5343330787       -0.4214360691       -2.6387887850
	 C          -0.4359051975       -2.2289062029        0.7745573884
	 C          -0.6679012057        2.4624787617        0.1006394754
	 H          -0.5904281034       -1.8696673753        2.7879642069
	 H          -1.3955289148       -4.0004318559        0.4210312029
	 C           2.3556095843       -2.3912922592       -0.0249328261
	 H          -1.0188989376        3.8006278515       -1.4164043182
	 H          -1.6811572403        3.1473098431        1.7441475213
	 C           2.1806757465        2.3328246517        0.6786386693
	 H           3.4458303849       -3.1785918504        1.5205626841
	 H           2.5562210209       -3.6955415519       -1.5927138766
	 C           3.4520910476        0.1953025105       -0.7818210547
	 H           3.0676432734        4.1274163019        0.2475921384
	 H           2.4610695306        2.0203433178        2.6865350465
	 H           5.4757798660        0.2173820706       -0.4674783405
	 H           3.1819528071        0.5069145704       -2.7925198957
	            -0.0001563479       -0.0008209848       -0.0017472009
	             0.0018636815       -0.0005683368        0.0018095250
	            -0.0006851737        0.0010978761        0.0002044583
	            -0.0001610776        0.0003036032       -0.0003857087
	            -0.0011760342        0.0000862782        0.0002420446
	             0.0004117469       -0.0005128823       -0.0000034225
	            -0.0000159301        0.0000230052       -0.0000879730
	            -0.0000158960       -0.0001474776        0.0000413870
	            -0.0002090409       -0.0000770247       -0.0005347291
	             0.0001288112        0.0000488190       -0.0002597207
	             0.0002490196        0.0002349318        0.0005955878
	             0.0001094803        0.0002897630        0.0001256161
	            -0.0001251540        0.0000179645        0.0000400422
	             0.0000729747        0.0000792257        0.0000460596
	            -0.0001350215       -0.0001146584       -0.0001963662
	            -0.0000239677       -0.0000204224       -0.0000062498
	            -0.0000968452        0.0000307191       -0.0000302480
	            -0.0000475135        0.0000687520        0.0000716626
	             0.0000122883       -0.0000191508        0.0000752358

	Previous optimization step data not found.  Starting new optimization.

	---Fragment 1 Intrafragment Coordinates---
	 - Coordinate -           - BOHR/RAD -       - ANG/DEG -
	 R(1,2)           =         1.776446	       0.940055
	 R(2,3)           =         2.656322	       1.405665
	 R(3,4)           =         2.057250	       1.088650
	 R(3,5)           =         2.865909	       1.516574
	 R(3,6)           =         2.901689	       1.535508
	 R(5,7)           =         2.051033	       1.085360
	 R(5,8)           =         2.045522	       1.082444
	 R(5,9)           =         2.908283	       1.538997
	 R(6,10)          =         2.053111	       1.086460
	 R(6,11)          =         2.048609	       1.084077
	 R(6,12)          =         2.909516	       1.539650
	 R(9,13)          =         2.048653	       1.084100
	 R(9,14)          =         2.049207	       1.084394
	 R(9,15)          =         2.909575	       1.539681
	 R(12,15)         =         2.884171	       1.526237
	 R(12,16)         =         2.047699	       1.083596
	 R(12,17)         =         2.051320	       1.085512
	 R(15,18)         =         2.048076	       1.083795
	 R(15,19)         =         2.052556	       1.086166
	 B(1,2,3)         =         1.921090	     110.070363
	 B(2,3,4)         =         1.898659	     108.785138
	 B(2,3,5)         =         1.888420	     108.198469
	 B(2,3,6)         =         1.949660	     111.707318
	 B(3,5,7)         =         1.889156	     108.240669
	 B(3,5,8)         =         1.910682	     109.474040
	 B(3,5,9)         =         1.937511	     111.011226
	 B(3,6,10)        =         1.907714	     109.303944
	 B(3,6,11)        =         1.882068	     107.834541
	 B(3,6,12)        =         1.966934	     112.697001
	 B(4,3,5)         =         1.888065	     108.178162
	 B(4,3,6)         =         1.905343	     109.168103
	 B(5,3,6)         =         1.932393	     110.717935
	 B(5,9,13)        =         1.901672	     108.957800
	 B(5,9,14)        =         1.917524	     109.866023
	 B(5,9,15)        =         1.964484	     112.556637
	 B(6,12,15)       =         1.943381	     111.347501
	 B(6,12,16)       =         1.921127	     110.072497
	 B(6,12,17)       =         1.912473	     109.576650
	 B(7,5,8)         =         1.860850	     106.618844
	 B(7,5,9)         =         1.930452	     110.606747
	 B(8,5,9)         =         1.933101	     110.758546
	 B(9,15,12)       =         1.940137	     111.161684
	 B(9,15,18)       =         1.919865	     110.000181
	 B(9,15,19)       =         1.917924	     109.888961
	 B(10,6,11)       =         1.865389	     106.878890
	 B(10,6,12)       =         1.921130	     110.072621
	 B(11,6,12)       =         1.917468	     109.862826
	 B(12,15,18)      =         1.928226	     110.479221
	 B(12,15,19)      =         1.902350	     108.996632
	 B(13,9,14)       =         1.855082	     106.288372
	 B(13,9,15)       =         1.914886	     109.714897
	 B(14,9,15)       =         1.906993	     109.262638
	 B(15,12,16)      =         1.930479	     110.608320
	 B(15,12,17)      =         1.899165	     108.814121
	 B(16,12,17)      =         1.854947	     106.280623
	 B(18,15,19)      =         1.853298	     106.186144
	*D(1,2,3,4)       =        -0.698131	     -39.999962
	 D(1,2,3,5)       =        -2.745457	    -157.303090
	 D(1,2,3,6)       =         1.406332	      80.576913
	 D(2,3,5,7)       =        -1.143456	     -65.515187
	 D(2,3,5,8)       =         0.878431	      50.330375
	 D(2,3,5,9)       =         3.017919	     172.914026
	 D(2,3,6,10)      =        -1.464390	     -83.903338
	 D(2,3,6,11)      =         0.557411	      31.937292
	 D(2,3,6,12)      =         2.676751	     153.366514
	 D(3,5,9,13)      =         2.662824	     152.568574
	 D(3,5,9,14)      =        -1.594591	     -91.363332
	 D(3,5,9,15)      =         0.534705	      30.636330
	 D(3,6,12,15)     =         0.495872	      28.411346
	 D(3,6,12,16)     =         2.643246	     151.446853
	 D(3,6,12,17)     =        -1.606036	     -92.019060
	 D(4,3,5,7)       =         3.085601	     176.791930
	 D(4,3,5,8)       =        -1.175698	     -67.362508
	 D(4,3,5,9)       =         0.963791	      55.221143
	 D(4,3,6,10)      =         0.636167	      36.449657
	 D(4,3,6,11)      =         2.657967	     152.290287
	 D(4,3,6,12)      =        -1.505879	     -86.280491
	 D(5,3,6,10)      =         2.712863	     155.435617
	 D(5,3,6,11)      =        -1.548522	     -88.723753
	 D(5,3,6,12)      =         0.570818	      32.705470
	 D(5,9,15,12)     =         0.532025	      30.482790
	 D(5,9,15,18)     =         2.673426	     153.176020
	 D(5,9,15,19)     =        -1.575394	     -90.263447
	 D(6,3,5,7)       =         0.998492	      57.209398
	 D(6,3,5,8)       =         3.020379	     173.054960
	 D(6,3,5,9)       =        -1.123318	     -64.361390
	 D(6,12,15,9)     =        -1.080403	     -61.902510
	 D(6,12,15,18)    =         3.066211	     175.680928
	 D(6,12,15,19)    =         1.036163	      59.367789
	 D(7,5,9,13)      =         0.565373	      32.393471
	 D(7,5,9,14)      =         2.591143	     148.461566
	 D(7,5,9,15)      =        -1.562746	     -89.538772
	 D(8,5,9,13)      =        -1.493908	     -85.594605
	 D(8,5,9,14)      =         0.531863	      30.473490
	 D(8,5,9,15)      =         2.661159	     152.473152
	 D(9,15,12,16)    =         3.060771	     175.369243
	 D(9,15,12,17)    =         1.029322	      58.975818
	 D(10,6,12,15)    =        -1.638642	     -93.887295
	 D(10,6,12,16)    =         0.508732	      29.148211
	 D(10,6,12,17)    =         2.542636	     145.682298
	 D(11,6,12,15)    =         2.594977	     148.681242
	 D(11,6,12,16)    =        -1.540833	     -88.283251
	 D(11,6,12,17)    =         0.493070	      28.250836
	 D(12,15,9,13)    =        -1.588591	     -91.019582
	 D(12,15,9,14)    =         2.667271	     152.823361
	 D(13,9,15,18)    =         0.552809	      31.673648
	 D(13,9,15,19)    =         2.587175	     148.234182
	 D(14,9,15,18)    =        -1.474514	     -84.483409
	 D(14,9,15,19)    =         0.559851	      32.077125
	 D(16,12,15,18)   =         0.924199	      52.952681
	 D(16,12,15,19)   =        -1.105849	     -63.360457
	 D(17,12,15,18)   =        -1.107250	     -63.440744
	 D(17,12,15,19)   =        -3.137297	    -179.753882

	Current energy   :      -309.1629813525

	Generating empirical Hessian (Schlegel '84) for each fragment.
	Taking RFO optimization step.
	Going to follow RFO solution 1.
	Using RFO vector 1.
	Norm of target step-size    0.07924
	Projected energy change by RFO approximation:         0.0006614250

	Back-transformation to cartesian coordinates...
	Successfully converged to displaced geometry.

	Back-transformation to cartesian coordinates to adjust frozen coordinates...
	Successfully converged to displaced geometry.

	--- Internal Coordinate Step in ANG or DEG, aJ/ANG or AJ/DEG ---
	 ---------------------------------------------------------------------------
	   Coordinate                Previous        Force       Change         New 
	   ----------                --------       ------       ------       ------
	    1 R(1,2)          =      0.940055    -0.007943    -0.000850     0.939204
	    2 R(2,3)          =      1.405665     0.012969     0.001863     1.407528
	    3 R(3,4)          =      1.088650    -0.002590    -0.000476     1.088174
	    4 R(3,5)          =      1.516574     0.005856     0.001687     1.518261
	    5 R(3,6)          =      1.535508    -0.002695    -0.000255     1.535253
	    6 R(5,7)          =      1.085360     0.000668     0.000121     1.085481
	    7 R(5,8)          =      1.082444    -0.001055    -0.000190     1.082254
	    8 R(5,9)          =      1.538997     0.000126     0.000357     1.539354
	    9 R(6,10)         =      1.086460    -0.001662    -0.000303     1.086157
	   10 R(6,11)         =      1.084077    -0.003569    -0.000645     1.083432
	   11 R(6,12)         =      1.539650     0.002442     0.000239     1.539889
	   12 R(9,13)         =      1.084100     0.000357     0.000065     1.084165
	   13 R(9,14)         =      1.084394     0.000647     0.000117     1.084511
	   14 R(9,15)         =      1.539681    -0.000017    -0.000333     1.539348
	   15 R(12,15)        =      1.526237     0.000708    -0.000357     1.525881
	   16 R(12,16)        =      1.083596     0.000222     0.000040     1.083636
	   17 R(12,17)        =      1.085512     0.000392     0.000071     1.085583
	   18 R(15,18)        =      1.083795     0.000290     0.000052     1.083848
	   19 R(15,19)        =      1.086166     0.000644     0.000117     1.086283
	   20 B(1,2,3)        =    110.070363     0.000074     0.345989   110.416352
	   21 B(2,3,4)        =    108.785138     0.000011     0.112365   108.897503
	   22 B(2,3,5)        =    108.198469     0.000113     0.582228   108.780697
	   23 B(2,3,6)        =    111.707318    -0.000102    -0.715534   110.991784
	   24 B(3,5,7)        =    108.240669    -0.000004    -0.044642   108.196027
	   25 B(3,5,8)        =    109.474040    -0.000016    -0.090544   109.383496
	   26 B(3,5,9)        =    111.011226     0.000030     0.280309   111.291535
	   27 B(3,6,10)       =    109.303944     0.000004     0.016672   109.320616
	   28 B(3,6,11)       =    107.834541    -0.000024    -0.237218   107.597323
	   29 B(3,6,12)       =    112.697001    -0.000001     0.111882   112.808883
	   30 B(4,3,5)        =    108.178162    -0.000004     0.390864   108.569025
	   31 B(4,3,6)        =    109.168103     0.000005    -0.397340   108.770763
	   32 B(5,3,6)        =    110.717935    -0.000020     0.060418   110.778353
	   33 B(5,9,13)       =    108.957800     0.000010     0.068720   109.026520
	   34 B(5,9,14)       =    109.866023     0.000000    -0.066189   109.799834
	   35 B(5,9,15)       =    112.556637    -0.000015     0.028381   112.585019
	   36 B(6,12,15)      =    111.347501     0.000018     0.028200   111.375701
	   37 B(6,12,16)      =    110.072497    -0.000011    -0.025827   110.046670
	   38 B(6,12,17)      =    109.576650     0.000005     0.061541   109.638192
	   39 B(7,5,8)        =    106.618844     0.000005    -0.043336   106.575509
	   40 B(7,5,9)        =    110.606747    -0.000023    -0.098744   110.508003
	   41 B(8,5,9)        =    110.758546     0.000007    -0.018506   110.740040
	   42 B(9,15,12)      =    111.161684    -0.000008    -0.067878   111.093805
	   43 B(9,15,18)      =    110.000181    -0.000005     0.008089   110.008270
	   44 B(9,15,19)      =    109.888961     0.000008     0.000001   109.888962
	   45 B(10,6,11)      =    106.878890    -0.000009    -0.146655   106.732235
	   46 B(10,6,12)      =    110.072621     0.000000     0.053395   110.126016
	   47 B(11,6,12)      =    109.862826     0.000029     0.181845   110.044672
	   48 B(12,15,18)     =    110.479221     0.000011     0.080414   110.559635
	   49 B(12,15,19)     =    108.996632    -0.000003    -0.012298   108.984335
	   50 B(13,9,14)      =    106.288372    -0.000003    -0.019138   106.269234
	   51 B(13,9,15)      =    109.714897    -0.000002    -0.012828   109.702069
	   52 B(14,9,15)      =    109.262638     0.000010    -0.001731   109.260907
	   53 B(15,12,16)     =    110.608320    -0.000005    -0.046475   110.561845
	   54 B(15,12,17)     =    108.814121    -0.000011    -0.001907   108.812215
	   55 B(16,12,17)     =    106.280623     0.000002    -0.016171   106.264452
	   56 B(18,15,19)     =    106.186144    -0.000003    -0.005506   106.180638
	   57 *D(1,2,3,4)     =    -39.999962     0.000000     0.000000   -39.999962
	   58 D(1,2,3,5)      =   -157.303090    -0.000015    -0.856328  -158.159418
	   59 D(1,2,3,6)      =     80.576913    -0.000011    -0.864687    79.712226
	   60 D(2,3,5,7)      =    -65.515187     0.000012     1.148795   -64.366392
	   61 D(2,3,5,8)      =     50.330375     0.000011     1.024199    51.354574
	   62 D(2,3,5,9)      =    172.914026     0.000015     1.125640   174.039665
	   63 D(2,3,6,10)     =    -83.903338     0.000010    -0.495970   -84.399308
	   64 D(2,3,6,11)     =     31.937292     0.000005    -0.789265    31.148026
	   65 D(2,3,6,12)     =    153.366514     0.000010    -0.653506   152.713008
	   66 D(3,5,9,13)     =    152.568574    -0.000001    -0.029966   152.538608
	   67 D(3,5,9,14)     =    -91.363332    -0.000000    -0.050832   -91.414163
	   68 D(3,5,9,15)     =     30.636330     0.000000    -0.080958    30.555372
	   69 D(3,6,12,15)    =     28.411346     0.000001     0.703475    29.114821
	   70 D(3,6,12,16)    =    151.446853     0.000001     0.645441   152.092294
	   71 D(3,6,12,17)    =    -92.019060     0.000001     0.646905   -91.372155
	   72 D(4,3,5,7)      =    176.791930    -0.000004     0.475017   177.266947
	   73 D(4,3,5,8)      =    -67.362508    -0.000005     0.350421   -67.012087
	   74 D(4,3,5,9)      =     55.221143    -0.000001     0.451861    55.673004
	   75 D(4,3,6,10)     =     36.449657    -0.000001    -1.061140    35.388517
	   76 D(4,3,6,11)     =    152.290287    -0.000006    -1.354435   150.935852
	   77 D(4,3,6,12)     =    -86.280491    -0.000001    -1.218677   -87.499167
	   78 D(5,3,6,10)     =    155.435617    -0.000004    -0.792871   154.642747
	   79 D(5,3,6,11)     =    -88.723753    -0.000009    -1.086166   -89.809919
	   80 D(5,3,6,12)     =     32.705470    -0.000004    -0.950407    31.755063
	   81 D(5,9,15,12)    =     30.482790    -0.000001    -0.102207    30.380583
	   82 D(5,9,15,18)    =    153.176020     0.000000    -0.040693   153.135327
	   83 D(5,9,15,19)    =    -90.263447    -0.000000    -0.042639   -90.306085
	   84 D(6,3,5,7)      =     57.209398    -0.000003     0.681922    57.891320
	   85 D(6,3,5,8)      =    173.054960    -0.000004     0.557326   173.612286
	   86 D(6,3,5,9)      =    -64.361390     0.000000     0.658767   -63.702623
	   87 D(6,12,15,9)    =    -61.902510    -0.000002    -0.201799   -62.104309
	   88 D(6,12,15,18)   =    175.680928    -0.000001    -0.221281   175.459647
	   89 D(6,12,15,19)   =     59.367789    -0.000002    -0.253159    59.114630
	   90 D(7,5,9,13)     =     32.393471    -0.000001    -0.092789    32.300683
	   91 D(7,5,9,14)     =    148.461566    -0.000000    -0.113655   148.347911
	   92 D(7,5,9,15)     =    -89.538772     0.000001    -0.143781   -89.682553
	   93 D(8,5,9,13)     =    -85.594605     0.000000     0.034430   -85.560175
	   94 D(8,5,9,14)     =     30.473490     0.000001     0.013563    30.487054
	   95 D(8,5,9,15)     =    152.473152     0.000001    -0.016563   152.456589
	   96 D(9,15,12,16)   =    175.369243    -0.000002    -0.155589   175.213655
	   97 D(9,15,12,17)   =     58.975818    -0.000000    -0.108590    58.867228
	   98 D(10,6,12,15)   =    -93.887295     0.000000     0.564853   -93.322443
	   99 D(10,6,12,16)   =     29.148211     0.000000     0.506819    29.655030
	  100 D(10,6,12,17)   =    145.682298    -0.000000     0.508283   146.190581
	  101 D(11,6,12,15)   =    148.681242    -0.000001     0.602843   149.284086
	  102 D(11,6,12,16)   =    -88.283251    -0.000001     0.544810   -87.738442
	  103 D(11,6,12,17)   =     28.250836    -0.000002     0.546273    28.797109
	  104 D(12,15,9,13)   =    -91.019582    -0.000001    -0.200017   -91.219599
	  105 D(12,15,9,14)   =    152.823361    -0.000002    -0.168754   152.654607
	  106 D(13,9,15,18)   =     31.673648    -0.000000    -0.138503    31.535146
	  107 D(13,9,15,19)   =    148.234182    -0.000000    -0.140449   148.093733
	  108 D(14,9,15,18)   =    -84.483409    -0.000000    -0.107240   -84.590649
	  109 D(14,9,15,19)   =     32.077125    -0.000001    -0.109186    31.967939
	  110 D(16,12,15,18)  =     52.952681    -0.000001    -0.175070    52.777611
	  111 D(16,12,15,19)  =    -63.360457    -0.000001    -0.206949   -63.567406
	  112 D(17,12,15,18)  =    -63.440744     0.000001    -0.128071   -63.568815
	  113 D(17,12,15,19)  =   -179.753882     0.000000    -0.159950  -179.913832
	 ---------------------------------------------------------------------------

  ==> Convergence Check <==

  Measures of convergence in internal coordinates in au.
  Criteria marked as inactive (o), active & met (*), and active & unmet ( ).
  --------------------------------------------------------------------------------------------- ~
   Step     Total Energy     Delta E     MAX Force     RMS Force      MAX Disp      RMS Disp    ~
  --------------------------------------------------------------------------------------------- ~
    Convergence Criteria    1.00e-06 *    3.00e-04 *             o    1.20e-03 *             o  ~
  --------------------------------------------------------------------------------------------- ~
      1    -309.16298135   -3.09e+02      1.57e-03      3.60e-04 o    2.36e-02      7.45e-03 o  ~
  ---------------------------------------------------------------------------------------------

	Writing optimization data to binary file.
	Structure for next step:
	Cartesian Geometry (in Angstrom)
	    H    -2.8247891684   0.3062270606  -0.6724172243
	    O    -2.3168265730  -0.1266388748  -0.0115797508
	    C    -0.9466457215  -0.0674315971  -0.3281794236
	    H    -0.8252313314  -0.2219673696  -1.3984598155
	    C    -0.2265511741  -1.1841629649   0.4063206911
	    C    -0.3547667480   1.2994067943   0.0438859996
	    H    -0.3100491154  -0.9976611198   1.4723953363
	    H    -0.7311069585  -2.1226240686   0.2166148374
	    C     1.2524312544  -1.2659794490  -0.0126399699
	    H    -0.5356707063   2.0015237352  -0.7648425320
	    H    -0.8988902673   1.6685352625   0.9049892408
	    C     1.1507909851   1.2318849361   0.3601048218
	    H     1.8290218735  -1.6825937865   0.8055222752
	    H     1.3614570535  -1.9550603735  -0.8429678486
	    C     1.8308721882   0.1039852065  -0.4103779244
	    H     1.6203090626   2.1825898082   0.1365432471
	    H     1.2931623175   1.0650342549   1.4232988643
	    H     2.9011841991   0.1181670665  -0.2402110933
	    H     1.6914003916   0.2690436356  -1.4749505439
			--------------------------
			 OPTKING Finished Execution 
			--------------------------

    Structure for next step:
    Molecular point group: c1
    Full point group: C1

    Geometry (in Angstrom), charge = 0, multiplicity = 1:

    H           -2.825015653043     0.305997136440    -0.673279088273
    O           -2.317053096432    -0.126868765875    -0.012441665286
    C           -0.946872349550    -0.067661492717    -0.329041313835
    H           -0.825457968728    -0.222197253406    -1.399321624021
    C           -0.226777857125    -1.184392775266     0.405458744687
    C           -0.354993421257     1.299176794338     0.043024080904
    H           -0.310275792122    -0.997890944354     1.471533308485
    H           -0.731333603064    -2.122853807252     0.215752905500
    C            1.252204458386    -1.266209253136    -0.013501884244
    H           -0.535897365755     2.001293681602    -0.765704388946
    H           -0.899116899026     1.668305234300     0.904127256358
    C            1.150564196810     1.231654941304     0.359242878912
    H            1.828795033432    -1.682823558806     0.804660298358
    H            1.361230249153    -1.955290125013    -0.843829699547
    C            1.830645348036     0.103755297760    -0.411239808390
    H            1.620082238464     2.182359740804     0.135681321356
    H            1.292935518388     1.064804272835     1.422436840269
    H            2.900957277161     0.117937156750    -0.241072990322
    H            1.691173562095     0.268813714287    -1.475812346656

gradient() will perform analytic gradient computation.

*** tstart() called on cx1-27-1-4
*** at Fri Sep  9 21:00:13 2016


         ---------------------------------------------------------
                                   SCF
            by Justin Turney, Rob Parrish, and Andy Simmonett
                              RHF Reference
                        4 Threads,   2000 MiB Core
         ---------------------------------------------------------

  ==> Geometry <==

    Molecular point group: c1
    Full point group: C1

    Geometry (in Angstrom), charge = 0, multiplicity = 1:

       Center              X                  Y                   Z               Mass       
    ------------   -----------------  -----------------  -----------------  -----------------
           H         -2.825015653043     0.305997136440    -0.673279088273     1.007825032070
           O         -2.317053096432    -0.126868765875    -0.012441665286    15.994914619560
           C         -0.946872349550    -0.067661492717    -0.329041313835    12.000000000000
           H         -0.825457968728    -0.222197253406    -1.399321624021     1.007825032070
           C         -0.226777857125    -1.184392775266     0.405458744687    12.000000000000
           C         -0.354993421257     1.299176794338     0.043024080904    12.000000000000
           H         -0.310275792122    -0.997890944354     1.471533308485     1.007825032070
           H         -0.731333603064    -2.122853807252     0.215752905500     1.007825032070
           C          1.252204458386    -1.266209253136    -0.013501884244    12.000000000000
           H         -0.535897365755     2.001293681602    -0.765704388946     1.007825032070
           H         -0.899116899026     1.668305234300     0.904127256358     1.007825032070
           C          1.150564196810     1.231654941304     0.359242878912    12.000000000000
           H          1.828795033432    -1.682823558806     0.804660298358     1.007825032070
           H          1.361230249153    -1.955290125013    -0.843829699547     1.007825032070
           C          1.830645348036     0.103755297760    -0.411239808390    12.000000000000
           H          1.620082238464     2.182359740804     0.135681321356     1.007825032070
           H          1.292935518388     1.064804272835     1.422436840269     1.007825032070
           H          2.900957277161     0.117937156750    -0.241072990322     1.007825032070
           H          1.691173562095     0.268813714287    -1.475812346656     1.007825032070

  Running in c1 symmetry.

  Rotational constants: A =      0.14186  B =      0.07534  C =      0.05521 [cm^-1]
  Rotational constants: A =   4252.77329  B =   2258.67846  C =   1655.24489 [MHz]
  Nuclear repulsion =  331.730817774478908

  Charge       = 0
  Multiplicity = 1
  Electrons    = 56
  Nalpha       = 28
  Nbeta        = 28

  ==> Algorithm <==

  SCF Algorithm Type is DF.
  DIIS enabled.
  MOM disabled.
  Fractional occupation disabled.
  Guess Type is READ.
  Energy threshold   = 1.00e-08
  Density threshold  = 1.00e-08
  Integral threshold = 0.00e+00

  ==> Primary Basis <==

  Basis Set: CC-PVTZ
    Number of shells: 142
    Number of basis function: 378
    Number of Cartesian functions: 425
    Spherical Harmonics?: true
    Max angular momentum: 3

  ==> Pre-Iterations <==

   -------------------------------------------------------
    Irrep   Nso     Nmo     Nalpha   Nbeta   Ndocc  Nsocc
   -------------------------------------------------------
     A        378     378       0       0       0       0
   -------------------------------------------------------
    Total     378     378      28      28      28       0
   -------------------------------------------------------

 OEINTS: Overlap, kinetic, potential, dipole, and quadrupole integrals
         stored in file 35.

  ==> Integral Setup <==

  ==> DFJK: Density-Fitted J/K Matrices <==

    J tasked:                  Yes
    K tasked:                  Yes
    wK tasked:                  No
    OpenMP threads:              4
    Integrals threads:           4
    Memory (MB):              1430
    Algorithm:                Core
    Integral Cache:           NONE
    Schwarz Cutoff:          1E-12
    Fitting Condition:       1E-12

   => Auxiliary Basis Set <=

  Basis Set: 
    Number of shells: 295
    Number of basis function: 913
    Number of Cartesian functions: 1092
    Spherical Harmonics?: true
    Max angular momentum: 4

  Minimum eigenvalue in the overlap matrix is 1.3986416023E-04.
  Using Symmetric Orthogonalization.
  SCF Guess: Reading in previously saved MOs, projecting if necessary.

  Using orbitals from previous SCF, no projection.
  Recomputing DOCC and SOCC from number of alpha and beta electrons from previous calculation.
              A 
    DOCC [    28 ]

  ==> Iterations <==

                           Total Energy        Delta E     RMS |[F,P]|

   @DF-RHF iter   0:  -309.16229016551625   -3.09162e+02   7.80417e-05 
   @DF-RHF iter   1:  -309.16298671548003   -6.96550e-04   1.31362e-05 
   @DF-RHF iter   2:  -309.16300826401272   -2.15485e-05   4.96235e-06 DIIS
   @DF-RHF iter   3:  -309.16301188877588   -3.62476e-06   2.13316e-06 DIIS
   @DF-RHF iter   4:  -309.16301241578441   -5.27009e-07   4.89169e-07 DIIS
   @DF-RHF iter   5:  -309.16301245959579   -4.38114e-08   1.88955e-07 DIIS
   @DF-RHF iter   6:  -309.16301246446272   -4.86693e-09   6.26792e-08 DIIS
   @DF-RHF iter   7:  -309.16301246500615   -5.43423e-10   1.28759e-08 DIIS
   @DF-RHF iter   8:  -309.16301246503525   -2.91038e-11   3.69076e-09 DIIS

  ==> Post-Iterations <==

    Orbital Energies (a.u.)
    -----------------------

    Doubly Occupied:                                                      

       1A    -20.543038     2A    -11.267934     3A    -11.213600  
       4A    -11.213259     5A    -11.212708     6A    -11.208616  
       7A    -11.206943     8A     -1.362696     9A     -1.109182  
      10A     -1.001789    11A     -0.989385    12A     -0.842873  
      13A     -0.835417    14A     -0.732100    15A     -0.707841  
      16A     -0.659853    17A     -0.628785    18A     -0.590274  
      19A     -0.573022    20A     -0.546677    21A     -0.534940  
      22A     -0.517616    23A     -0.497976    24A     -0.489149  
      25A     -0.462546    26A     -0.449657    27A     -0.430069  
      28A     -0.411095  

    Virtual:                                                              

      29A      0.135706    30A      0.145074    31A      0.163980  
      32A      0.171093    33A      0.192769    34A      0.203937  
      35A      0.217822    36A      0.219740    37A      0.231774  
      38A      0.239434    39A      0.258176    40A      0.267085  
      41A      0.303330    42A      0.339382    43A      0.354477  
      44A      0.372900    45A      0.381567    46A      0.393127  
      47A      0.401320    48A      0.406828    49A      0.433289  
      50A      0.442742    51A      0.453029    52A      0.471107  
      53A      0.494982    54A      0.510659    55A      0.547632  
      56A      0.560947    57A      0.566294    58A      0.572928  
      59A      0.585510    60A      0.596411    61A      0.601504  
      62A      0.614815    63A      0.624214    64A      0.631039  
      65A      0.641523    66A      0.649164    67A      0.656317  
      68A      0.658429    69A      0.675397    70A      0.683850  
      71A      0.691751    72A      0.702195    73A      0.719187  
      74A      0.725032    75A      0.746571    76A      0.748692  
      77A      0.751419    78A      0.761867    79A      0.837461  
      80A      0.853675    81A      0.864325    82A      0.892512  
      83A      0.899411    84A      0.946708    85A      0.970824  
      86A      0.987594    87A      0.997163    88A      1.003094  
      89A      1.015201    90A      1.029558    91A      1.076679  
      92A      1.092858    93A      1.101606    94A      1.128461  
      95A      1.143708    96A      1.155911    97A      1.178637  
      98A      1.196399    99A      1.221299   100A      1.232815  
     101A      1.252807   102A      1.258411   103A      1.259565  
     104A      1.280153   105A      1.283860   106A      1.294459  
     107A      1.301966   108A      1.315838   109A      1.324441  
     110A      1.341341   111A      1.352981   112A      1.369333  
     113A      1.386591   114A      1.401626   115A      1.415881  
     116A      1.425371   117A      1.436489   118A      1.450789  
     119A      1.463330   120A      1.471789   121A      1.484510  
     122A      1.497337   123A      1.504973   124A      1.521437  
     125A      1.536398   126A      1.563603   127A      1.566956  
     128A      1.590223   129A      1.593201   130A      1.611267  
     131A      1.620773   132A      1.632123   133A      1.644882  
     134A      1.652477   135A      1.686271   136A      1.705612  
     137A      1.709986   138A      1.723593   139A      1.744046  
     140A      1.745164   141A      1.758048   142A      1.811046  
     143A      1.834386   144A      1.843988   145A      1.881952  
     146A      1.901959   147A      1.917697   148A      1.942084  
     149A      1.974733   150A      2.000963   151A      2.011581  
     152A      2.031571   153A      2.124646   154A      2.246262  
     155A      2.277853   156A      2.330146   157A      2.418843  
     158A      2.451372   159A      2.582108   160A      2.598485  
     161A      2.637107   162A      2.670152   163A      2.690315  
     164A      2.711033   165A      2.725154   166A      2.740272  
     167A      2.774497   168A      2.807792   169A      2.830181  
     170A      2.836073   171A      2.850768   172A      2.877899  
     173A      2.891863   174A      2.912615   175A      2.926874  
     176A      2.935372   177A      2.946431   178A      2.957387  
     179A      2.974554   180A      2.981046   181A      2.995087  
     182A      3.011481   183A      3.023991   184A      3.065416  
     185A      3.076323   186A      3.095356   187A      3.109251  
     188A      3.123345   189A      3.138746   190A      3.186434  
     191A      3.195404   192A      3.223578   193A      3.248117  
     194A      3.257848   195A      3.265719   196A      3.283516  
     197A      3.294542   198A      3.307941   199A      3.326358  
     200A      3.354969   201A      3.361310   202A      3.370379  
     203A      3.380569   204A      3.398299   205A      3.407976  
     206A      3.418594   207A      3.440553   208A      3.446998  
     209A      3.458829   210A      3.474435   211A      3.485706  
     212A      3.492775   213A      3.506889   214A      3.513331  
     215A      3.518454   216A      3.522988   217A      3.534718  
     218A      3.547046   219A      3.554586   220A      3.577871  
     221A      3.596206   222A      3.609252   223A      3.620911  
     224A      3.627497   225A      3.649623   226A      3.689054  
     227A      3.707790   228A      3.709417   229A      3.723957  
     230A      3.765746   231A      3.778146   232A      3.780796  
     233A      3.810280   234A      3.845974   235A      3.854879  
     236A      3.871576   237A      3.872658   238A      3.914771  
     239A      3.921084   240A      3.940227   241A      3.950179  
     242A      3.969907   243A      3.982835   244A      4.003484  
     245A      4.007635   246A      4.018550   247A      4.023111  
     248A      4.061453   249A      4.070055   250A      4.074841  
     251A      4.088275   252A      4.095385   253A      4.106041  
     254A      4.118907   255A      4.139486   256A      4.157089  
     257A      4.177057   258A      4.184265   259A      4.195896  
     260A      4.204161   261A      4.241100   262A      4.253721  
     263A      4.265456   264A      4.270349   265A      4.290756  
     266A      4.320511   267A      4.325419   268A      4.332413  
     269A      4.348215   270A      4.358845   271A      4.369199  
     272A      4.382631   273A      4.391571   274A      4.406392  
     275A      4.419251   276A      4.441947   277A      4.464726  
     278A      4.487869   279A      4.492803   280A      4.506598  
     281A      4.509683   282A      4.528921   283A      4.552987  
     284A      4.558937   285A      4.577063   286A      4.582557  
     287A      4.599154   288A      4.610135   289A      4.624094  
     290A      4.642723   291A      4.646511   292A      4.665993  
     293A      4.673346   294A      4.678065   295A      4.693277  
     296A      4.731202   297A      4.739758   298A      4.763773  
     299A      4.776870   300A      4.798051   301A      4.811832  
     302A      4.859259   303A      4.898050   304A      4.935150  
     305A      4.946894   306A      4.957822   307A      4.982268  
     308A      5.001496   309A      5.034617   310A      5.084402  
     311A      5.101608   312A      5.136535   313A      5.178625  
     314A      5.181928   315A      5.192034   316A      5.229720  
     317A      5.249934   318A      5.265145   319A      5.275419  
     320A      5.287054   321A      5.341316   322A      5.356823  
     323A      5.366122   324A      5.378660   325A      5.409904  
     326A      5.420052   327A      5.432309   328A      5.447700  
     329A      5.478867   330A      5.492340   331A      5.499890  
     332A      5.524448   333A      5.567537   334A      5.579946  
     335A      5.656455   336A      5.657069   337A      5.669983  
     338A      5.697974   339A      5.715663   340A      5.740661  
     341A      5.748997   342A      5.765086   343A      5.819731  
     344A      5.837457   345A      5.872363   346A      5.898592  
     347A      5.940604   348A      5.955163   349A      5.975465  
     350A      6.019730   351A      6.054840   352A      6.076280  
     353A      6.106024   354A      6.159657   355A      6.217749  
     356A      6.292667   357A      6.354309   358A      6.389770  
     359A      6.412170   360A      6.458251   361A      6.514090  
     362A      6.546363   363A      6.753029   364A      7.114331  
     365A      7.180275   366A      7.262747   367A      7.299447  
     368A      7.457534   369A      7.554222   370A      7.798529  
     371A      8.059895   372A     12.106349   373A     12.573799  
     374A     12.942633   375A     13.274408   376A     13.664596  
     377A     13.804555   378A     14.199238  

    Final Occupation by Irrep:
              A 
    DOCC [    28 ]

  Energy converged.

  @DF-RHF Final Energy:  -309.16301246503525

   => Energetics <=

    Nuclear Repulsion Energy =            331.7308177744789077
    One-Electron Energy =               -1077.3095789696258180
    Two-Electron Energy =                 436.4157487301120000
    DFT Exchange-Correlation Energy =       0.0000000000000000
    Empirical Dispersion Energy =           0.0000000000000000
    PCM Polarization Energy =               0.0000000000000000
    EFP Energy =                            0.0000000000000000
    Total Energy =                       -309.1630124650348534

    Alert: EFP and PCM quantities not currently incorporated into SCF psivars.

Properties will be evaluated at   0.000000,   0.000000,   0.000000 Bohr
  ==> Properties <==


Properties computed using the SCF density matrix

  Nuclear Dipole Moment: (a.u.)
     X:     4.2713      Y:     0.5885      Z:    -0.4171

  Electronic Dipole Moment: (a.u.)
     X:    -3.9984      Y:    -0.3202      Z:    -0.0767

  Dipole Moment: (a.u.)
     X:     0.2729      Y:     0.2684      Z:    -0.4938     Total:     0.6248

  Dipole Moment: (Debye)
     X:     0.6937      Y:     0.6821      Z:    -1.2550     Total:     1.5880


  Saving occupied orbitals to File 180.

*** tstop() called on cx1-27-1-4 at Fri Sep  9 21:00:29 2016
Module time:
	user time   =      52.27 seconds =       0.87 minutes
	system time =       0.64 seconds =       0.01 minutes
	total time  =         16 seconds =       0.27 minutes
Total time:
	user time   =     238.94 seconds =       3.98 minutes
	system time =       2.26 seconds =       0.04 minutes
	total time  =         69 seconds =       1.15 minutes

*** tstart() called on cx1-27-1-4
*** at Fri Sep  9 21:00:29 2016


         ------------------------------------------------------------
                                   SCF GRAD                          
                          Rob Parrish, Justin Turney,                
                       Andy Simmonett, and Alex Sokolov              
         ------------------------------------------------------------

  ==> Geometry <==

    Molecular point group: c1
    Full point group: C1

    Geometry (in Angstrom), charge = 0, multiplicity = 1:

       Center              X                  Y                   Z               Mass       
    ------------   -----------------  -----------------  -----------------  -----------------
           H         -2.825015653043     0.305997136440    -0.673279088273     1.007825032070
           O         -2.317053096432    -0.126868765875    -0.012441665286    15.994914619560
           C         -0.946872349550    -0.067661492717    -0.329041313835    12.000000000000
           H         -0.825457968728    -0.222197253406    -1.399321624021     1.007825032070
           C         -0.226777857125    -1.184392775266     0.405458744687    12.000000000000
           C         -0.354993421257     1.299176794338     0.043024080904    12.000000000000
           H         -0.310275792122    -0.997890944354     1.471533308485     1.007825032070
           H         -0.731333603064    -2.122853807252     0.215752905500     1.007825032070
           C          1.252204458386    -1.266209253136    -0.013501884244    12.000000000000
           H         -0.535897365755     2.001293681602    -0.765704388946     1.007825032070
           H         -0.899116899026     1.668305234300     0.904127256358     1.007825032070
           C          1.150564196810     1.231654941304     0.359242878912    12.000000000000
           H          1.828795033432    -1.682823558806     0.804660298358     1.007825032070
           H          1.361230249153    -1.955290125013    -0.843829699547     1.007825032070
           C          1.830645348036     0.103755297760    -0.411239808390    12.000000000000
           H          1.620082238464     2.182359740804     0.135681321356     1.007825032070
           H          1.292935518388     1.064804272835     1.422436840269     1.007825032070
           H          2.900957277161     0.117937156750    -0.241072990322     1.007825032070
           H          1.691173562095     0.268813714287    -1.475812346656     1.007825032070

  Nuclear repulsion =  331.730817774478908

  ==> Basis Set <==

  Basis Set: CC-PVTZ
    Number of shells: 142
    Number of basis function: 378
    Number of Cartesian functions: 425
    Spherical Harmonics?: true
    Max angular momentum: 3

  ==> DFJKGrad: Density-Fitted SCF Gradients <==

    Gradient:                    1
    J tasked:                  Yes
    K tasked:                  Yes
    wK tasked:                  No
    OpenMP threads:              4
    Integrals threads:           4
    Memory (MB):              1430
    Schwarz Cutoff:          0E+00
    Fitting Condition:       1E-12

   => Auxiliary Basis Set <=

  Basis Set: 
    Number of shells: 295
    Number of basis function: 913
    Number of Cartesian functions: 1092
    Spherical Harmonics?: true
    Max angular momentum: 4


  -Total Gradient:
     Atom            X                  Y                   Z
    ------   -----------------  -----------------  -----------------
       1       -0.000452170304    -0.001209181295    -0.000556775585
       2        0.000066417092     0.002735542700     0.000425391593
       3       -0.000152731500    -0.002139934934     0.000582050365
       4       -0.000045486162     0.001671567843    -0.000311970816
       5        0.000759153355    -0.000176372756     0.000037194269
       6       -0.000818666315    -0.000371970455    -0.000613962078
       7        0.000104085638    -0.000099824347     0.000063894203
       8       -0.000007094537     0.000171810676    -0.000038458930
       9        0.000190896212    -0.000105734530     0.000385805287
      10       -0.000084287662     0.000027039843     0.000078049650
      11       -0.000161374331    -0.000023246353    -0.000057086464
      12        0.000174618292    -0.000408051091     0.000123197949
      13        0.000217661124    -0.000016040039    -0.000057493783
      14       -0.000013840064     0.000049689307    -0.000026815003
      15        0.000150317344    -0.000034889875     0.000006811554
      16       -0.000010187171    -0.000079056660    -0.000055939845
      17        0.000037184007     0.000009045528    -0.000023519021
      18        0.000022020757    -0.000002537262    -0.000004601203
      19        0.000023484230     0.000002143702     0.000044227861


*** tstop() called on cx1-27-1-4 at Fri Sep  9 21:01:00 2016
Module time:
	user time   =     119.61 seconds =       1.99 minutes
	system time =       0.74 seconds =       0.01 minutes
	total time  =         31 seconds =       0.52 minutes
Total time:
	user time   =     358.57 seconds =       5.98 minutes
	system time =       3.01 seconds =       0.05 minutes
	total time  =        100 seconds =       1.67 minutes
CURRENT ENERGY: -309.1630124650

			-----------------------------------------
			 OPTKING 2.0: for geometry optimizations 
			  - R.A. King,  Bethel University        
			-----------------------------------------

	Previous internal coordinate definitions found.
	---Fragment 1 Geometry and Gradient---
	 H          -5.3385059054        0.5782507853       -1.2723130878
	 O          -4.3785957876       -0.2397472223       -0.0235113400
	 C          -1.7893294235       -0.1278616910       -0.6217979696
	 H          -1.5598894951       -0.4198919564       -2.6443346412
	 C          -0.4285480430       -2.2381779790        0.7662059856
	 C          -0.6708403452        2.4550883395        0.0813037300
	 H          -0.5863362728       -1.8857405953        2.7807949485
	 H          -1.3820202216       -4.0116123159        0.4077139038
	 C           2.3663234887       -2.3927887154       -0.0255148635
	 H          -1.0126992566        3.7818969697       -1.4469715939
	 H          -1.6990847006        3.1526399989        1.7085529038
	 C           2.1742512303        2.3274905293        0.6788706563
	 H           3.4559217664       -3.1800756561        1.5205875939
	 H           2.5723523747       -3.6949628466       -1.5946070349
	 C           3.4594183542        0.1960690976       -0.7771306128
	 H           3.0615117434        4.1240622336        0.2564005387
	 H           2.4432940372        2.0121884608        2.6880160694
	 H           5.4820147770        0.2228689271       -0.4555619297
	 H           3.1958548755        0.5079843008       -2.7888811587
	            -0.0004521703       -0.0012091813       -0.0005567756
	             0.0000664171        0.0027355427        0.0004253916
	            -0.0001527315       -0.0021399349        0.0005820504
	            -0.0000454862        0.0016715678       -0.0003119708
	             0.0007591534       -0.0001763728        0.0000371943
	            -0.0008186663       -0.0003719705       -0.0006139621
	             0.0001040856       -0.0000998243        0.0000638942
	            -0.0000070945        0.0001718107       -0.0000384589
	             0.0001908962       -0.0001057345        0.0003858053
	            -0.0000842877        0.0000270398        0.0000780496
	            -0.0001613743       -0.0000232464       -0.0000570865
	             0.0001746183       -0.0004080511        0.0001231979
	             0.0002176611       -0.0000160400       -0.0000574938
	            -0.0000138401        0.0000496893       -0.0000268150
	             0.0001503173       -0.0000348899        0.0000068116
	            -0.0000101872       -0.0000790567       -0.0000559398
	             0.0000371840        0.0000090455       -0.0000235190
	             0.0000220208       -0.0000025373       -0.0000046012
	             0.0000234842        0.0000021437        0.0000442279

	---Fragment 1 Intrafragment Coordinates---
	 - Coordinate -           - BOHR/RAD -       - ANG/DEG -
	 R(1,2)           =         1.774839	       0.939204
	 R(2,3)           =         2.659843	       1.407528
	 R(3,4)           =         2.056351	       1.088174
	 R(3,5)           =         2.869097	       1.518261
	 R(3,6)           =         2.901207	       1.535253
	 R(5,7)           =         2.051263	       1.085481
	 R(5,8)           =         2.045164	       1.082254
	 R(5,9)           =         2.908957	       1.539354
	 R(6,10)          =         2.052538	       1.086157
	 R(6,11)          =         2.047390	       1.083432
	 R(6,12)          =         2.909968	       1.539889
	 R(9,13)          =         2.048775	       1.084165
	 R(9,14)          =         2.049428	       1.084511
	 R(9,15)          =         2.908946	       1.539348
	 R(12,15)         =         2.883496	       1.525881
	 R(12,16)         =         2.047775	       1.083636
	 R(12,17)         =         2.051454	       1.085583
	 R(15,18)         =         2.048175	       1.083848
	 R(15,19)         =         2.052778	       1.086283
	 B(1,2,3)         =         1.927129	     110.416352
	 B(2,3,4)         =         1.900620	     108.897503
	 B(2,3,5)         =         1.898581	     108.780697
	 B(2,3,6)         =         1.937172	     110.991784
	 B(3,5,7)         =         1.888377	     108.196027
	 B(3,5,8)         =         1.909102	     109.383496
	 B(3,5,9)         =         1.942404	     111.291535
	 B(3,6,10)        =         1.908005	     109.320616
	 B(3,6,11)        =         1.877928	     107.597323
	 B(3,6,12)        =         1.968886	     112.808883
	 B(4,3,5)         =         1.894887	     108.569025
	 B(4,3,6)         =         1.898408	     108.770763
	 B(5,3,6)         =         1.933447	     110.778353
	 B(5,9,13)        =         1.902872	     109.026520
	 B(5,9,14)        =         1.916369	     109.799834
	 B(5,9,15)        =         1.964979	     112.585019
	 B(6,12,15)       =         1.943873	     111.375701
	 B(6,12,16)       =         1.920677	     110.046670
	 B(6,12,17)       =         1.913547	     109.638192
	 B(7,5,8)         =         1.860094	     106.575509
	 B(7,5,9)         =         1.928729	     110.508003
	 B(8,5,9)         =         1.932778	     110.740040
	 B(9,15,12)       =         1.938953	     111.093805
	 B(9,15,18)       =         1.920007	     110.008270
	 B(9,15,19)       =         1.917924	     109.888962
	 B(10,6,11)       =         1.862829	     106.732235
	 B(10,6,12)       =         1.922062	     110.126016
	 B(11,6,12)       =         1.920642	     110.044672
	 B(12,15,18)      =         1.929630	     110.559635
	 B(12,15,19)      =         1.902135	     108.984335
	 B(13,9,14)       =         1.854748	     106.269234
	 B(13,9,15)       =         1.914662	     109.702069
	 B(14,9,15)       =         1.906963	     109.260907
	 B(15,12,16)      =         1.929668	     110.561845
	 B(15,12,17)      =         1.899131	     108.812215
	 B(16,12,17)      =         1.854665	     106.264452
	 B(18,15,19)      =         1.853202	     106.180638
	*D(1,2,3,4)       =        -0.698131	     -39.999962
	 D(1,2,3,5)       =        -2.760403	    -158.159418
	 D(1,2,3,6)       =         1.391241	      79.712226
	 D(2,3,5,7)       =        -1.123405	     -64.366392
	 D(2,3,5,8)       =         0.896306	      51.354574
	 D(2,3,5,9)       =         3.037565	     174.039665
	 D(2,3,6,10)      =        -1.473046	     -84.399308
	 D(2,3,6,11)      =         0.543636	      31.148026
	 D(2,3,6,12)      =         2.665345	     152.713008
	 D(3,5,9,13)      =         2.662301	     152.538608
	 D(3,5,9,14)      =        -1.595478	     -91.414163
	 D(3,5,9,15)      =         0.533292	      30.555372
	 D(3,6,12,15)     =         0.508149	      29.114821
	 D(3,6,12,16)     =         2.654511	     152.092294
	 D(3,6,12,17)     =        -1.594745	     -91.372155
	 D(4,3,5,7)       =         3.093892	     177.266947
	 D(4,3,5,8)       =        -1.169582	     -67.012087
	 D(4,3,5,9)       =         0.971677	      55.673004
	 D(4,3,6,10)      =         0.617646	      35.388517
	 D(4,3,6,11)      =         2.634328	     150.935852
	 D(4,3,6,12)      =        -1.527149	     -87.499167
	 D(5,3,6,10)      =         2.699025	     154.642747
	 D(5,3,6,11)      =        -1.567479	     -89.809919
	 D(5,3,6,12)      =         0.554230	      31.755063
	 D(5,9,15,12)     =         0.530241	      30.380583
	 D(5,9,15,18)     =         2.672716	     153.135327
	 D(5,9,15,19)     =        -1.576139	     -90.306085
	 D(6,3,5,7)       =         1.010394	      57.891320
	 D(6,3,5,8)       =         3.030106	     173.612286
	 D(6,3,5,9)       =        -1.111821	     -63.702623
	 D(6,12,15,9)     =        -1.083925	     -62.104309
	 D(6,12,15,18)    =         3.062349	     175.459647
	 D(6,12,15,19)    =         1.031745	      59.114630
	 D(7,5,9,13)      =         0.563753	      32.300683
	 D(7,5,9,14)      =         2.589159	     148.347911
	 D(7,5,9,15)      =        -1.565256	     -89.682553
	 D(8,5,9,13)      =        -1.493307	     -85.560175
	 D(8,5,9,14)      =         0.532099	      30.487054
	 D(8,5,9,15)      =         2.660869	     152.456589
	 D(9,15,12,16)    =         3.058055	     175.213655
	 D(9,15,12,17)    =         1.027427	      58.867228
	 D(10,6,12,15)    =        -1.628784	     -93.322443
	 D(10,6,12,16)    =         0.517578	      29.655030
	 D(10,6,12,17)    =         2.551507	     146.190581
	 D(11,6,12,15)    =         2.605499	     149.284086
	 D(11,6,12,16)    =        -1.531325	     -87.738442
	 D(11,6,12,17)    =         0.502604	      28.797109
	 D(12,15,9,13)    =        -1.592082	     -91.219599
	 D(12,15,9,14)    =         2.664326	     152.654607
	 D(13,9,15,18)    =         0.550392	      31.535146
	 D(13,9,15,19)    =         2.584723	     148.093733
	 D(14,9,15,18)    =        -1.476385	     -84.590649
	 D(14,9,15,19)    =         0.557946	      31.967939
	 D(16,12,15,18)   =         0.921143	      52.777611
	 D(16,12,15,19)   =        -1.109461	     -63.567406
	 D(17,12,15,18)   =        -1.109485	     -63.568815
	 D(17,12,15,19)   =        -3.140089	    -179.913832

	Current energy   :      -309.1630124650

	Energy change for the previous step:
		Projected    :         0.0006614250
		Actual       :        -0.0000311125

	Performing BFGS update.
	Previous computed or guess Hessian on step 1.
	Steps to be used in Hessian update: 1
	Taking RFO optimization step.
	Going to follow RFO solution 1.
	Using RFO vector 1.
	Norm of target step-size    0.03380
	Projected energy change by RFO approximation:        -0.0000954566

	Back-transformation to cartesian coordinates...
	Successfully converged to displaced geometry.

	Back-transformation to cartesian coordinates to adjust frozen coordinates...
	Successfully converged to displaced geometry.

	--- Internal Coordinate Step in ANG or DEG, aJ/ANG or AJ/DEG ---
	 ---------------------------------------------------------------------------
	   Coordinate                Previous        Force       Change         New 
	   ----------                --------       ------       ------       ------
	    1 R(1,2)          =      0.939204    -0.000651    -0.000082     0.939123
	    2 R(2,3)          =      1.407528    -0.002321    -0.000146     1.407382
	    3 R(3,4)          =      1.088174    -0.000530    -0.000085     1.088089
	    4 R(3,5)          =      1.518261    -0.007394    -0.001178     1.517083
	    5 R(3,6)          =      1.535253     0.007669     0.001102     1.536355
	    6 R(5,7)          =      1.085481    -0.000310    -0.000033     1.085449
	    7 R(5,8)          =      1.082254     0.001145     0.000130     1.082384
	    8 R(5,9)          =      1.539354    -0.001595    -0.000302     1.539052
	    9 R(6,10)         =      1.086157     0.000219     0.000014     1.086171
	   10 R(6,11)         =      1.083432    -0.000229    -0.000054     1.083378
	   11 R(6,12)         =      1.539889    -0.004884    -0.000569     1.539319
	   12 R(9,13)         =      1.084165    -0.000647    -0.000076     1.084089
	   13 R(9,14)         =      1.084511     0.000102     0.000017     1.084528
	   14 R(9,15)         =      1.539348     0.001460     0.000316     1.539664
	   15 R(12,15)        =      1.525881     0.000167     0.000071     1.525951
	   16 R(12,16)        =      1.083636     0.000513     0.000064     1.083699
	   17 R(12,17)        =      1.085583     0.000161     0.000023     1.085605
	   18 R(15,18)        =      1.083848    -0.000173    -0.000019     1.083829
	   19 R(15,19)        =      1.086283     0.000379     0.000051     1.086334
	   20 B(1,2,3)        =    110.416352    -0.000049    -0.139016   110.277336
	   21 B(2,3,4)        =    108.897503    -0.000000    -0.000425   108.897079
	   22 B(2,3,5)        =    108.780697    -0.000058    -0.187009   108.593688
[...]
	 B(15,12,17)      =         1.898945	     108.801543
	 B(16,12,17)      =         1.854651	     106.263689
	 B(18,15,19)      =         1.853224	     106.181916
	*D(1,2,3,4)       =        -0.698131	     -39.999962
	 D(1,2,3,5)       =        -2.756543	    -157.938301
	 D(1,2,3,6)       =         1.396238	      79.998534
	 D(2,3,5,7)       =        -1.127947	     -64.626580
	 D(2,3,5,8)       =         0.892504	      51.136685
	 D(2,3,5,9)       =         3.033428	     173.802621
	 D(2,3,6,10)      =        -1.469458	     -84.193744
	 D(2,3,6,11)      =         0.547897	      31.392169
	 D(2,3,6,12)      =         2.670013	     152.980455
	 D(3,5,9,13)      =         2.659617	     152.384831
	 D(3,5,9,14)      =        -1.598443	     -91.584040
	 D(3,5,9,15)      =         0.531193	      30.435091
	 D(3,6,12,15)     =         0.502636	      28.798898
	 D(3,6,12,16)     =         2.649713	     151.817398
	 D(3,6,12,17)     =        -1.599204	     -91.627622
	 D(4,3,5,7)       =         3.092723	     177.199991
	 D(4,3,5,8)       =        -1.170012	     -67.036744
	 D(4,3,5,9)       =         0.970913	      55.629192
	 D(4,3,6,10)      =         0.624127	      35.759838
	 D(4,3,6,11)      =         2.641482	     151.345752
	 D(4,3,6,12)      =        -1.519588	     -87.065962
	 D(5,3,6,10)      =         2.705330	     155.003983
	 D(5,3,6,11)      =        -1.560501	     -89.410104
	 D(5,3,6,12)      =         0.561615	      32.178182
	 D(5,9,15,12)     =         0.534227	      30.608972
	 D(5,9,15,18)     =         2.676811	     153.369998
	 D(5,9,15,19)     =        -1.572359	     -90.089523
	 D(6,3,5,7)       =         1.006833	      57.687274
	 D(6,3,5,8)       =         3.027283	     173.450539
	 D(6,3,5,9)       =        -1.114978	     -63.883525
	 D(6,12,15,9)     =        -1.083529	     -62.081635
	 D(6,12,15,18)    =         3.062983	     175.496015
	 D(6,12,15,19)    =         1.032137	      59.137100
	 D(7,5,9,13)      =         0.562482	      32.227822
	 D(7,5,9,14)      =         2.587607	     148.258951
	 D(7,5,9,15)      =        -1.565943	     -89.721918
	 D(8,5,9,13)      =        -1.495611	     -85.692226
	 D(8,5,9,14)      =         0.529514	      30.338903
	 D(8,5,9,15)      =         2.659149	     152.358034
	 D(9,15,12,16)    =         3.057887	     175.204010
	 D(9,15,12,17)    =         1.026880	      58.835915
	 D(10,6,12,15)    =        -1.632932	     -93.560108
	 D(10,6,12,16)    =         0.514146	      29.458393
	 D(10,6,12,17)    =         2.548414	     146.013372
	 D(11,6,12,15)    =         2.600636	     149.005468
	 D(11,6,12,16)    =        -1.535471	     -87.976031
	 D(11,6,12,17)    =         0.498797	      28.578949
	 D(12,15,9,13)    =        -1.586878	     -90.921394
	 D(12,15,9,14)    =         2.669281	     152.938551
	 D(13,9,15,18)    =         0.555706	      31.839633
	 D(13,9,15,19)    =         2.589721	     148.380111
	 D(14,9,15,18)    =        -1.471320	     -84.300423
	 D(14,9,15,19)    =         0.562695	      32.240055
	 D(16,12,15,18)   =         0.921214	      52.781660
	 D(16,12,15,19)   =        -1.109632	     -63.577256
	 D(17,12,15,18)   =        -1.109793	     -63.586435
	 D(17,12,15,19)   =        -3.140639	    -179.945351

	Current energy   :      -309.1630253249

	Energy change for the previous step:
		Projected    :        -0.0000010008
		Actual       :        -0.0000002232
	Energy ratio indicates iffy step: Trust radius decreased to 3.125e-02.


	Performing BFGS update.
	Previous computed or guess Hessian on step 1.
	Steps to be used in Hessian update: 3 2
	Taking RFO optimization step.
	Going to follow RFO solution 1.
	Using RFO vector 1.
	Norm of target step-size    0.00302
	Projected energy change by RFO approximation:        -0.0000007780

	Back-transformation to cartesian coordinates...
	Successfully converged to displaced geometry.

	Back-transformation to cartesian coordinates to adjust frozen coordinates...
	Successfully converged to displaced geometry.

	--- Internal Coordinate Step in ANG or DEG, aJ/ANG or AJ/DEG ---
	 ---------------------------------------------------------------------------
	   Coordinate                Previous        Force       Change         New 
	   ----------                --------       ------       ------       ------
	    1 R(1,2)          =      0.939167     0.000131     0.000017     0.939184
	    2 R(2,3)          =      1.407427     0.000271     0.000039     1.407466
	    3 R(3,4)          =      1.088031     0.000037     0.000001     1.088032
	    4 R(3,5)          =      1.516968    -0.000065    -0.000012     1.516956
	    5 R(3,6)          =      1.536392     0.000227     0.000039     1.536431
	    6 R(5,7)          =      1.085453    -0.000030    -0.000004     1.085449
	    7 R(5,8)          =      1.082386     0.000021     0.000002     1.082388
	    8 R(5,9)          =      1.539213    -0.000194    -0.000016     1.539197
	    9 R(6,10)         =      1.086207    -0.000026    -0.000001     1.086206
	   10 R(6,11)         =      1.083375     0.000055     0.000009     1.083384
	   11 R(6,12)         =      1.539350    -0.000390    -0.000068     1.539282
	   12 R(9,13)         =      1.084105     0.000037     0.000008     1.084113
	   13 R(9,14)         =      1.084517    -0.000009    -0.000003     1.084515
	   14 R(9,15)         =      1.539430     0.000308     0.000033     1.539463
	   15 R(12,15)        =      1.525983     0.000018     0.000002     1.525985
	   16 R(12,16)        =      1.083673     0.000051     0.000005     1.083678
	   17 R(12,17)        =      1.085636    -0.000055    -0.000006     1.085630
	   18 R(15,18)        =      1.083833    -0.000029    -0.000004     1.083829
	   19 R(15,19)        =      1.086334     0.000012     0.000001     1.086336
	   20 B(1,2,3)        =    110.260665     0.000000     0.000415   110.261080
	   21 B(2,3,4)        =    108.862740     0.000001     0.002145   108.864884
	   22 B(2,3,5)        =    108.588245    -0.000001    -0.002417   108.585829
	   23 B(2,3,6)        =    111.156527    -0.000000    -0.001770   111.154757
	   24 B(3,5,7)        =    108.163453     0.000000     0.000550   108.164002
	   25 B(3,5,8)        =    109.462561     0.000001     0.005753   109.468314
	   26 B(3,5,9)        =    111.171171    -0.000001    -0.000517   111.170655
	   27 B(3,6,10)       =    109.272533     0.000001     0.001841   109.274373
	   28 B(3,6,11)       =    107.625635     0.000000     0.000610   107.626245
	   29 B(3,6,12)       =    112.806144     0.000001     0.000814   112.806958
	   30 B(4,3,5)        =    108.492094    -0.000000    -0.000223   108.491871
	   31 B(4,3,6)        =    108.938401    -0.000000     0.000397   108.938798
	   32 B(5,3,6)        =    110.744389     0.000001     0.001917   110.746306
	   33 B(5,9,13)       =    108.960762    -0.000000    -0.001519   108.959243
	   34 B(5,9,14)       =    109.823968    -0.000001    -0.004283   109.819685
	   35 B(5,9,15)       =    112.607829    -0.000001    -0.002026   112.605803
	   36 B(6,12,15)      =    111.303837    -0.000001    -0.005040   111.298797
	   37 B(6,12,16)      =    110.082963    -0.000000    -0.000002   110.082960
	   38 B(6,12,17)      =    109.636924     0.000000    -0.001974   109.634949
	   39 B(7,5,8)        =    106.590618    -0.000000    -0.000332   106.590287
	   40 B(7,5,9)        =    110.567165    -0.000000    -0.004150   110.563015
	   41 B(8,5,9)        =    110.745488     0.000000    -0.001174   110.744313
	   42 B(9,15,12)      =    111.104378     0.000001     0.000614   111.104993
	   43 B(9,15,18)      =    109.985386    -0.000000     0.000518   109.985904
	   44 B(9,15,19)      =    109.878327     0.000000     0.005608   109.883935
	   45 B(10,6,11)      =    106.773137     0.000000     0.002739   106.775877
	   46 B(10,6,12)      =    110.106516    -0.000001    -0.005137   110.101379
	   47 B(11,6,12)      =    110.049081    -0.000000    -0.000598   110.048483
	   48 B(12,15,18)     =    110.571400    -0.000001    -0.001618   110.569782
	   49 B(12,15,19)     =    108.993920    -0.000001    -0.004293   108.989627
	   50 B(13,9,14)      =    106.275755    -0.000000    -0.000110   106.275645
	   51 B(13,9,15)      =    109.700267     0.000001     0.003396   109.703663
	   52 B(14,9,15)      =    109.273940     0.000001     0.004640   109.278580
	   53 B(15,12,16)     =    110.612828     0.000001     0.008005   110.620833
	   54 B(15,12,17)     =    108.801543     0.000000    -0.001076   108.800467
	   55 B(16,12,17)     =    106.263689    -0.000000     0.000261   106.263950
	   56 B(18,15,19)     =    106.181916     0.000000    -0.000873   106.181043
	   57 *D(1,2,3,4)     =    -39.999962     0.000000     0.000000   -39.999962
	   58 D(1,2,3,5)      =   -157.938301     0.000000     0.000427  -157.937873
	   59 D(1,2,3,6)      =     79.998534    -0.000000     0.000778    79.999312
	   60 D(2,3,5,7)      =    -64.626580    -0.000000     0.001964   -64.624616
	   61 D(2,3,5,8)      =     51.136685     0.000000     0.004950    51.141635
	   62 D(2,3,5,9)      =    173.802621     0.000000     0.007072   173.809693
	   63 D(2,3,6,10)     =    -84.193744    -0.000000     0.017052   -84.176693
	   64 D(2,3,6,11)     =     31.392169     0.000000     0.021570    31.413739
	   65 D(2,3,6,12)     =    152.980455    -0.000000     0.021754   153.002208
	   66 D(3,5,9,13)     =    152.384831     0.000000    -0.033025   152.351806
	   67 D(3,5,9,14)     =    -91.584040    -0.000000    -0.036412   -91.620453
	   68 D(3,5,9,15)     =     30.435091    -0.000000    -0.034922    30.400169
	   69 D(3,6,12,15)    =     28.798898    -0.000000    -0.023184    28.775714
	   70 D(3,6,12,16)    =    151.817398     0.000000    -0.016448   151.800950
	   71 D(3,6,12,17)    =    -91.627622     0.000000    -0.017291   -91.644913
	   72 D(4,3,5,7)      =    177.199991    -0.000000     0.000880   177.200871
	   73 D(4,3,5,8)      =    -67.036744     0.000000     0.003866   -67.032878
	   74 D(4,3,5,9)      =     55.629192     0.000000     0.005988    55.635180
	   75 D(4,3,6,10)     =     35.759838    -0.000000     0.018867    35.778705
	   76 D(4,3,6,11)     =    151.345752     0.000000     0.023385   151.369137
	   77 D(4,3,6,12)     =    -87.065962     0.000000     0.023569   -87.042394
	   78 D(5,3,6,10)     =    155.003983    -0.000000     0.020002   155.023985
	   79 D(5,3,6,11)     =    -89.410104     0.000000     0.024520   -89.385584
	   80 D(5,3,6,12)     =     32.178182     0.000000     0.024704    32.202886
	   81 D(5,9,15,12)    =     30.608972     0.000000     0.037012    30.645984
	   82 D(5,9,15,18)    =    153.369998     0.000000     0.035735   153.405734
	   83 D(5,9,15,19)    =    -90.089523     0.000000     0.038272   -90.051251
	   84 D(6,3,5,7)      =     57.687274    -0.000000    -0.000615    57.686659
	   85 D(6,3,5,8)      =    173.450539     0.000000     0.002371   173.452911
	   86 D(6,3,5,9)      =    -63.883525     0.000000     0.004493   -63.879031
	   87 D(6,12,15,9)    =    -62.081635     0.000000    -0.008134   -62.089769
	   88 D(6,12,15,18)   =    175.496015    -0.000000    -0.008094   175.487921
	   89 D(6,12,15,19)   =     59.137100     0.000000    -0.003585    59.133514
	   90 D(7,5,9,13)     =     32.227822     0.000000    -0.030613    32.197209
	   91 D(7,5,9,14)     =    148.258951    -0.000000    -0.034000   148.224950
	   92 D(7,5,9,15)     =    -89.721918    -0.000000    -0.032510   -89.754428
	   93 D(8,5,9,13)     =    -85.692226     0.000000    -0.026864   -85.719090
	   94 D(8,5,9,14)     =     30.338903    -0.000000    -0.030252    30.308651
	   95 D(8,5,9,15)     =    152.358034     0.000000    -0.028762   152.329272
	   96 D(9,15,12,16)   =    175.204010     0.000000    -0.010260   175.193750
	   97 D(9,15,12,17)   =     58.835915    -0.000000    -0.014477    58.821437
	   98 D(10,6,12,15)   =    -93.560108    -0.000000    -0.022380   -93.582488
	   99 D(10,6,12,16)   =     29.458393    -0.000000    -0.015645    29.442748
	  100 D(10,6,12,17)   =    146.013372    -0.000000    -0.016488   145.996884
	  101 D(11,6,12,15)   =    149.005468    -0.000000    -0.022282   148.983186
	  102 D(11,6,12,16)   =    -87.976031     0.000000    -0.015546   -87.991577
	  103 D(11,6,12,17)   =     28.578949     0.000000    -0.016390    28.562559
	  104 D(12,15,9,13)   =    -90.921394     0.000000     0.037915   -90.883479
	  105 D(12,15,9,14)   =    152.938551    -0.000000     0.033481   152.972032
	  106 D(13,9,15,18)   =     31.839633     0.000000     0.036639    31.876271
	  107 D(13,9,15,19)   =    148.380111     0.000000     0.039175   148.419286
	  108 D(14,9,15,18)   =    -84.300423    -0.000000     0.032204   -84.268219
	  109 D(14,9,15,19)   =     32.240055    -0.000000     0.034741    32.274797
	  110 D(16,12,15,18)  =     52.781660    -0.000000    -0.010220    52.771440
	  111 D(16,12,15,19)  =    -63.577256     0.000000    -0.005711   -63.582967
	  112 D(17,12,15,18)  =    -63.586435    -0.000000    -0.014437   -63.600872
	  113 D(17,12,15,19)  =   -179.945351     0.000000    -0.009928  -179.955279
	 ---------------------------------------------------------------------------

  ==> Convergence Check <==

  Measures of convergence in internal coordinates in au.
  Criteria marked as inactive (o), active & met (*), and active & unmet ( ).
  ---------------------------------------------------------------------------------------------
   Step     Total Energy     Delta E     MAX Force     RMS Force      MAX Disp      RMS Disp   
  ---------------------------------------------------------------------------------------------
    Convergence Criteria    1.00e-06 *    3.00e-04 *             o    1.20e-03 *             o
  ---------------------------------------------------------------------------------------------
      4    -309.16302532   -2.23e-07 *    4.73e-05 *    9.67e-06 o    6.84e-04 *    2.84e-04 o  ~
  ---------------------------------------------------------------------------------------------


  **** Optimization is complete! (in 4 steps) ****

  ==> Optimization Summary <==

  Measures of convergence in internal coordinates in au.
  --------------------------------------------------------------------------------------------------------------- ~
   Step         Total Energy             Delta E       MAX Force       RMS Force        MAX Disp        RMS Disp  ~
  --------------------------------------------------------------------------------------------------------------- ~
      1    -309.162981352545   -309.162981352545      0.00157419      0.00036026      0.02363935      0.00745403  ~
      2    -309.163012465035     -0.000031112491      0.00093080      0.00021714      0.00898323      0.00317921  ~
      3    -309.163025101653     -0.000012636618      0.00012388      0.00002591      0.00152559      0.00047908  ~
      4    -309.163025324880     -0.000000223227      0.00004731      0.00000967      0.00068374      0.00028419  ~
  --------------------------------------------------------------------------------------------------------------- ~

	Writing optimization data to binary file.
	Final energy is   -309.1630253248798
	Final (previous) structure:
	Cartesian Geometry (in Angstrom)
	    H    -2.8216104237   0.2995758391  -0.6805607244
	    O    -2.3159702694  -0.1307705988  -0.0163586869
	    C    -0.9452581354  -0.0668076675  -0.3292597950
	    H    -0.8209655878  -0.2226919113  -1.3988686822
	    C    -0.2287597517  -1.1834813355   0.4061727161
	    C    -0.3536808181   1.3001582838   0.0474891276
	    H    -0.3136170877  -0.9957177195   1.4718893633
	    H    -0.7334067816  -2.1220677514   0.2165767758
	    C     1.2501853641  -1.2653637695  -0.0123876395
	    H    -0.5370517992   2.0046537508  -0.7586788452
	    H    -0.8959581969   1.6654602756   0.9113131147
	    C     1.1522546398   1.2331135635   0.3593572785
	    H     1.8258843982  -1.6796797986   0.8074886357
	    H     1.3602357969  -1.9565403829  -0.8408448963
	    C     1.8285942330   0.1039408046  -0.4127550592
	    H     1.6215385154   2.1836347491   0.1343483748
	    H     1.2976531992   1.0662941113   1.4222001731
	    H     2.8994664115   0.1167667473  -0.2461357422
	    H     1.6858073390   0.2683437324  -1.4770414668
	Saving final (previous) structure.
			--------------------------
			 OPTKING Finished Execution 
			--------------------------

    Final optimized geometry and variables:
    Molecular point group: c1
    Full point group: C1

    Geometry (in Angstrom), charge = 0, multiplicity = 1:

    H           -2.821610208199     0.299575816212    -0.680560672465
    O           -2.315970092495    -0.130770588767    -0.016358685700
    C           -0.945258063225    -0.066807662426    -0.329259769812
    H           -0.820965525084    -0.222691894293    -1.398868575418
    C           -0.228759734267    -1.183481245115     0.406172685053
    C           -0.353680791118     1.300158184521     0.047489123949
    H           -0.313617063705    -0.995717643485     1.471889250920
    H           -0.733406725549    -2.122067589374     0.216576759286
    C            1.250185268596    -1.265363672889    -0.012387638579
    H           -0.537051758234     2.004653597721    -0.758678787246
    H           -0.895958128530     1.665460148458     0.911313045130
    C            1.152254551858     1.233113469302     0.359357251017
    H            1.825884258799    -1.679679670327     0.807488574030
    H            1.360235693043    -1.956540233523    -0.840844832138
    C            1.828594093327     0.103940796680    -0.412755027663
    H            1.621538391573     2.183634582300     0.134348364531
    H            1.297653100118     1.066294029841     1.422200064482
    H            2.899466190092     0.116766738396    -0.246135723426
    H            1.685807210258     0.268343711912    -1.477041353988

	Cleaning optimization helper files.


Properties will be evaluated at   0.000000,   0.000000,   0.000000 Bohr

Properties computed using the  density matrix

  Nuclear Dipole Moment: (a.u.)
     X:     4.2712      Y:     0.5881      Z:    -0.4110

  Electronic Dipole Moment: (a.u.)
     X:    -3.9973      Y:    -0.3191      Z:    -0.0833

  Dipole Moment: (a.u.)
     X:     0.2739      Y:     0.2690      Z:    -0.4943     Total:     0.6259

  Dipole Moment: (Debye)
     X:     0.6962      Y:     0.6838      Z:    -1.2563     Total:     1.5908

  Quadrupole Moment: (Debye Ang)
    XX:   -46.2883     YY:   -45.2883     ZZ:   -43.6610
    XY:    -2.2774     XZ:     4.0476     YZ:    -0.4844

  Traceless Quadrupole Moment: (Debye Ang)
    XX:    -1.2091     YY:    -0.2091     ZZ:     1.4182
    XY:    -2.2774     XZ:     4.0476     YZ:    -0.4844

  Mulliken Charges: (a.u.)
   Center  Symbol    Alpha    Beta     Spin     Total
       1     H     0.39573  0.39573  0.00000  0.20853
       2     O     4.20099  4.20099  0.00000 -0.40198
       3     C     2.92543  2.92543  0.00000  0.14913
       4     H     0.46546  0.46546  0.00000  0.06908
       5     C     3.09749  3.09749  0.00000 -0.19497
       6     C     3.11644  3.11644  0.00000 -0.23288
       7     H     0.45315  0.45315  0.00000  0.09371
       8     H     0.44154  0.44154  0.00000  0.11691
       9     C     3.11319  3.11319  0.00000 -0.22639
      10     H     0.45396  0.45396  0.00000  0.09208
      11     H     0.44486  0.44486  0.00000  0.11028
      12     C     3.10058  3.10058  0.00000 -0.20115
      13     H     0.44725  0.44725  0.00000  0.10550
      14     H     0.44778  0.44778  0.00000  0.10443
      15     C     3.10278  3.10278  0.00000 -0.20555
      16     H     0.44283  0.44283  0.00000  0.11434
      17     H     0.45277  0.45277  0.00000  0.09446
      18     H     0.44294  0.44294  0.00000  0.11411
      19     H     0.45481  0.45481  0.00000  0.09037

   Total alpha = 28.00000, Total beta = 28.00000, Total charge = -0.00000


*** PSI4 exiting successfully. Buy a developer a beer!
