    -----------------------------------------------------------------------
          Psi4: An Open-Source Ab Initio Electronic Structure Package
                              Psi4 1.0.54 Driver

                          Git: Rev {master} 8d4cec3 dirty

    J. M. Turney, A. C. Simmonett, R. M. Parrish, E. G. Hohenstein,
    F. A. Evangelista, J. T. Fermann, B. J. Mintz, L. A. Burns, J. J. Wilke,
    M. L. Abrams, N. J. Russ, M. L. Leininger, C. L. Janssen, E. T. Seidl,
    W. D. Allen, H. F. Schaefer, R. A. King, E. F. Valeev, C. D. Sherrill,
    and T. D. Crawford, WIREs Comput. Mol. Sci. 2, 556-565 (2012)
    (doi: 10.1002/wcms.93)

                         Additional Contributions by
    A. E. DePrince, U. Bozkaya, A. Yu. Sokolov, D. G. A. Smith, R. Di Remigio,
    R. M. Richard, J. F. Gonthier, H. R. McAlexander, M. Saitow, and
    B. P. Pritchard
    -----------------------------------------------------------------------


    Psi4 started on: Sat Sep 10 18:40:53 2016

    Process ID:  41410
    PSI4DATADIR: /export131/home/mjharvey/miniconda3/share/psi4
    Memory level set to 256.000 MB

  ==> Input File <==

--------------------------------------------------------------------------
set {
	reference rhf
	basis cc-pvtz
}


set_num_threads( 4 )
memory 2 gb

molecule MOL {
0 1

O	 -1.278239	 1.034789	 -0.784693
C	 -1.204115	 0.062668	 -0.112312
C	 -2.386398	 -0.667698	 0.460323
O	 -0.068058	 -0.518372	 0.226882
H	 -2.382952	 -1.693172	 0.114333
H	 -3.296656	 -0.175702	 0.158400
H	 -2.312537	 -0.685191	 1.540100
C	 0.903508	 0.221280	 0.973727
C	 2.249413	 -0.392267	 0.643254
C	 0.570980	 0.161432	 2.453744
H	 0.870502	 1.246212	 0.636812
H	 2.445547	 -0.334561	 -0.419737
H	 3.036899	 0.137114	 1.166067
H	 2.280270	 -1.433651	 0.940748
H	 1.312532	 0.710800	 3.021896
H	 -0.397200	 0.601412	 2.647895
H	 0.566723	 -0.865573	 2.800913

	symmetry c1
}
set optking {
	frozen_dihedral = ("
		8 4 2 1
	")
}

ee,wfn = optimize('scf', return_wfn=True)
oeprop( wfn, 'DIPOLE', 'QUADRUPOLE', 'MULLIKEN_CHARGES')
f=open( 'psi4out.xyz', 'w' )
f.write( "17  " )
f.write( str(ee) + "\n" )
f.write( MOL.save_string_xyz() )
f.close()
--------------------------------------------------------------------------

  Memory set to   2.000 GiB by Python script.
gradient() will perform analytic gradient computation.

*** tstart() called on cx1-27-3-2
*** at Sat Sep 10 18:40:53 2016


         ---------------------------------------------------------
                                   SCF
            by Justin Turney, Rob Parrish, and Andy Simmonett
                              RHF Reference
                        4 Threads,   2000 MiB Core
         ---------------------------------------------------------

  ==> Geometry <==

    Molecular point group: c1
    Full point group: C1

    Geometry (in Angstrom), charge = 0, multiplicity = 1:

       Center              X                  Y                   Z               Mass       
    ------------   -----------------  -----------------  -----------------  -----------------
           O         -1.103909198757     1.050727269881    -1.341270271236    15.994914619560
           C         -1.029785198757     0.078606269881    -0.668889271236    12.000000000000
           C         -2.212068198757    -0.651759730119    -0.096254271236    12.000000000000
           O          0.106271801243    -0.502433730119    -0.329695271236    15.994914619560
           H         -2.208622198757    -1.677233730119    -0.442244271236     1.007825032070
           H         -3.122326198757    -0.159763730119    -0.398177271236     1.007825032070
           H         -2.138207198757    -0.669252730119     0.983522728764     1.007825032070
           C          1.077837801243     0.237218269881     0.417149728764    12.000000000000
           C          2.423742801243    -0.376328730119     0.086676728764    12.000000000000
           C          0.745309801243     0.177370269881     1.897166728764    12.000000000000
           H          1.044831801243     1.262150269881     0.080234728764     1.007825032070
           H          2.619876801243    -0.318622730119    -0.976314271236     1.007825032070
           H          3.211228801243     0.153052269881     0.609489728764     1.007825032070
           H          2.454599801243    -1.417712730119     0.384170728764     1.007825032070
           H          1.486861801243     0.726738269881     2.465318728764     1.007825032070
           H         -0.222870198757     0.617350269881     2.091317728764     1.007825032070
           H          0.741052801243    -0.849634730119     2.244335728764     1.007825032070

  Running in c1 symmetry.

  Rotational constants: A =      0.15179  B =      0.05794  C =      0.05078 [cm^-1]
  Rotational constants: A =   4550.53328  B =   1736.92172  C =   1522.24035 [MHz]
  Nuclear repulsion =  323.685268074994838

  Charge       = 0
  Multiplicity = 1
  Electrons    = 56
  Nalpha       = 28
  Nbeta        = 28

  ==> Algorithm <==

  SCF Algorithm Type is DF.
  DIIS enabled.
  MOM disabled.
  Fractional occupation disabled.
  Guess Type is SAD.
  Energy threshold   = 1.00e-08
  Density threshold  = 1.00e-08
  Integral threshold = 0.00e+00

  ==> Primary Basis <==

  Basis Set: CC-PVTZ
    Number of shells: 130
    Number of basis function: 350
    Number of Cartesian functions: 395
    Spherical Harmonics?: true
    Max angular momentum: 3

  ==> Pre-Iterations <==

   -------------------------------------------------------
    Irrep   Nso     Nmo     Nalpha   Nbeta   Ndocc  Nsocc
   -------------------------------------------------------
     A        350     350       0       0       0       0
   -------------------------------------------------------
    Total     350     350      28      28      28       0
   -------------------------------------------------------

  ==> Integral Setup <==

  ==> DFJK: Density-Fitted J/K Matrices <==

    J tasked:                  Yes
    K tasked:                  Yes
    wK tasked:                  No
    OpenMP threads:              4
    Integrals threads:           4
    Memory (MB):              1430
    Algorithm:                Core
    Integral Cache:           NONE
    Schwarz Cutoff:          1E-12
    Fitting Condition:       1E-12

   => Auxiliary Basis Set <=

  Basis Set: 
    Number of shells: 275
    Number of basis function: 853
    Number of Cartesian functions: 1022
    Spherical Harmonics?: true
    Max angular momentum: 4

  Minimum eigenvalue in the overlap matrix is 6.0307370986E-04.
  Using Symmetric Orthogonalization.
  SCF Guess: Superposition of Atomic Densities via on-the-fly atomic UHF.

  ==> Iterations <==

                           Total Energy        Delta E     RMS |[F,P]|

   @DF-RHF iter   0:  -347.89695439587308   -3.47897e+02   1.45996e-02 
   @DF-RHF iter   1:  -344.78976862987452    3.10719e+00   1.78122e-03 
   @DF-RHF iter   2:  -344.96465161339665   -1.74883e-01   1.14510e-03 DIIS
   @DF-RHF iter   3:  -345.02038196966828   -5.57304e-02   2.69551e-04 DIIS
   @DF-RHF iter   4:  -345.02790152769489   -7.51956e-03   9.53785e-05 DIIS
   @DF-RHF iter   5:  -345.02881757584873   -9.16048e-04   3.71244e-05 DIIS
   @DF-RHF iter   6:  -345.02899057194327   -1.72996e-04   1.50622e-05 DIIS
   @DF-RHF iter   7:  -345.02902285186599   -3.22799e-05   5.16150e-06 DIIS
   @DF-RHF iter   8:  -345.02902661632390   -3.76446e-06   1.49022e-06 DIIS
   @DF-RHF iter   9:  -345.02902699215258   -3.75829e-07   3.65481e-07 DIIS
   @DF-RHF iter  10:  -345.02902701760263   -2.54500e-08   1.11177e-07 DIIS
   @DF-RHF iter  11:  -345.02902702022777   -2.62514e-09   4.70538e-08 DIIS
   @DF-RHF iter  12:  -345.02902702071242   -4.84647e-10   2.05582e-08 DIIS
   @DF-RHF iter  13:  -345.02902702082747   -1.15051e-10   8.04822e-09 DIIS

  ==> Post-Iterations <==

    Orbital Energies (a.u.)
    -----------------------

    Doubly Occupied:                                                      

       1A    -20.577764     2A    -20.537818     3A    -11.366877  
       4A    -11.296618     5A    -11.229916     6A    -11.224833  
       7A    -11.218853     8A     -1.464085     9A     -1.365860  
      10A     -1.080224    11A     -1.008900    12A     -0.954529  
      13A     -0.851128    14A     -0.770387    15A     -0.696505  
      16A     -0.672354    17A     -0.661849    18A     -0.623073  
      19A     -0.587548    20A     -0.579692    21A     -0.566857  
      22A     -0.553607    23A     -0.549039    24A     -0.522025  
      25A     -0.499814    26A     -0.488881    27A     -0.449748  
      28A     -0.437490  

    Virtual:                                                              

      29A      0.132253    30A      0.158186    31A      0.170390  
      32A      0.183083    33A      0.184126    34A      0.198812  
      35A      0.216539    36A      0.222101    37A      0.231485  
      38A      0.244589    39A      0.261917    40A      0.277807  
      41A      0.298230    42A      0.329545    43A      0.342542  
      44A      0.359757    45A      0.372653    46A      0.391584  
      47A      0.408433    48A      0.416370    49A      0.423743  
      50A      0.440152    51A      0.477885    52A      0.491854  
      53A      0.517017    54A      0.549148    55A      0.576943  
      56A      0.582393    57A      0.595665    58A      0.610292  
      59A      0.617708    60A      0.626458    61A      0.628214  
      62A      0.632011    63A      0.647419    64A      0.652592  
      65A      0.655680    66A      0.662612    67A      0.668995  
      68A      0.682276    69A      0.697204    70A      0.706540  
      71A      0.732360    72A      0.747938    73A      0.790418  
      74A      0.796308    75A      0.830956    76A      0.841629  
      77A      0.867393    78A      0.884460    79A      0.907558  
      80A      0.916019    81A      0.955694    82A      0.963252  
      83A      0.974214    84A      1.001817    85A      1.029983  
      86A      1.060317    87A      1.073547    88A      1.077291  
      89A      1.097427    90A      1.119704    91A      1.124319  
      92A      1.135458    93A      1.148817    94A      1.188848  
      95A      1.196335    96A      1.204695    97A      1.217957  
      98A      1.220252    99A      1.253564   100A      1.256071  
     101A      1.273723   102A      1.290218   103A      1.308235  
     104A      1.320653   105A      1.332649   106A      1.349800  
     107A      1.373837   108A      1.382671   109A      1.400351  
     110A      1.415973   111A      1.430394   112A      1.448083  
     113A      1.464538   114A      1.486426   115A      1.490679  
     116A      1.495540   117A      1.508420   118A      1.531917  
     119A      1.535304   120A      1.552493   121A      1.561482  
     122A      1.576629   123A      1.594044   124A      1.603057  
     125A      1.632968   126A      1.664008   127A      1.672056  
     128A      1.682363   129A      1.710154   130A      1.728826  
     131A      1.753328   132A      1.794624   133A      1.810291  
     134A      1.826787   135A      1.848457   136A      1.887926  
     137A      1.964433   138A      1.975920   139A      2.038934  
     140A      2.064150   141A      2.164791   142A      2.267405  
     143A      2.272956   144A      2.340683   145A      2.381841  
     146A      2.393024   147A      2.463698   148A      2.494208  
     149A      2.507250   150A      2.568537   151A      2.619643  
     152A      2.629007   153A      2.653652   154A      2.664247  
     155A      2.689145   156A      2.728271   157A      2.749465  
     158A      2.777947   159A      2.797477   160A      2.820915  
     161A      2.837504   162A      2.853455   163A      2.862576  
     164A      2.897054   165A      2.906690   166A      2.920606  
     167A      2.934515   168A      2.964583   169A      2.988628  
     170A      3.020669   171A      3.054378   172A      3.082247  
     173A      3.105473   174A      3.108399   175A      3.115345  
     176A      3.122378   177A      3.130137   178A      3.156026  
     179A      3.187898   180A      3.192128   181A      3.218088  
     182A      3.242502   183A      3.253863   184A      3.265023  
     185A      3.274075   186A      3.296549   187A      3.301722  
     188A      3.330857   189A      3.344848   190A      3.360067  
     191A      3.366259   192A      3.383786   193A      3.403928  
     194A      3.405974   195A      3.424254   196A      3.432949  
     197A      3.439167   198A      3.456691   199A      3.471264  
     200A      3.498996   201A      3.517861   202A      3.544140  
     203A      3.577887   204A      3.600186   205A      3.616557  
     206A      3.630264   207A      3.641389   208A      3.654957  
     209A      3.669932   210A      3.681568   211A      3.684284  
     212A      3.701905   213A      3.721760   214A      3.739460  
     215A      3.757225   216A      3.765856   217A      3.791648  
     218A      3.806269   219A      3.809837   220A      3.816571  
     221A      3.839120   222A      3.853164   223A      3.873542  
     224A      3.903220   225A      3.931677   226A      3.933892  
     227A      3.960771   228A      3.978722   229A      4.016201  
     230A      4.053161   231A      4.074556   232A      4.082419  
     233A      4.103937   234A      4.130403   235A      4.137725  
     236A      4.142321   237A      4.159366   238A      4.175086  
     239A      4.200748   240A      4.217788   241A      4.245697  
     242A      4.254357   243A      4.267577   244A      4.272882  
     245A      4.282668   246A      4.301959   247A      4.319635  
     248A      4.336665   249A      4.362777   250A      4.364491  
     251A      4.383857   252A      4.399470   253A      4.416142  
     254A      4.416608   255A      4.443488   256A      4.467489  
     257A      4.479549   258A      4.482210   259A      4.506307  
     260A      4.523832   261A      4.552606   262A      4.592365  
     263A      4.624098   264A      4.642995   265A      4.650523  
     266A      4.676902   267A      4.706806   268A      4.707705  
     269A      4.732244   270A      4.745612   271A      4.767868  
     272A      4.810561   273A      4.824767   274A      4.898546  
     275A      4.923770   276A      4.934512   277A      4.945525  
     278A      5.005776   279A      5.103646   280A      5.131901  
     281A      5.165095   282A      5.182144   283A      5.200900  
     284A      5.216804   285A      5.238385   286A      5.243916  
     287A      5.272569   288A      5.315103   289A      5.339777  
     290A      5.374716   291A      5.431383   292A      5.484780  
     293A      5.498358   294A      5.516748   295A      5.522415  
     296A      5.534432   297A      5.553407   298A      5.560938  
     299A      5.589705   300A      5.607310   301A      5.628286  
     302A      5.637734   303A      5.668202   304A      5.683200  
     305A      5.695758   306A      5.711792   307A      5.730087  
     308A      5.732351   309A      5.738955   310A      5.743306  
     311A      5.800623   312A      5.832885   313A      5.851930  
     314A      5.926242   315A      5.934592   316A      5.966262  
     317A      6.067481   318A      6.123565   319A      6.158245  
     320A      6.220177   321A      6.243078   322A      6.268206  
     323A      6.291774   324A      6.298875   325A      6.323288  
     326A      6.410229   327A      6.505615   328A      6.703673  
     329A      6.771566   330A      6.824784   331A      6.856813  
     332A      6.908414   333A      6.940740   334A      6.974714  
     335A      7.234425   336A      7.299757   337A      7.386362  
     338A      7.465166   339A      7.580044   340A      7.660106  
     341A      7.736734   342A      7.918852   343A      7.946522  
     344A     10.008892   345A     12.261123   346A     12.635076  
     347A     14.264718   348A     14.380103   349A     14.443656  
     350A     14.583347  

    Final Occupation by Irrep:
              A 
    DOCC [    28 ]

  Energy converged.

  @DF-RHF Final Energy:  -345.02902702082747

   => Energetics <=

    Nuclear Repulsion Energy =            323.6852680749948377
    One-Electron Energy =               -1111.7560464938962923
    Two-Electron Energy =                 443.0417513980738704
    DFT Exchange-Correlation Energy =       0.0000000000000000
    Empirical Dispersion Energy =           0.0000000000000000
    PCM Polarization Energy =               0.0000000000000000
    EFP Energy =                            0.0000000000000000
    Total Energy =                       -345.0290270208275842


  Saving occupied orbitals to File 180.

*** tstop() called on cx1-27-3-2 at Sat Sep 10 18:41:04 2016
Module time:
	user time   =      35.18 seconds =       0.59 minutes
	system time =       0.79 seconds =       0.01 minutes
	total time  =         11 seconds =       0.18 minutes
Total time:
	user time   =      35.18 seconds =       0.59 minutes
	system time =       0.79 seconds =       0.01 minutes
	total time  =         11 seconds =       0.18 minutes


Properties will be evaluated at   0.000000,   0.000000,   0.000000 Bohr

Properties computed using the SCF density matrix

  Nuclear Dipole Moment: (a.u.)
     X:     3.6199      Y:    -2.1844      Z:     6.5933

  Electronic Dipole Moment: (a.u.)
     X:    -3.3581      Y:     1.6651      Z:    -5.5573

  Dipole Moment: (a.u.)
     X:     0.2618      Y:    -0.5193      Z:     1.0360     Total:     1.1881

  Dipole Moment: (Debye)
     X:     0.6653      Y:    -1.3199      Z:     2.6333     Total:     3.0198


*** tstart() called on cx1-27-3-2
*** at Sat Sep 10 18:41:04 2016


         ------------------------------------------------------------
                                   SCF GRAD                          
                          Rob Parrish, Justin Turney,                
                       Andy Simmonett, and Alex Sokolov              
         ------------------------------------------------------------

  ==> Geometry <==

    Molecular point group: c1
    Full point group: C1

    Geometry (in Angstrom), charge = 0, multiplicity = 1:

       Center              X                  Y                   Z               Mass       
    ------------   -----------------  -----------------  -----------------  -----------------
           O         -1.103909198757     1.050727269881    -1.341270271236    15.994914619560
           C         -1.029785198757     0.078606269881    -0.668889271236    12.000000000000
           C         -2.212068198757    -0.651759730119    -0.096254271236    12.000000000000
           O          0.106271801243    -0.502433730119    -0.329695271236    15.994914619560
           H         -2.208622198757    -1.677233730119    -0.442244271236     1.007825032070
           H         -3.122326198757    -0.159763730119    -0.398177271236     1.007825032070
           H         -2.138207198757    -0.669252730119     0.983522728764     1.007825032070
           C          1.077837801243     0.237218269881     0.417149728764    12.000000000000
           C          2.423742801243    -0.376328730119     0.086676728764    12.000000000000
           C          0.745309801243     0.177370269881     1.897166728764    12.000000000000
           H          1.044831801243     1.262150269881     0.080234728764     1.007825032070
           H          2.619876801243    -0.318622730119    -0.976314271236     1.007825032070
           H          3.211228801243     0.153052269881     0.609489728764     1.007825032070
           H          2.454599801243    -1.417712730119     0.384170728764     1.007825032070
           H          1.486861801243     0.726738269881     2.465318728764     1.007825032070
           H         -0.222870198757     0.617350269881     2.091317728764     1.007825032070
           H          0.741052801243    -0.849634730119     2.244335728764     1.007825032070

  Nuclear repulsion =  323.685268074994838

  ==> Basis Set <==

  Basis Set: CC-PVTZ
    Number of shells: 130
    Number of basis function: 350
    Number of Cartesian functions: 395
    Spherical Harmonics?: true
    Max angular momentum: 3

  ==> DFJKGrad: Density-Fitted SCF Gradients <==

    Gradient:                    1
    J tasked:                  Yes
    K tasked:                  Yes
    wK tasked:                  No
    OpenMP threads:              4
    Integrals threads:           4
    Memory (MB):              1430
    Schwarz Cutoff:          0E+00
    Fitting Condition:       1E-12

   => Auxiliary Basis Set <=

  Basis Set: 
    Number of shells: 275
    Number of basis function: 853
    Number of Cartesian functions: 1022
    Spherical Harmonics?: true
    Max angular momentum: 4


  -Total Gradient:
     Atom            X                  Y                   Z
    ------   -----------------  -----------------  -----------------
       1       -0.003418587347     0.004796877737    -0.007346014085
       2        0.014162187635    -0.008526984281     0.003785191791
       3        0.004646296333    -0.001103059285     0.006510203296
       4       -0.010697137941     0.005681264696    -0.009839435468
       5       -0.000054993953     0.000433235842    -0.000249472345
       6        0.001434693850     0.001046583784    -0.000112656286
       7       -0.000613455411    -0.000028794523     0.000431139218
       8       -0.004759003358     0.000913719991     0.007122985675
       9       -0.001414597504    -0.002052570773    -0.000421319763
      10       -0.001519923974     0.001713162584     0.000932999635
      11       -0.000814413910    -0.001198843473     0.001672092798
      12        0.000775318502    -0.000242322910    -0.000510412390
      13       -0.000459098036     0.000200235709    -0.000201260850
      14        0.000597896234    -0.000094894265    -0.000177569100
      15        0.000520256231    -0.000373609711     0.000154004828
      16        0.000903144895    -0.000680021810    -0.001648358875
      17        0.000711417753    -0.000483979313    -0.000102118083


*** tstop() called on cx1-27-3-2 at Sat Sep 10 18:41:12 2016
Module time:
	user time   =      30.22 seconds =       0.50 minutes
	system time =       0.59 seconds =       0.01 minutes
	total time  =          8 seconds =       0.13 minutes
Total time:
	user time   =      65.53 seconds =       1.09 minutes
	system time =       1.39 seconds =       0.02 minutes
	total time  =         19 seconds =       0.32 minutes

			-----------------------------------------
			 OPTKING 2.0: for geometry optimizations 
			  - R.A. King,  Bethel University        
			-----------------------------------------

	Internal coordinates to be generated automatically.
	Detected frag 1 with atoms:  1 2 3 4 5 6 7 8 9 10 11 12 13 14 15 16 17
	---Fragment 1 Bond Connectivity---
	 1 : 2
	 2 : 1 3 4
	 3 : 2 5 6 7
	 4 : 2 8
	 5 : 3
	 6 : 3
	 7 : 3
	 8 : 4 9 10 11
	 9 : 8 12 13 14
	 10 : 8 15 16 17
	 11 : 8
	 12 : 9
	 13 : 9
	 14 : 9
	 15 : 10
	 16 : 10
	 17 : 10

	Assuming in current code that numbering for constraints corresponds to unified fragment.
	Frozen dihedral atom list: 
	     8     4     2     1
	---Fragment 1 Geometry and Gradient---
	 O          -2.0860860612        1.9855867804       -2.5346334828
	 C          -1.9460120014        0.1485443224       -1.2640175359
	 C          -4.1802030829       -1.2316473944       -0.1818942118
	 O           0.2008246000       -0.9494621498       -0.6230337699
	 H          -4.1736910867       -3.1695124108       -0.8357205565
	 H          -5.9003414132       -0.3019096959       -0.7524459950
	 H          -4.0406260210       -1.2647043736        1.8585886028
	 C           2.0368182600        0.4482775638        0.7882987438
	 C           4.5802101109       -0.7111582359        0.1637952795
	 C           1.4084314085        0.3351812342        3.5851255458
	 H           1.9744459593        2.3851183486        0.1516216637
	 H           4.9508496562       -0.6021096996       -1.8449665923
	 H           6.0683429844        0.2892268741        1.1517686682
	 H           4.6385213902       -2.6790887950        0.7259774656
	 H           2.8097616018        1.3733363004        4.6587772276
	 H          -0.4211636388        1.1666229381        3.9520177642
	 H           1.4003868444       -1.6055769529        4.2411798776
	            -0.0034185873        0.0047968777       -0.0073460141
	             0.0141621876       -0.0085269843        0.0037851918
	             0.0046462963       -0.0011030593        0.0065102033
	            -0.0106971379        0.0056812647       -0.0098394355
	            -0.0000549940        0.0004332358       -0.0002494723
	             0.0014346938        0.0010465838       -0.0001126563
	            -0.0006134554       -0.0000287945        0.0004311392
	            -0.0047590034        0.0009137200        0.0071229857
	            -0.0014145975       -0.0020525708       -0.0004213198
	            -0.0015199240        0.0017131626        0.0009329996
	            -0.0008144139       -0.0011988435        0.0016720928
	             0.0007753185       -0.0002423229       -0.0005104124
	            -0.0004590980        0.0002002357       -0.0002012609
	             0.0005978962       -0.0000948943       -0.0001775691
	             0.0005202562       -0.0003736097        0.0001540048
	             0.0009031449       -0.0006800218       -0.0016483589
	             0.0007114178       -0.0004839793       -0.0001021181

	Previous optimization step data not found.  Starting new optimization.

	---Fragment 1 Intrafragment Coordinates---
	 - Coordinate -           - BOHR/RAD -       - ANG/DEG -
	 R(1,2)           =         2.238037	       1.184318
	 R(2,3)           =         2.840340	       1.503043
	 R(2,4)           =         2.495072	       1.320335
	 R(3,5)           =         2.045202	       1.082274
	 R(3,6)           =         2.036865	       1.077862
	 R(3,7)           =         2.045518	       1.082442
	 R(4,8)           =         2.704886	       1.431364
	 R(8,9)           =         2.864112	       1.515623
	 R(8,10)          =         2.868780	       1.518093
	 R(8,11)          =         2.039755	       1.079392
	 R(9,12)          =         2.045578	       1.082473
	 R(9,13)          =         2.047291	       1.083380
	 R(9,14)          =         2.047486	       1.083483
	 R(10,15)         =         2.047980	       1.083744
	 R(10,16)         =         2.042871	       1.081041
	 R(10,17)         =         2.048662	       1.084105
	 B(1,2,3)         =         2.172354	     124.466742
	 B(1,2,4)         =         2.166300	     124.119833
	 B(2,3,5)         =         1.913593	     109.640776
	 B(2,3,6)         =         1.913207	     109.618679
	 B(2,3,7)         =         1.911579	     109.525429
	 B(2,4,8)         =         2.083658	     119.384788
	 B(3,2,4)         =         1.944529	     111.413305
	 B(4,8,9)         =         1.854388	     106.248593
	 B(4,8,10)        =         1.917323	     109.854522
	 B(4,8,11)        =         1.882894	     107.881896
	 B(5,3,6)         =         1.923717	     110.220851
	 B(5,3,7)         =         1.879025	     107.660193
	 B(6,3,7)         =         1.922423	     110.146699
	 B(8,9,12)        =         1.932043	     110.697905
	 B(8,9,13)        =         1.920322	     110.026374
	 B(8,9,14)        =         1.933184	     110.763256
	 B(8,10,15)       =         1.919027	     109.952173
	 B(8,10,16)       =         1.933948	     110.807035
	 B(8,10,17)       =         1.928806	     110.512419
	 B(9,8,10)        =         1.972657	     113.024913
	 B(9,8,11)        =         1.921422	     110.089379
	 B(10,8,11)       =         1.912445	     109.575054
	 B(12,9,13)       =         1.892452	     108.429519
	 B(12,9,14)       =         1.891999	     108.403562
	 B(13,9,14)       =         1.892780	     108.448331
	 B(15,10,16)      =         1.888460	     108.200764
	 B(15,10,17)      =         1.891275	     108.362078
	 B(16,10,17)      =         1.901311	     108.937108
	 D(1,2,3,5)       =         2.121353	     121.544599
	 D(1,2,3,6)       =         0.007423	       0.425282
	 D(1,2,3,7)       =        -2.103642	    -120.529829
	*D(1,2,4,8)       =         1.047197	      59.999959
	 D(2,4,8,9)       =        -2.679807	    -153.541615
	 D(2,4,8,10)      =         1.464054	      83.884108
	 D(2,4,8,11)      =        -0.619753	     -35.509240
	 D(3,2,4,8)       =        -2.096516	    -120.121544
	 D(4,2,3,5)       =        -1.018110	     -58.333396
	 D(4,2,3,6)       =        -3.132041	    -179.452713
	 D(4,2,3,7)       =         1.040080	      59.592176
	 D(4,8,9,12)      =         1.032094	      59.134633
	 D(4,8,9,13)      =         3.123506	     178.963696
	 D(4,8,9,14)      =        -1.067132	     -61.142155
	 D(4,8,10,15)     =         3.129472	     179.305510
	 D(4,8,10,16)     =        -1.066892	     -61.128394
	 D(4,8,10,17)     =         1.042401	      59.725188
	 D(9,8,10,15)     =         1.061776	      60.835297
	 D(9,8,10,16)     =        -3.134587	    -179.598607
	 D(9,8,10,17)     =        -1.025294	     -58.745024
	 D(10,8,9,12)     =         3.136039	     179.681774
	 D(10,8,9,13)     =        -1.055735	     -60.489163
	 D(10,8,9,14)     =         1.036813	      59.404986
	 D(11,8,9,12)     =        -1.002272	     -57.425957
	 D(11,8,9,13)     =         1.089140	      62.403106
	 D(11,8,9,14)     =        -3.101498	    -177.702745
	 D(11,8,10,15)    =        -1.088077	     -62.342230
	 D(11,8,10,16)    =         0.998745	      57.223866
	 D(11,8,10,17)    =         3.108038	     178.077449
	 R(3,10)          =         6.919409	       3.661594

	Current energy   :      -345.0290270208

	Generating empirical Hessian (Schlegel '84) for each fragment.
	Taking RFO optimization step.
	Going to follow RFO solution 1.
	Using RFO vector 1.

	Determining step-restricting scale parameter for RS-RFO.
	Maximum step size allowed    0.50000

	 Iter      |step|        alpha        rfo_root  
	------------------------------------------------
	    0     0.61559       1.00000           1
	    1     0.52627       1.47502           1
	    2     0.50191       1.65391           1
	    3     0.50001       1.66899           1
	    4     0.50000       1.66908           1
	------------------------------------------------
	Norm of target step-size    0.50000
	Projected energy change by RFO approximation:        -0.0023963597

	Back-transformation to cartesian coordinates...
	Could not converge backtransformation.
	Using first guess instead.

	Back-transformation to cartesian coordinates to adjust frozen coordinates...
	Successfully converged to displaced geometry.

	--- Internal Coordinate Step in ANG or DEG, aJ/ANG or AJ/DEG ---
	 ---------------------------------------------------------------------------
	   Coordinate                Previous        Force       Change         New 
	   ----------                --------       ------       ------       ------
	    1 R(1,2)          =      1.184318    -0.068562     0.106799     1.291117
	    2 R(2,3)          =      1.503043    -0.000572     0.107432     1.610475
	    3 R(2,4)          =      1.320335     0.110780     0.047424     1.367759
	    4 R(3,5)          =      1.082274     0.002726     0.124851     1.207125
	    5 R(3,6)          =      1.077862     0.005786     0.019815     1.097677
	    6 R(3,7)          =      1.082442    -0.003202     0.113845     1.196287
	    7 R(4,8)          =      1.431364    -0.017930     0.047956     1.479320
	    8 R(8,9)          =      1.515623    -0.005995     0.055602     1.571224
	    9 R(8,10)         =      1.518093    -0.004014     0.144176     1.662269
	   10 R(8,11)         =      1.079392     0.013473     0.107149     1.186541
	   11 R(9,12)         =      1.082473    -0.005180     0.101766     1.184239
	   12 R(9,13)         =      1.083380     0.002743     0.033009     1.116389
	   13 R(9,14)         =      1.083483    -0.000490     0.104997     1.188480
	   14 R(10,15)        =      1.083744    -0.002038     0.037329     1.121073
	   15 R(10,16)        =      1.081041     0.011383     0.042332     1.123373
	   16 R(10,17)        =      1.084105    -0.003485     0.105552     1.189657
	   17 B(1,2,3)        =    124.466742    -0.000016     4.098245   128.564987
	   18 B(1,2,4)        =    124.119833    -0.000483    -0.855238   123.264595
	   19 B(2,3,5)        =    109.640776    -0.000014     0.997892   110.638667
	   20 B(2,3,6)        =    109.618679     0.000196    -3.877981   105.740699
	   21 B(2,3,7)        =    109.525429    -0.000098     2.816470   112.341899
	   22 B(2,4,8)        =    119.384788    -0.000335    -5.391757   113.993031
	   23 B(3,2,4)        =    111.413305     0.000499    -4.626357   106.786948
	   24 B(4,8,9)        =    106.248593     0.000265    -3.912215   102.336378
	   25 B(4,8,10)       =    109.854522    -0.000366    -0.647504   109.207018
	   26 B(4,8,11)       =    107.881896     0.000035     1.896698   109.778594
	   27 B(5,3,6)        =    110.220851    -0.000068     1.386927   111.607778
	   28 B(5,3,7)        =    107.660193    -0.000007     0.133559   107.793752
	   29 B(6,3,7)        =    110.146699    -0.000014    -1.397702   108.748997
	   30 B(8,9,12)       =    110.697905    -0.000074     1.560069   112.257974
	   31 B(8,9,13)       =    110.026374     0.000067    -4.549592   105.476782
	   32 B(8,9,14)       =    110.763256    -0.000067     0.368936   111.132192
	   33 B(8,10,15)      =    109.952173    -0.000028     0.758720   110.710893
	   34 B(8,10,16)      =    110.807035     0.000135     2.110159   112.917194
	   35 B(8,10,17)      =    110.512419     0.000029     0.186586   110.699005
	   36 B(9,8,10)       =    113.024913     0.000114     2.038593   115.063507
	   37 B(9,8,11)       =    110.089379    -0.000139     0.206530   110.295909
	   38 B(10,8,11)      =    109.575054     0.000087     0.284919   109.859974
	   39 B(12,9,13)      =    108.429519     0.000019     0.723495   109.153014
	   40 B(12,9,14)      =    108.403562     0.000054     0.037954   108.441516
	   41 B(13,9,14)      =    108.448331     0.000005     1.900638   110.348969
	   42 B(15,10,16)     =    108.200764    -0.000076    -5.454525   102.746239
	   43 B(15,10,17)     =    108.362078     0.000011     1.592611   109.954688
	   44 B(16,10,17)     =    108.937108    -0.000076     0.599812   109.536920
	   45 D(1,2,3,5)      =    121.544599    -0.000019    -5.817968   115.726631
	   46 D(1,2,3,6)      =      0.425282    -0.000026    -5.695834    -5.270553
	   47 D(1,2,3,7)      =   -120.529829    -0.000036    -3.223003  -123.752832
	   48 *D(1,2,4,8)     =     59.999959    -0.000000     0.000000    59.999959
	   49 D(2,4,8,9)      =   -153.541615    -0.000019    -8.442571  -161.984187
	   50 D(2,4,8,10)     =     83.884108    -0.000039    -8.238344    75.645764
	   51 D(2,4,8,11)     =    -35.509240    -0.000020    -9.347494   -44.856734
	   52 D(3,2,4,8)      =   -120.121544    -0.000061   -12.285877  -132.407422
	   53 D(4,2,3,5)      =    -58.333396     0.000042     7.343396   -50.990000
	   54 D(4,2,3,6)      =   -179.452713     0.000035     7.465529  -171.987184
	   55 D(4,2,3,7)      =     59.592176     0.000025     9.938361    69.530537
	   56 D(4,8,9,12)     =     59.134633     0.000022     1.829833    60.964466
	   57 D(4,8,9,13)     =    178.963696     0.000027     0.762532   179.726228
	   58 D(4,8,9,14)     =    -61.142155     0.000028     0.462740   -60.679415
	   59 D(4,8,10,15)    =    179.305510     0.000023    -0.031581   179.273929
	   60 D(4,8,10,16)    =    -61.128394     0.000017    -5.019562   -66.147956
	   61 D(4,8,10,17)    =     59.725188     0.000020    -2.652233    57.072955
	   62 D(9,8,10,15)    =     60.835297    -0.000013     4.065197    64.900495
	   63 D(9,8,10,16)    =   -179.598607    -0.000020    -0.922784  -180.521390
	   64 D(9,8,10,17)    =    -58.745024    -0.000017     1.444545   -57.300479
	   65 D(10,8,9,12)    =    179.681774    -0.000026    -0.420399   179.261375
	   66 D(10,8,9,13)    =    -60.489163    -0.000021    -1.487701   -61.976863
	   67 D(10,8,9,14)    =     59.404986    -0.000020    -1.787492    57.617494
	   68 D(11,8,9,12)    =    -57.425957    -0.000005     1.634185   -55.791772
	   69 D(11,8,9,13)    =     62.403106    -0.000000     0.566883    62.969990
	   70 D(11,8,9,14)    =   -177.702745     0.000001     0.267092  -177.435653
	   71 D(11,8,10,15)   =    -62.342230    -0.000005     2.068820   -60.273409
	   72 D(11,8,10,16)   =     57.223866    -0.000012    -2.919161    54.304705
	   73 D(11,8,10,17)   =    178.077449    -0.000009    -0.551832   177.525617
	   74 R(3,10)         =      3.661594     0.030469     0.177584     3.839178
	 ---------------------------------------------------------------------------
	Successfully symmetrized geometry.

  ==> Convergence Check <==

  Measures of convergence in internal coordinates in au.
  Criteria marked as inactive (o), active & met (*), and active & unmet ( ).
  --------------------------------------------------------------------------------------------- ~
   Step     Total Energy     Delta E     MAX Force     RMS Force      MAX Disp      RMS Disp    ~
  --------------------------------------------------------------------------------------------- ~
    Convergence Criteria    1.00e-06 *    3.00e-04 *             o    1.20e-03 *             o  ~
  --------------------------------------------------------------------------------------------- ~
      1    -345.02902702   -3.45e+02      1.34e-02      2.59e-03 o    3.36e-01      1.07e-01 o  ~
  ---------------------------------------------------------------------------------------------

	Writing optimization data to binary file.
	Structure for next step:
	Cartesian Geometry (in Angstrom)
	    O    -1.3150901533   1.7025649218  -0.5030571502
	    C    -1.1075805130   0.4354261821  -0.3678410217
	    C    -2.1743182990  -0.7692879861  -0.4339128341
	    O     0.1347141156  -0.1327910456  -0.4356590650
	    H    -1.9420205740  -1.4923048226  -1.3722280336
	    H    -3.1581232256  -0.2911957773  -0.5258431676
	    H    -2.1640489855  -1.4405955234   0.5562096183
	    C     1.0828190067   0.3706221328   0.5822117539
	    C     2.4725278304  -0.0587360698  -0.0120163318
	    C     0.7096933350  -0.3005403913   2.0564767765
	    H     1.0109135351   1.5531614281   0.6478675386
	    H     2.6813736486   0.4363102901  -1.0673530358
	    H     3.2340599615   0.3034149122   0.7195850422
	    H     2.5416713450  -1.2392985993  -0.1302406882
	    H     1.4224775398   0.0545478648   2.8455619335
	    H    -0.2860384658   0.0376009367   2.4516303704
	    H     0.7307955194  -1.4884278652   1.9951466837
			--------------------------
			 OPTKING Finished Execution 
			--------------------------

    Structure for next step:
    Molecular point group: c1
    Full point group: C1

    Geometry (in Angstrom), charge = 0, multiplicity = 1:

    O           -1.285899821149     1.529704726591    -0.630938095343
    C           -1.078390180822     0.262565986890    -0.495721966926
    C           -2.145127966865    -0.942148181296    -0.561793779300
    O            0.163904447778    -0.305651240730    -0.563540010197
    H           -1.912830241842    -1.665165017764    -1.500108978773
    H           -3.128932893453    -0.464055972458    -0.653724112834
    H           -2.134858653348    -1.613455718561     0.428328673113
    C            1.112009338881     0.197761937646     0.454330808689
    C            2.501718162542    -0.231596265004    -0.139897276979
    C            0.738883667139    -0.473400586470     1.928595831263
    H            1.040103867249     1.380301232937     0.519986593374
    H            2.710563980730     0.263450094951    -1.195233981020
    H            3.263250293670     0.130554717055     0.591704097006
    H            2.570861677153    -1.412158794509    -0.258121633364
    H            1.451667871894    -0.118312330405     2.717680988307
    H           -0.256848133675    -0.135259258527     2.323749425199
    H            0.759985851490    -1.661288060418     1.867265738537

gradient() will perform analytic gradient computation.

*** tstart() called on cx1-27-3-2
*** at Sat Sep 10 18:41:13 2016


         ---------------------------------------------------------
                                   SCF
            by Justin Turney, Rob Parrish, and Andy Simmonett
                              RHF Reference
                        4 Threads,   2000 MiB Core
         ---------------------------------------------------------

  ==> Geometry <==

    Molecular point group: c1
    Full point group: C1

    Geometry (in Angstrom), charge = 0, multiplicity = 1:

       Center              X                  Y                   Z               Mass       
    ------------   -----------------  -----------------  -----------------  -----------------
           O         -1.285899821149     1.529704726591    -0.630938095343    15.994914619560
           C         -1.078390180822     0.262565986890    -0.495721966926    12.000000000000
           C         -2.145127966865    -0.942148181296    -0.561793779300    12.000000000000
           O          0.163904447778    -0.305651240730    -0.563540010197    15.994914619560
           H         -1.912830241842    -1.665165017764    -1.500108978773     1.007825032070
           H         -3.128932893453    -0.464055972458    -0.653724112834     1.007825032070
           H         -2.134858653348    -1.613455718561     0.428328673113     1.007825032070
           C          1.112009338881     0.197761937646     0.454330808689    12.000000000000
           C          2.501718162542    -0.231596265004    -0.139897276979    12.000000000000
           C          0.738883667139    -0.473400586470     1.928595831263    12.000000000000
           H          1.040103867249     1.380301232937     0.519986593374     1.007825032070
           H          2.710563980730     0.263450094951    -1.195233981020     1.007825032070
           H          3.263250293670     0.130554717055     0.591704097006     1.007825032070
           H          2.570861677153    -1.412158794509    -0.258121633364     1.007825032070
           H          1.451667871894    -0.118312330405     2.717680988307     1.007825032070
           H         -0.256848133675    -0.135259258527     2.323749425199     1.007825032070
           H          0.759985851490    -1.661288060418     1.867265738537     1.007825032070

  Running in c1 symmetry.

  Rotational constants: A =      0.12802  B =      0.05359  C =      0.04962 [cm^-1]
  Rotational constants: A =   3838.06141  B =   1606.73184  C =   1487.63099 [MHz]
  Nuclear repulsion =  308.130199244303924

  Charge       = 0
  Multiplicity = 1
  Electrons    = 56
  Nalpha       = 28
  Nbeta        = 28

  ==> Algorithm <==

  SCF Algorithm Type is DF.
  DIIS enabled.
  MOM disabled.
  Fractional occupation disabled.
  Guess Type is READ.
  Energy threshold   = 1.00e-08
  Density threshold  = 1.00e-08
  Integral threshold = 0.00e+00

  ==> Primary Basis <==

  Basis Set: CC-PVTZ
    Number of shells: 130
    Number of basis function: 350
    Number of Cartesian functions: 395
    Spherical Harmonics?: true
    Max angular momentum: 3

  ==> Pre-Iterations <==

   -------------------------------------------------------
    Irrep   Nso     Nmo     Nalpha   Nbeta   Ndocc  Nsocc
   -------------------------------------------------------
     A        350     350       0       0       0       0
   -------------------------------------------------------
    Total     350     350      28      28      28       0
   -------------------------------------------------------

  ==> Integral Setup <==

  ==> DFJK: Density-Fitted J/K Matrices <==

    J tasked:                  Yes
    K tasked:                  Yes
    wK tasked:                  No
    OpenMP threads:              4
    Integrals threads:           4
    Memory (MB):              1430
    Algorithm:                Core
    Integral Cache:           NONE
    Schwarz Cutoff:          1E-12
    Fitting Condition:       1E-12

   => Auxiliary Basis Set <=

  Basis Set: 
    Number of shells: 275
    Number of basis function: 853
    Number of Cartesian functions: 1022
    Spherical Harmonics?: true
    Max angular momentum: 4

  Minimum eigenvalue in the overlap matrix is 9.6723089532E-04.
  Using Symmetric Orthogonalization.
  SCF Guess: Reading in previously saved MOs, projecting if necessary.

  Using orbitals from previous SCF, no projection.
  Recomputing DOCC and SOCC from number of alpha and beta electrons from previous calculation.
              A 
    DOCC [    28 ]

  ==> Iterations <==

                           Total Energy        Delta E     RMS |[F,P]|

   @DF-RHF iter   0:  -342.89183739769106   -3.42892e+02   3.80229e-03 
   @DF-RHF iter   1:  -344.76108758992592   -1.86925e+00   1.47762e-03 
   @DF-RHF iter   2:  -344.90714715591827   -1.46060e-01   6.80491e-04 DIIS
   @DF-RHF iter   3:  -344.93451837559513   -2.73712e-02   1.58294e-04 DIIS
   @DF-RHF iter   4:  -344.93722769930508   -2.70932e-03   1.06513e-04 DIIS
   @DF-RHF iter   5:  -344.93808535857664   -8.57659e-04   2.49537e-05 DIIS
   @DF-RHF iter   6:  -344.93824291391451   -1.57555e-04   1.11708e-05 DIIS
   @DF-RHF iter   7:  -344.93827106572763   -2.81518e-05   4.51655e-06 DIIS
   @DF-RHF iter   8:  -344.93827589185702   -4.82613e-06   1.26956e-06 DIIS
   @DF-RHF iter   9:  -344.93827625882608   -3.66969e-07   5.82811e-07 DIIS
   @DF-RHF iter  10:  -344.93827632988399   -7.10579e-08   2.78022e-07 DIIS
   @DF-RHF iter  11:  -344.93827635178155   -2.18976e-08   1.23911e-07 DIIS
   @DF-RHF iter  12:  -344.93827635694191   -5.16036e-09   4.52986e-08 DIIS
   @DF-RHF iter  13:  -344.93827635749125   -5.49335e-10   1.51604e-08 DIIS
   @DF-RHF iter  14:  -344.93827635753536   -4.41105e-11   4.94845e-09 DIIS

  ==> Post-Iterations <==

    Orbital Energies (a.u.)
    -----------------------

    Doubly Occupied:                                                      

       1A    -20.594210     2A    -20.551027     3A    -11.402943  
       4A    -11.331920     5A    -11.277903     6A    -11.262305  
       7A    -11.255674     8A     -1.426476     9A     -1.317763  
      10A     -1.038008    11A     -0.972157    12A     -0.928008  
      13A     -0.824905    14A     -0.753682    15A     -0.665338  
      16A     -0.651365    17A     -0.630937    18A     -0.590182  
      19A     -0.565416    20A     -0.553463    21A     -0.546958  
      22A     -0.538028    23A     -0.527632    24A     -0.504637  
      25A     -0.488047    26A     -0.477857    27A     -0.444658  
      28A     -0.429941  

    Virtual:                                                              

      29A      0.120199    30A      0.133031    31A      0.149736  
      32A      0.170764    33A      0.176493    34A      0.195142  
      35A      0.205350    36A      0.214630    37A      0.220002  
      38A      0.226430    39A      0.245594    40A      0.270424  
      41A      0.279222    42A      0.305474    43A      0.326964  
      44A      0.350591    45A      0.366127    46A      0.390159  
      47A      0.394907    48A      0.407070    49A      0.415379  
      50A      0.444637    51A      0.467095    52A      0.476321  
      53A      0.497633    54A      0.524541    55A      0.539483  
      56A      0.552480    57A      0.561301    58A      0.576941  
      59A      0.578106    60A      0.596013    61A      0.598043  
      62A      0.605848    63A      0.612544    64A      0.619325  
      65A      0.625538    66A      0.627598    67A      0.632999  
      68A      0.646425    69A      0.654315    70A      0.681408  
      71A      0.705638    72A      0.723675    73A      0.746851  
      74A      0.763921    75A      0.790009    76A      0.801982  
      77A      0.847687    78A      0.877500    79A      0.895869  
      80A      0.898143    81A      0.938129    82A      0.947882  
      83A      0.967775    84A      0.973865    85A      0.995728  
      86A      1.023497    87A      1.040932    88A      1.060231  
      89A      1.071888    90A      1.082529    91A      1.093082  
      92A      1.128924    93A      1.135772    94A      1.146699  
      95A      1.158380    96A      1.169162    97A      1.185645  
      98A      1.194862    99A      1.200912   100A      1.229509  
     101A      1.240706   102A      1.248710   103A      1.266510  
     104A      1.272755   105A      1.294470   106A      1.313238  
     107A      1.331211   108A      1.345549   109A      1.362152  
     110A      1.375527   111A      1.386959   112A      1.406533  
     113A      1.419731   114A      1.438126   115A      1.450782  
     116A      1.460315   117A      1.464953   118A      1.489575  
     119A      1.495601   120A      1.511305   121A      1.524024  
     122A      1.531358   123A      1.548315   124A      1.558334  
     125A      1.577482   126A      1.598415   127A      1.624169  
     128A      1.629985   129A      1.637349   130A      1.667703  
     131A      1.687453   132A      1.705774   133A      1.714779  
     134A      1.758977   135A      1.789190   136A      1.826641  
     137A      1.891947   138A      1.924174   139A      1.989706  
     140A      1.999647   141A      2.133036   142A      2.182294  
     143A      2.228937   144A      2.264940   145A      2.329295  
     146A      2.368723   147A      2.450463   148A      2.478271  
     149A      2.504803   150A      2.552086   151A      2.571162  
     152A      2.610967   153A      2.635248   154A      2.650449  
     155A      2.685308   156A      2.688413   157A      2.698409  
     158A      2.738952   159A      2.765829   160A      2.775565  
     161A      2.788826   162A      2.812295   163A      2.830038  
     164A      2.842964   165A      2.870861   166A      2.891503  
     167A      2.901255   168A      2.922932   169A      2.939011  
     170A      2.968238   171A      3.011986   172A      3.024617  
     173A      3.025023   174A      3.044636   175A      3.055636  
     176A      3.064330   177A      3.079848   178A      3.100570  
     179A      3.113651   180A      3.142105   181A      3.171200  
     182A      3.181008   183A      3.205376   184A      3.226246  
     185A      3.244756   186A      3.252978   187A      3.262347  
     188A      3.278228   189A      3.285112   190A      3.316719  
     191A      3.324038   192A      3.325545   193A      3.338049  
     194A      3.352368   195A      3.362687   196A      3.380873  
     197A      3.386913   198A      3.395926   199A      3.406457  
     200A      3.426203   201A      3.454243   202A      3.496390  
     203A      3.507024   204A      3.526467   205A      3.532309  
     206A      3.550915   207A      3.559341   208A      3.567274  
     209A      3.582969   210A      3.601085   211A      3.612939  
     212A      3.615888   213A      3.631042   214A      3.649430  
     215A      3.657549   216A      3.667243   217A      3.674860  
     218A      3.686649   219A      3.699262   220A      3.709556  
     221A      3.714727   222A      3.727888   223A      3.756607  
     224A      3.768128   225A      3.779426   226A      3.791787  
     227A      3.818093   228A      3.842511   229A      3.901000  
     230A      3.916517   231A      3.950259   232A      3.970191  
     233A      3.985788   234A      4.004979   235A      4.012192  
     236A      4.035967   237A      4.047330   238A      4.058895  
     239A      4.063856   240A      4.102496   241A      4.117979  
     242A      4.132294   243A      4.145079   244A      4.160613  
     245A      4.173107   246A      4.201669   247A      4.204078  
     248A      4.219420   249A      4.228646   250A      4.243416  
     251A      4.250660   252A      4.258937   253A      4.274611  
     254A      4.279579   255A      4.288906   256A      4.312095  
     257A      4.323739   258A      4.332062   259A      4.345637  
     260A      4.363424   261A      4.384671   262A      4.405758  
     263A      4.432020   264A      4.452419   265A      4.462502  
     266A      4.487928   267A      4.519124   268A      4.529504  
     269A      4.547210   270A      4.556825   271A      4.594948  
     272A      4.602886   273A      4.663668   274A      4.670894  
     275A      4.710689   276A      4.772652   277A      4.808603  
     278A      4.841799   279A      4.891857   280A      4.900884  
     281A      4.907371   282A      4.931651   283A      4.962371  
     284A      4.973584   285A      4.998799   286A      5.043643  
     287A      5.064310   288A      5.081091   289A      5.111617  
     290A      5.129895   291A      5.198770   292A      5.219551  
     293A      5.239602   294A      5.244086   295A      5.247750  
     296A      5.297355   297A      5.316576   298A      5.339415  
     299A      5.354144   300A      5.368485   301A      5.389548  
     302A      5.397894   303A      5.424405   304A      5.439513  
     305A      5.445833   306A      5.469844   307A      5.478175  
     308A      5.521543   309A      5.542826   310A      5.590163  
     311A      5.624510   312A      5.631085   313A      5.636935  
     314A      5.712212   315A      5.794589   316A      5.831133  
     317A      5.877803   318A      5.921285   319A      5.946188  
     320A      6.073907   321A      6.125192   322A      6.137821  
     323A      6.144031   324A      6.178782   325A      6.190490  
     326A      6.229436   327A      6.304199   328A      6.435444  
     329A      6.492309   330A      6.616018   331A      6.621103  
     332A      6.695529   333A      6.883551   334A      6.916378  
     335A      7.057652   336A      7.195924   337A      7.252664  
     338A      7.336143   339A      7.502490   340A      7.519585  
     341A      7.528992   342A      7.748589   343A      7.836225  
     344A      9.477211   345A     10.610172   346A     11.717044  
     347A     12.198959   348A     12.275351   349A     12.606743  
     350A     12.737377  

    Final Occupation by Irrep:
              A 
    DOCC [    28 ]

  Energy converged.

  @DF-RHF Final Energy:  -344.93827635753536

   => Energetics <=

    Nuclear Repulsion Energy =            308.1301992443039239
    One-Electron Energy =               -1081.0340665414917112
    Two-Electron Energy =                 427.9655909396523157
    DFT Exchange-Correlation Energy =       0.0000000000000000
    Empirical Dispersion Energy =           0.0000000000000000
    PCM Polarization Energy =               0.0000000000000000
    EFP Energy =                            0.0000000000000000
    Total Energy =                       -344.9382763575355284


  Saving occupied orbitals to File 180.

*** tstop() called on cx1-27-3-2 at Sat Sep 10 18:41:22 2016
Module time:
	user time   =      31.09 seconds =       0.52 minutes
	system time =       0.67 seconds =       0.01 minutes
	total time  =          9 seconds =       0.15 minutes
Total time:
	user time   =      98.96 seconds =       1.65 minutes
	system time =       2.14 seconds =       0.04 minutes
	total time  =         29 seconds =       0.48 minutes


Properties will be evaluated at   0.000000,   0.000000,   0.000000 Bohr

Properties computed using the SCF density matrix

  Nuclear Dipole Moment: (a.u.)
     X:     4.0848      Y:    -4.9584      Z:     4.5330

  Electronic Dipole Moment: (a.u.)
     X:    -3.7182      Y:     3.9164      Z:    -3.8653

  Dipole Moment: (a.u.)
     X:     0.3666      Y:    -1.0420      Z:     0.6677     Total:     1.2908

  Dipole Moment: (Debye)
     X:     0.9318      Y:    -2.6486      Z:     1.6971     Total:     3.2808


*** tstart() called on cx1-27-3-2
*** at Sat Sep 10 18:41:22 2016


         ------------------------------------------------------------
                                   SCF GRAD                          
                          Rob Parrish, Justin Turney,                
                       Andy Simmonett, and Alex Sokolov              
         ------------------------------------------------------------

  ==> Geometry <==

    Molecular point group: c1
    Full point group: C1

    Geometry (in Angstrom), charge = 0, multiplicity = 1:

       Center              X                  Y                   Z               Mass       
    ------------   -----------------  -----------------  -----------------  -----------------
           O         -1.285899821149     1.529704726591    -0.630938095343    15.994914619560
           C         -1.078390180822     0.262565986890    -0.495721966926    12.000000000000
           C         -2.145127966865    -0.942148181296    -0.561793779300    12.000000000000
           O          0.163904447778    -0.305651240730    -0.563540010197    15.994914619560
           H         -1.912830241842    -1.665165017764    -1.500108978773     1.007825032070
           H         -3.128932893453    -0.464055972458    -0.653724112834     1.007825032070
           H         -2.134858653348    -1.613455718561     0.428328673113     1.007825032070
           C          1.112009338881     0.197761937646     0.454330808689    12.000000000000
           C          2.501718162542    -0.231596265004    -0.139897276979    12.000000000000
           C          0.738883667139    -0.473400586470     1.928595831263    12.000000000000
           H          1.040103867249     1.380301232937     0.519986593374     1.007825032070
           H          2.710563980730     0.263450094951    -1.195233981020     1.007825032070
           H          3.263250293670     0.130554717055     0.591704097006     1.007825032070
           H          2.570861677153    -1.412158794509    -0.258121633364     1.007825032070
           H          1.451667871894    -0.118312330405     2.717680988307     1.007825032070
           H         -0.256848133675    -0.135259258527     2.323749425199     1.007825032070
           H          0.759985851490    -1.661288060418     1.867265738537     1.007825032070

  Nuclear repulsion =  308.130199244303924

  ==> Basis Set <==

  Basis Set: CC-PVTZ
    Number of shells: 130
    Number of basis function: 350
    Number of Cartesian functions: 395
    Spherical Harmonics?: true
    Max angular momentum: 3

  ==> DFJKGrad: Density-Fitted SCF Gradients <==

    Gradient:                    1
    J tasked:                  Yes
    K tasked:                  Yes
    wK tasked:                  No
    OpenMP threads:              4
    Integrals threads:           4
    Memory (MB):              1430
    Schwarz Cutoff:          0E+00
    Fitting Condition:       1E-12

   => Auxiliary Basis Set <=

  Basis Set: 
    Number of shells: 275
    Number of basis function: 853
    Number of Cartesian functions: 1022
    Spherical Harmonics?: true
    Max angular momentum: 4


  -Total Gradient:
     Atom            X                  Y                   Z
    ------   -----------------  -----------------  -----------------
       1       -0.019888535288     0.160537547842    -0.030612956654
       2        0.011591654163    -0.071186203163     0.053487960286
       3       -0.010408575793     0.006986931549    -0.005957414892
       4        0.021446635338    -0.042884989648    -0.047521786457
       5        0.008891984767    -0.042621467345    -0.049929700436
       6       -0.008437889978     0.012241754836     0.001825874557
       7       -0.005300009012    -0.036090801842     0.048886557632
       8        0.001000335876    -0.008002175125    -0.001555820666
       9       -0.003389800999     0.010449127441     0.007806460309
      10       -0.009250851515     0.012368184548     0.019721521992
      11       -0.001001566640     0.058706618968     0.004096021898
      12        0.013581198486     0.022268630449    -0.050516335592
      13        0.007767477591     0.011626987255     0.018432128368
      14        0.003393520761    -0.056624331181    -0.006653955993
      15        0.008258537492     0.010795578338     0.021922482577
      16       -0.018532553560     0.008986449000     0.018529629155
      17        0.000278438311    -0.057557841923    -0.001960666085


*** tstop() called on cx1-27-3-2 at Sat Sep 10 18:41:30 2016
Module time:
	user time   =      30.57 seconds =       0.51 minutes
	system time =       0.61 seconds =       0.01 minutes
	total time  =          8 seconds =       0.13 minutes
Total time:
	user time   =     129.61 seconds =       2.16 minutes
	system time =       2.75 seconds =       0.05 minutes
	total time  =         37 seconds =       0.62 minutes

			-----------------------------------------
			 OPTKING 2.0: for geometry optimizations 
			  - R.A. King,  Bethel University        
			-----------------------------------------

	Previous internal coordinate definitions found.
	---Fragment 1 Geometry and Gradient---
	 O          -2.4299984963        2.8907229974       -1.1923002070
	 C          -2.0378621061        0.4961778070       -0.9367787555
	 C          -4.0537043774       -1.7804020392       -1.0616363860
	 O           0.3097345183       -0.5775971372       -1.0649362842
	 H          -3.6147252958       -3.1467058496       -2.8347951394
	 H          -5.9128262568       -0.8769386983       -1.2353595397
	 H          -4.0342981872       -3.0489894356        0.8094238870
	 C           2.1013931077        0.3737159017        0.8585608022
	 C           4.7275621889       -0.4376535143       -0.2643675402
	 C           1.3962877750       -0.8945974596        3.6445179421
	 H           1.9655114589        2.6083913111        0.9826322542
	 H           5.1222235892        0.4978485291       -2.2586648888
	 H           6.1666493581        0.2467126606        1.1181586950
	 H           4.8582244954       -2.6685933778       -0.4877791960
	 H           2.7432547138       -0.2235779026        5.1356727845
	 H          -0.4853726304       -0.2556029556        4.3912500151
	 H           1.4361651242       -3.1393794620        3.5286208632
	            -0.0198885353        0.1605375478       -0.0306129567
	             0.0115916542       -0.0711862032        0.0534879603
	            -0.0104085758        0.0069869315       -0.0059574149
	             0.0214466353       -0.0428849896       -0.0475217865
	             0.0088919848       -0.0426214673       -0.0499297004
	            -0.0084378900        0.0122417548        0.0018258746
	            -0.0053000090       -0.0360908018        0.0488865576
	             0.0010003359       -0.0080021751       -0.0015558207
	            -0.0033898010        0.0104491274        0.0078064603
	            -0.0092508515        0.0123681845        0.0197215220
	            -0.0010015666        0.0587066190        0.0040960219
	             0.0135811985        0.0222686304       -0.0505163356
	             0.0077674776        0.0116269873        0.0184321284
	             0.0033935208       -0.0566243312       -0.0066539560
	             0.0082585375        0.0107955783        0.0219224826
	            -0.0185325536        0.0089864490        0.0185296292
	             0.0002784383       -0.0575578419       -0.0019606661

	---Fragment 1 Intrafragment Coordinates---
	 - Coordinate -           - BOHR/RAD -       - ANG/DEG -
	 R(1,2)           =         2.439858	       1.291117
	 R(2,3)           =         3.043358	       1.610475
	 R(2,4)           =         2.584691	       1.367759
	 R(3,5)           =         2.281136	       1.207125
	 R(3,6)           =         2.074310	       1.097677
	 R(3,7)           =         2.260654	       1.196287
	 R(4,8)           =         2.795510	       1.479320
	 R(8,9)           =         2.969184	       1.571224
	 R(8,10)          =         3.141234	       1.662269
	 R(8,11)          =         2.242238	       1.186541
	 R(9,12)          =         2.237888	       1.184239
	 R(9,13)          =         2.109670	       1.116389
	 R(9,14)          =         2.245903	       1.188480
	 R(10,15)         =         2.118521	       1.121073
	 R(10,16)         =         2.122868	       1.123373
	 R(10,17)         =         2.248126	       1.189657
	 B(1,2,3)         =         2.243882	     128.564987
	 B(1,2,4)         =         2.151373	     123.264595
	 B(2,3,5)         =         1.931009	     110.638667
	 B(2,3,6)         =         1.845523	     105.740699
	 B(2,3,7)         =         1.960736	     112.341899
	 B(2,4,8)         =         1.989554	     113.993031
	 B(3,2,4)         =         1.863784	     106.786948
	 B(4,8,9)         =         1.786107	     102.336378
	 B(4,8,10)        =         1.906022	     109.207018
	 B(4,8,11)        =         1.915998	     109.778594
	 B(5,3,6)         =         1.947923	     111.607778
	 B(5,3,7)         =         1.881356	     107.793752
	 B(6,3,7)         =         1.898028	     108.748997
	 B(8,9,12)        =         1.959271	     112.257974
	 B(8,9,13)        =         1.840917	     105.476782
	 B(8,9,14)        =         1.939623	     111.132192
	 B(8,10,15)       =         1.932270	     110.710893
	 B(8,10,16)       =         1.970777	     112.917194
	 B(8,10,17)       =         1.932062	     110.699005
	 B(9,8,10)        =         2.008237	     115.063507
	 B(9,8,11)        =         1.925027	     110.295909
	 B(10,8,11)       =         1.917418	     109.859974
	 B(12,9,13)       =         1.905079	     109.153014
	 B(12,9,14)       =         1.892662	     108.441516
	 B(13,9,14)       =         1.925953	     110.348969
	 B(15,10,16)      =         1.793260	     102.746239
	 B(15,10,17)      =         1.919071	     109.954688
	 B(16,10,17)      =         1.911780	     109.536920
	 D(1,2,3,5)       =         2.019811	     115.726631
	 D(1,2,3,6)       =        -0.091988	      -5.270553
	 D(1,2,3,7)       =        -2.159894	    -123.752832
	*D(1,2,4,8)       =         1.047197	      59.999959
	 D(2,4,8,9)       =        -2.827157	    -161.984187
	 D(2,4,8,10)      =         1.320268	      75.645764
	 D(2,4,8,11)      =        -0.782898	     -44.856734
	 D(3,2,4,8)       =        -2.310945	    -132.407422
	 D(4,2,3,5)       =        -0.889943	     -50.990000
	 D(4,2,3,6)       =        -3.001743	    -171.987184
	 D(4,2,3,7)       =         1.213537	      69.530537
	 D(4,8,9,12)      =         1.064031	      60.964466
	 D(4,8,9,13)      =         3.136814	     179.726228
	 D(4,8,9,14)      =        -1.059056	     -60.679415
	 D(4,8,10,15)     =         3.128920	     179.273929
	 D(4,8,10,16)     =        -1.154500	     -66.147956
	 D(4,8,10,17)     =         0.996111	      57.072955
	 D(9,8,10,15)     =         1.132727	      64.900495
	 D(9,8,10,16)     =         3.132493	     179.478610
	 D(9,8,10,17)     =        -1.000082	     -57.300479
	 D(10,8,9,12)     =         3.128701	     179.261375
	 D(10,8,9,13)     =        -1.081700	     -61.976863
	 D(10,8,9,14)     =         1.005615	      57.617494
	 D(11,8,9,12)     =        -0.973750	     -55.791772
	 D(11,8,9,13)     =         1.099034	      62.969990
	 D(11,8,9,14)     =        -3.096836	    -177.435653
	 D(11,8,10,15)    =        -1.051969	     -60.273409
	 D(11,8,10,16)    =         0.947796	      54.304705
	 D(11,8,10,17)    =         3.098407	     177.525617
	 R(3,10)          =         7.254995	       3.839178

	Current energy   :      -344.9382763575

	Energy change for the previous step:
		Projected    :        -0.0023963597
		Actual       :         0.0907506633

	Performing BFGS update.
	Previous computed or guess Hessian on step 1.
	Steps to be used in Hessian update: 1
	Taking RFO optimization step.
	Going to follow RFO solution 1.
	Using RFO vector 1.

	Determining step-restricting scale parameter for RS-RFO.
	Maximum step size allowed    0.50000

	 Iter      |step|        alpha        rfo_root  
	------------------------------------------------
	    0     0.52330       1.00000           1
	    1     0.50171       1.18988           1
	    2     0.50001       1.20614           1
	    3     0.50000       1.20624           1
	------------------------------------------------
	Norm of target step-size    0.50000
	Projected energy change by RFO approximation:        -0.0938683279

	Back-transformation to cartesian coordinates...
	Successfully converged to displaced geometry.

	Back-transformation to cartesian coordinates to adjust frozen coordinates...
	Successfully converged to displaced geometry.

	--- Internal Coordinate Step in ANG or DEG, aJ/ANG or AJ/DEG ---
	 ---------------------------------------------------------------------------
	   Coordinate                Previous        Force       Change         New 
	   ----------                --------       ------       ------       ------
	    1 R(1,2)          =      1.291117    -1.350809    -0.089571     1.201547
	    2 R(2,3)          =      1.610475    -0.430774    -0.069383     1.541093
	    3 R(2,4)          =      1.367759    -0.265421    -0.026659     1.341100
	    4 R(3,5)          =      1.207125    -0.544173    -0.083661     1.123464
	    5 R(3,6)          =      1.097677    -0.104974    -0.013537     1.084140
	    6 R(3,7)          =      1.196287    -0.499833    -0.076886     1.119401
	    7 R(4,8)          =      1.479320    -0.183879    -0.031024     1.448297
	    8 R(8,9)          =      1.571224    -0.279617    -0.039356     1.531868
	    9 R(8,10)         =      1.662269    -0.533382    -0.091494     1.570775
	   10 R(8,11)         =      1.186541    -0.484404    -0.071375     1.115166
	   11 R(9,12)         =      1.184239    -0.467315    -0.069579     1.114660
	   12 R(9,13)         =      1.116389    -0.174243    -0.023147     1.093242
	   13 R(9,14)         =      1.188480    -0.470484    -0.070915     1.117565
	   14 R(10,15)        =      1.121073    -0.198559    -0.026670     1.094403
	   15 R(10,16)        =      1.123373    -0.211321    -0.028481     1.094892
	   16 R(10,17)        =      1.189657    -0.474371    -0.071612     1.118045
	   17 B(1,2,3)        =    128.564987    -0.002036    -3.444204   125.120783
	   18 B(1,2,4)        =    123.264595    -0.000603    -0.995520   122.269075
	   19 B(2,3,5)        =    110.638667    -0.000732    -0.896860   109.741807
	   20 B(2,3,6)        =    105.740699     0.001134     2.565863   108.306561
	   21 B(2,3,7)        =    112.341899    -0.000753    -1.780703   110.561196
	   22 B(2,4,8)        =    113.993031     0.001716     3.345172   117.338203
	   23 B(3,2,4)        =    106.786948     0.002679     4.338992   111.125940
	   24 B(4,8,9)        =    102.336378     0.000931     2.231592   104.567970
	   25 B(4,8,10)       =    109.207018     0.000149    -0.006504   109.200514
	   26 B(4,8,11)       =    109.778594    -0.000477    -0.987417   108.791176
	   27 B(5,3,6)        =    111.607778    -0.000155    -0.719334   110.888445
	   28 B(5,3,7)        =    107.793752     0.000406     0.341688   108.135440
	   29 B(6,3,7)        =    108.748997     0.000094     0.462280   109.211277
	   30 B(8,9,12)       =    112.257974    -0.000622    -1.236478   111.021495
	   31 B(8,9,13)       =    105.476782     0.001170     2.661692   108.138474
	   32 B(8,9,14)       =    111.132192    -0.000144    -0.310626   110.821566
	   33 B(8,10,15)      =    110.710893    -0.000351    -0.673983   110.036910
	   34 B(8,10,16)      =    112.917194    -0.000689    -1.257087   111.660107
	   35 B(8,10,17)      =    110.699005    -0.000025     0.249048   110.948053
	   36 B(9,8,10)       =    115.063507    -0.001074    -1.750120   113.313387
	   37 B(9,8,11)       =    110.295909     0.000203     0.047036   110.342944
	   38 B(10,8,11)      =    109.859974     0.000290     0.526174   110.386147
	   39 B(12,9,13)      =    109.153014    -0.000198    -0.430464   108.722550
	   40 B(12,9,14)      =    108.441516     0.000218     0.346543   108.788059
	   41 B(13,9,14)      =    110.348969    -0.000427    -1.040541   109.308428
	   42 B(15,10,16)     =    102.746239     0.000824     2.029306   104.775544
	   43 B(15,10,17)     =    109.954688     0.000070    -0.302730   109.651959
	   44 B(16,10,17)     =    109.536920     0.000235     0.048102   109.585022
	   45 D(1,2,3,5)      =    115.726631     0.000074     0.318810   116.045441
	   46 D(1,2,3,6)      =     -5.270553     0.000052     0.135154    -5.135399
	   47 D(1,2,3,7)      =   -123.752832    -0.000041    -1.004572  -124.757404
	   48 *D(1,2,4,8)     =     59.999959    -0.000000     0.000000    59.999959
	   49 D(2,4,8,9)      =   -161.984187    -0.000083    -0.657764  -162.641950
	   50 D(2,4,8,10)     =     75.645764     0.000069     0.145237    75.791000
	   51 D(2,4,8,11)     =    -44.856734     0.000033     0.108719   -44.748015
	   52 D(3,2,4,8)      =   -132.407422    -0.000010    -0.841481  -133.248902
	   53 D(4,2,3,5)      =    -50.990000     0.000019     0.740085   -50.249915
	   54 D(4,2,3,6)      =   -171.987184    -0.000004     0.556429  -171.430755
	   55 D(4,2,3,7)      =     69.530537    -0.000097    -0.583297    68.947239
	   56 D(4,8,9,12)     =     60.964466    -0.000048    -0.489385    60.475081
	   57 D(4,8,9,13)     =    179.726228    -0.000014    -0.058609   179.667619
	   58 D(4,8,9,14)     =    -60.679415     0.000013     0.138004   -60.541411
	   59 D(4,8,10,15)    =    179.273929     0.000030     0.188825   179.462754
	   60 D(4,8,10,16)    =    -66.147956     0.000117     1.518644   -64.629312
	   61 D(4,8,10,17)    =     57.072955     0.000068     0.861219    57.934175
	   62 D(9,8,10,15)    =     64.900495    -0.000114    -1.547920    63.352575
	   63 D(9,8,10,16)    =    179.478610    -0.000027    -0.218101   179.260509
	   64 D(9,8,10,17)    =    -57.300479    -0.000076    -0.875525   -58.176004
	   65 D(10,8,9,12)    =    179.261375     0.000009     0.030145   179.291520
	   66 D(10,8,9,13)    =    -61.976863     0.000043     0.460921   -61.515943
	   67 D(10,8,9,14)    =     57.617494     0.000069     0.657533    58.275027
	   68 D(11,8,9,12)    =    -55.791772    -0.000054    -0.561216   -56.352988
	   69 D(11,8,9,13)    =     62.969990    -0.000020    -0.130440    62.839549
	   70 D(11,8,9,14)    =   -177.435653     0.000006     0.066172  -177.369481
	   71 D(11,8,10,15)   =    -60.273409    -0.000042    -0.706037   -60.979447
	   72 D(11,8,10,16)   =     54.304705     0.000045     0.623782    54.928487
	   73 D(11,8,10,17)   =    177.525617    -0.000004    -0.033643   177.491974
	   74 R(3,10)         =      3.839178    -0.033819    -0.008158     3.831020
	 ---------------------------------------------------------------------------
	Successfully symmetrized geometry.

  ==> Convergence Check <==

  Measures of convergence in internal coordinates in au.
  Criteria marked as inactive (o), active & met (*), and active & unmet ( ).
  ---------------------------------------------------------------------------------------------
   Step     Total Energy     Delta E     MAX Force     RMS Force      MAX Disp      RMS Disp   
  ---------------------------------------------------------------------------------------------
    Convergence Criteria    1.00e-06 *    3.00e-04 *             o    1.20e-03 *             o
  ---------------------------------------------------------------------------------------------
      2    -344.93827636    9.08e-02      1.64e-01      2.94e-02 o    1.73e-01      5.71e-02 o  ~
  ---------------------------------------------------------------------------------------------

	Writing optimization data to binary file.
	Structure for next step:
	Cartesian Geometry (in Angstrom)
	    O    -1.3776010006   1.3430749910  -0.5397834676
	    C    -1.1210632167   0.1744063452  -0.4297084796
	    C    -2.1483290151  -0.9709605931  -0.5181765791
	    O     0.1330879731  -0.2939287515  -0.5091864005
	    H    -1.9184705146  -1.6190970524  -1.4065776158
	    H    -3.1374996353  -0.5354141888  -0.6030345452
	    H    -2.1047356669  -1.6099442670   0.3998966246
	    C     1.0906031395   0.2014733573   0.4579249327
	    C     2.4574316368  -0.1428259717  -0.1419561996
	    C     0.8285879462  -0.4886136864   1.8444540651
	    H     0.9731746133   1.3069478378   0.5458549703
	    H     2.5979368833   0.3556692330  -1.1289863006
	    H     3.2299668120   0.2138530484   0.5444454979
	    H     2.5649261130  -1.2468862406  -0.2777805775
	    H     1.5515986528  -0.1307564916   2.5839888262
	    H    -0.1489714706  -0.2141668610   2.2541427556
	    H     0.8994180173  -1.6009834389   1.7570448138
			--------------------------
			 OPTKING Finished Execution 
			--------------------------

    Structure for next step:
    Molecular point group: c1
    Full point group: C1

    Geometry (in Angstrom), charge = 0, multiplicity = 1:

    O           -1.357256738025     1.373033208551    -0.564059410530
    C           -1.100718954048     0.204364562759    -0.453984422556
    C           -2.127984752466    -0.941002375550    -0.542452522049
    O            0.153432235759    -0.263970533910    -0.533462343462
    H           -1.898126252021    -1.589138834800    -1.430853558777
    H           -3.117155372731    -0.505455971178    -0.627310488194
    H           -2.084391404304    -1.579986049393     0.375620681624
    C            1.110947402135     0.231431574870     0.433648989764
    C            2.477775899385    -0.112867754082    -0.166232142539
    C            0.848932208783    -0.458655468807     1.820178122184
    H            0.993518875925     1.336906055431     0.521579027327
    H            2.618281145930     0.385627450624    -1.153262243511
    H            3.250311074595     0.243811266033     0.520169554902
    H            2.585270375638    -1.216928023023    -0.302056520433
    H            1.571942915425    -0.100798273984     2.559712883211
    H           -0.128627208014    -0.184208643379     2.229866812662
    H            0.919762279865    -1.571025221287     1.732768870794

gradient() will perform analytic gradient computation.

*** tstart() called on cx1-27-3-2
*** at Sat Sep 10 18:41:30 2016


         ---------------------------------------------------------
                                   SCF
            by Justin Turney, Rob Parrish, and Andy Simmonett
                              RHF Reference
                        4 Threads,   2000 MiB Core
         ---------------------------------------------------------

  ==> Geometry <==

    Molecular point group: c1
    Full point group: C1

    Geometry (in Angstrom), charge = 0, multiplicity = 1:

       Center              X                  Y                   Z               Mass       
    ------------   -----------------  -----------------  -----------------  -----------------
           O         -1.357256738025     1.373033208551    -0.564059410530    15.994914619560
           C         -1.100718954048     0.204364562759    -0.453984422556    12.000000000000
           C         -2.127984752466    -0.941002375550    -0.542452522049    12.000000000000
           O          0.153432235759    -0.263970533910    -0.533462343462    15.994914619560
           H         -1.898126252021    -1.589138834800    -1.430853558777     1.007825032070
           H         -3.117155372731    -0.505455971178    -0.627310488194     1.007825032070
           H         -2.084391404304    -1.579986049393     0.375620681624     1.007825032070
           C          1.110947402135     0.231431574870     0.433648989764    12.000000000000
           C          2.477775899385    -0.112867754082    -0.166232142539    12.000000000000
           C          0.848932208783    -0.458655468807     1.820178122184    12.000000000000
           H          0.993518875925     1.336906055431     0.521579027327     1.007825032070
           H          2.618281145930     0.385627450624    -1.153262243511     1.007825032070
           H          3.250311074595     0.243811266033     0.520169554902     1.007825032070
[...]
	 H           6.1358823199        0.1557434907        1.0940454064
	 H           4.8226842662       -2.3761460728       -0.6126847193
	 H           2.9199564416       -0.5959528214        4.6970133391
	 H          -0.3138640799       -0.5891954705        4.0147199584
	 H           1.5855264266       -3.1295028071        3.0095240756
	            -0.0008071853       -0.0003438818       -0.0094909390
	             0.0001158925       -0.0025073530        0.0161836629
	             0.0000108808        0.0000554293        0.0000235509
	             0.0028001840        0.0087120824       -0.0108266453
	            -0.0000130781       -0.0000114964       -0.0000227161
	             0.0000026286       -0.0000082644       -0.0000134949
	             0.0000118457       -0.0000057564       -0.0000091781
	            -0.0020878580       -0.0058819860        0.0041644171
	            -0.0000179587       -0.0000069703       -0.0000067928
	            -0.0000129074       -0.0000040422       -0.0000117481
	            -0.0000050677       -0.0000049789        0.0000056203
	            -0.0000009682       -0.0000020728        0.0000019698
	            -0.0000040401        0.0000015889       -0.0000006497
	             0.0000000663        0.0000049758        0.0000006110
	            -0.0000025343        0.0000006208       -0.0000023189
	             0.0000061094        0.0000058247        0.0000020793
	             0.0000039903       -0.0000037195        0.0000025717

	---Fragment 1 Intrafragment Coordinates---
	 - Coordinate -           - BOHR/RAD -       - ANG/DEG -
	 R(1,2)           =         2.229019	       1.179546
	 R(2,3)           =         2.838293	       1.501960
	 R(2,4)           =         2.530787	       1.339235
	 R(3,5)           =         2.045928	       1.082658
	 R(3,6)           =         2.037277	       1.078081
	 R(3,7)           =         2.046578	       1.083003
	 R(4,8)           =         2.700834	       1.429220
	 R(8,9)           =         2.862098	       1.514557
	 R(8,10)          =         2.870781	       1.519152
	 R(8,11)          =         2.044980	       1.082157
	 R(9,12)          =         2.044233	       1.081762
	 R(9,13)          =         2.047301	       1.083385
	 R(9,14)          =         2.047666	       1.083578
	 R(10,15)         =         2.047336	       1.083403
	 R(10,16)         =         2.048121	       1.083819
	 R(10,17)         =         2.047876	       1.083689
	 B(1,2,3)         =         2.169824	     124.321786
	 B(1,2,4)         =         2.142576	     122.760572
	 B(2,3,5)         =         1.903515	     109.063399
	 B(2,3,6)         =         1.922416	     110.146326
	 B(2,3,7)         =         1.914508	     109.693202
	 B(2,4,8)         =         2.072719	     118.758069
	 B(3,2,4)         =         1.965898	     112.637678
	 B(4,8,9)         =         1.858553	     106.487242
	 B(4,8,10)        =         1.923619	     110.215251
	 B(4,8,11)        =         1.882059	     107.834026
	 B(5,3,6)         =         1.924756	     110.280378
	 B(5,3,7)         =         1.874086	     107.377225
	 B(6,3,7)         =         1.923855	     110.228756
	 B(8,9,12)        =         1.926643	     110.388490
	 B(8,9,13)        =         1.923414	     110.203499
	 B(8,9,14)        =         1.930199	     110.592258
	 B(8,10,15)       =         1.918769	     109.937389
	 B(8,10,16)       =         1.943514	     111.355171
	 B(8,10,17)       =         1.931809	     110.684515
	 B(9,8,10)        =         1.970130	     112.880119
	 B(9,8,11)        =         1.911829	     109.539745
	 B(10,8,11)       =         1.915009	     109.721919
	 B(12,9,13)       =         1.895525	     108.605588
	 B(12,9,14)       =         1.893132	     108.468477
	 B(13,9,14)       =         1.894072	     108.522332
	 B(15,10,16)      =         1.878098	     107.607097
	 B(15,10,17)      =         1.893821	     108.507940
	 B(16,10,17)      =         1.896314	     108.650801
	 D(1,2,3,5)       =         2.109516	     120.866367
	 D(1,2,3,6)       =        -0.005093	      -0.291819
	 D(1,2,3,7)       =        -2.125660	    -121.791321
	*D(1,2,4,8)       =         1.047197	      59.999959
	 D(2,4,8,9)       =        -2.844501	    -162.977882
	 D(2,4,8,10)      =         1.296169	      74.265037
	 D(2,4,8,11)      =        -0.793873	     -45.485600
	 D(3,2,4,8)       =        -2.196329	    -125.840391
	 D(4,2,3,5)       =        -0.928278	     -53.186438
	 D(4,2,3,6)       =        -3.042888	    -174.344624
	 D(4,2,3,7)       =         1.119731	      64.155874
	 D(4,8,9,12)      =         1.025685	      58.767413
	 D(4,8,9,13)      =         3.119461	     178.731976
	 D(4,8,9,14)      =        -1.069479	     -61.276614
	 D(4,8,10,15)     =         3.121961	     178.875161
	 D(4,8,10,16)     =        -1.081410	     -61.960205
	 D(4,8,10,17)     =         1.029995	      59.014386
	 D(9,8,10,15)     =         1.046339	      59.950792
	 D(9,8,10,16)     =         3.126154	     179.115427
	 D(9,8,10,17)     =        -1.045626	     -59.909982
	 D(10,8,9,12)     =         3.138705	     179.834546
	 D(10,8,9,13)     =        -1.050704	     -60.200892
	 D(10,8,9,14)     =         1.043541	      59.790519
	 D(11,8,9,12)     =        -1.005115	     -57.588845
	 D(11,8,9,13)     =         1.088662	      62.375717
	 D(11,8,9,14)     =        -3.100278	    -177.632873
	 D(11,8,10,15)    =        -1.091248	     -62.523920
	 D(11,8,10,16)    =         0.988567	      56.640715
	 D(11,8,10,17)    =         3.099972	     177.615306
	 R(3,10)          =         7.008198	       3.708579

	Current energy   :      -345.0305135609

	Energy change for the previous step:
		Projected    :         0.0000004925
		Actual       :        -0.0000001237

	Performing BFGS update.
	Previous computed or guess Hessian on step 1.
	Steps to be used in Hessian update: 9 8
	Taking RFO optimization step.
	Going to follow RFO solution 1.
	Rejecting RFO root 1 because normalization gives large value.
	Rejecting RFO root 2 because normalization gives large value.
	Rejecting RFO root 3 because normalization gives large value.
	Rejecting RFO root 4 because normalization gives large value.
	Rejecting RFO root 5 because normalization gives large value.
	Rejecting RFO root 6 because normalization gives large value.
	Using RFO vector 7.
	Norm of target step-size    0.00370
	Projected energy change by RFO approximation:        -0.0000001323

	Back-transformation to cartesian coordinates...
	Successfully converged to displaced geometry.

	Back-transformation to cartesian coordinates to adjust frozen coordinates...
	Successfully converged to displaced geometry.

	--- Internal Coordinate Step in ANG or DEG, aJ/ANG or AJ/DEG ---
	 ---------------------------------------------------------------------------
	   Coordinate                Previous        Force       Change         New 
	   ----------                --------       ------       ------       ------
	    1 R(1,2)          =      1.179546    -0.000196     0.000056     1.179602
	    2 R(2,3)          =      1.501960     0.000187    -0.000234     1.501726
	    3 R(2,4)          =      1.339235     0.000069    -0.000285     1.338950
	    4 R(3,5)          =      1.082658    -0.000189     0.000086     1.082744
	    5 R(3,6)          =      1.078081     0.000044     0.000049     1.078129
	    6 R(3,7)          =      1.083003     0.000025     0.000099     1.083102
	    7 R(4,8)          =      1.429220     0.000100     0.000044     1.429264
	    8 R(8,9)          =      1.514557     0.000151     0.000087     1.514644
	    9 R(8,10)         =      1.519152     0.000021    -0.000298     1.518854
	   10 R(8,11)         =      1.082157     0.000031     0.000027     1.082184
	   11 R(9,12)         =      1.081762     0.000024    -0.000025     1.081736
	   12 R(9,13)         =      1.083385     0.000024    -0.000154     1.083232
	   13 R(9,14)         =      1.083578     0.000041    -0.000067     1.083511
	   14 R(10,15)        =      1.083403     0.000026    -0.000131     1.083272
	   15 R(10,16)        =      1.083819     0.000027    -0.000012     1.083807
	   16 R(10,17)        =      1.083689    -0.000029    -0.000090     1.083599
	   17 B(1,2,3)        =    124.321786     0.000004     0.018579   124.340365
	   18 B(1,2,4)        =    122.760572    -0.000005    -0.014116   122.746456
	   19 B(2,3,5)        =    109.063399    -0.000001    -0.016358   109.047041
	   20 B(2,3,6)        =    110.146326    -0.000001    -0.022355   110.123971
	   21 B(2,3,7)        =    109.693202     0.000000     0.023765   109.716967
	   22 B(2,4,8)        =    118.758069     0.000002    -0.026284   118.731785
	   23 B(3,2,4)        =    112.637678     0.000001    -0.005294   112.632384
	   24 B(4,8,9)        =    106.487242     0.000001    -0.001342   106.485900
	   25 B(4,8,10)       =    110.215251    -0.000001     0.005000   110.220252
	   26 B(4,8,11)       =    107.834026    -0.000000    -0.026600   107.807426
	   27 B(5,3,6)        =    110.280378     0.000001     0.018913   110.299291
	   28 B(5,3,7)        =    107.377225     0.000000    -0.005774   107.371451
	   29 B(6,3,7)        =    110.228756    -0.000001     0.002304   110.231060
	   30 B(8,9,12)       =    110.388490    -0.000000     0.007033   110.395523
	   31 B(8,9,13)       =    110.203499     0.000000     0.002510   110.206009
	   32 B(8,9,14)       =    110.592258    -0.000000    -0.001851   110.590407
	   33 B(8,10,15)      =    109.937389     0.000000     0.029262   109.966651
	   34 B(8,10,16)      =    111.355171     0.000000    -0.010575   111.344596
	   35 B(8,10,17)      =    110.684515    -0.000000     0.006639   110.691154
	   36 B(9,8,10)       =    112.880119    -0.000000     0.017943   112.898062
	   37 B(9,8,11)       =    109.539745    -0.000001    -0.005234   109.534511
	   38 B(10,8,11)      =    109.721919     0.000001     0.007763   109.729682
	   39 B(12,9,13)      =    108.605588    -0.000000     0.000782   108.606371
	   40 B(12,9,14)      =    108.468477     0.000000    -0.006230   108.462248
	   41 B(13,9,14)      =    108.522332    -0.000000    -0.002487   108.519845
	   42 B(15,10,16)     =    107.607097     0.000000     0.028754   107.635851
	   43 B(15,10,17)     =    108.507940     0.000000    -0.013014   108.494926
	   44 B(16,10,17)     =    108.650801    -0.000000    -0.041367   108.609434
	   45 D(1,2,3,5)      =    120.866367     0.000000     0.039611   120.905978
	   46 D(1,2,3,6)      =     -0.291819     0.000000     0.040654    -0.251164
	   47 D(1,2,3,7)      =   -121.791321     0.000000     0.036764  -121.754557
	   48 *D(1,2,4,8)     =     59.999959    -0.000000    -0.000000    59.999959
	   49 D(2,4,8,9)      =   -162.977882    -0.000000     0.070007  -162.907875
	   50 D(2,4,8,10)     =     74.265037    -0.000000     0.046057    74.311094
	   51 D(2,4,8,11)     =    -45.485600    -0.000000     0.049902   -45.435699
	   52 D(3,2,4,8)      =   -125.840391     0.000001    -0.007423  -125.847814
	   53 D(4,2,3,5)      =    -53.186438    -0.000000     0.049441   -53.136996
	   54 D(4,2,3,6)      =   -174.344624    -0.000000     0.050485  -174.294139
	   55 D(4,2,3,7)      =     64.155874    -0.000000     0.046594    64.202469
	   56 D(4,8,9,12)     =     58.767413     0.000000    -0.011657    58.755757
	   57 D(4,8,9,13)     =    178.731976     0.000000    -0.004579   178.727397
	   58 D(4,8,9,14)     =    -61.276614     0.000000    -0.007244   -61.283858
	   59 D(4,8,10,15)    =    178.875161     0.000000    -0.015417   178.859744
	   60 D(4,8,10,16)    =    -61.960205     0.000000     0.032768   -61.927436
	   61 D(4,8,10,17)    =     59.014386     0.000000    -0.022294    58.992092
	   62 D(9,8,10,15)    =     59.950792    -0.000000    -0.028884    59.921908
	   63 D(9,8,10,16)    =    179.115427    -0.000000     0.019301   179.134728
	   64 D(9,8,10,17)    =    -59.909982    -0.000000    -0.035761   -59.945743
	   65 D(10,8,9,12)    =    179.834546    -0.000000     0.004410   179.838956
	   66 D(10,8,9,13)    =    -60.200892    -0.000000     0.011488   -60.189404
	   67 D(10,8,9,14)    =     59.790519    -0.000000     0.008822    59.799341
	   68 D(11,8,9,12)    =    -57.588845    -0.000000     0.022988   -57.565857
	   69 D(11,8,9,13)    =     62.375717     0.000000     0.030066    62.405783
	   70 D(11,8,9,14)    =   -177.632873    -0.000000     0.027401  -177.605472
	   71 D(11,8,10,15)   =    -62.523920    -0.000000    -0.040247   -62.564167
	   72 D(11,8,10,16)   =     56.640715     0.000000     0.007938    56.648652
	   73 D(11,8,10,17)   =    177.615306    -0.000000    -0.047124   177.568181
	   74 R(3,10)         =      3.708579     0.000095    -0.000325     3.708254
	 ---------------------------------------------------------------------------
	Successfully symmetrized geometry.

  ==> Convergence Check <==

  Measures of convergence in internal coordinates in au.
  Criteria marked as inactive (o), active & met (*), and active & unmet ( ).
  ---------------------------------------------------------------------------------------------
   Step     Total Energy     Delta E     MAX Force     RMS Force      MAX Disp      RMS Disp   
  ---------------------------------------------------------------------------------------------
    Convergence Criteria    1.00e-06 *    3.00e-04 *             o    1.20e-03 *             o
  ---------------------------------------------------------------------------------------------
     10    -345.03051356   -1.24e-07 *    6.68e-05 *    1.42e-05 o    1.22e-03      4.30e-04 o  ~
  ---------------------------------------------------------------------------------------------


  **** Optimization is complete! (in 10 steps) ****

  ==> Optimization Summary <==

  Measures of convergence in internal coordinates in au.
  --------------------------------------------------------------------------------------------------------------- ~
   Step         Total Energy             Delta E       MAX Force       RMS Force        MAX Disp        RMS Disp  ~
  --------------------------------------------------------------------------------------------------------------- ~
      1    -345.029027020827   -345.029027020827      0.01344624      0.00259025      0.33558571      0.10739739  ~
      2    -344.938276357535      0.090750663292      0.16395858      0.02938947      0.17289857      0.05710802  ~
      3    -345.019420687207     -0.081144329671      0.04219017      0.00997656      0.10981041      0.03415079  ~
      4    -345.028984869157     -0.009564181950      0.00841683      0.00232760      0.25186419      0.05646756  ~
      5    -345.029152924730     -0.000168055573      0.00747682      0.00186380      0.11164735      0.02315617  ~
      6    -345.030450716934     -0.001297792204      0.00303074      0.00046895      0.09966087      0.02074219  ~
      7    -345.030504985191     -0.000054268257      0.00082898      0.00021454      0.02349857      0.00517755  ~
      8    -345.030512017485     -0.000007032294      0.00035614      0.00009757      0.00749231      0.00172191  ~
      9    -345.030513437140     -0.000001419655      0.00010073      0.00002295      0.00198362      0.00057647  ~
     10    -345.030513560870     -0.000000123730      0.00006679      0.00001425      0.00122185      0.00043028  ~
  --------------------------------------------------------------------------------------------------------------- ~

	Writing optimization data to binary file.
	Final energy is   -345.0305135608700
	Final (previous) structure:
	Cartesian Geometry (in Angstrom)
	    O    -1.3155202747   1.4259678602  -0.5103175387
	    C    -1.0866635146   0.2691151786  -0.4849114931
	    C    -2.1385445210  -0.8028485998  -0.5029139991
	    O     0.1551818313  -0.2258798736  -0.5645959988
	    H    -1.9830001081  -1.4364241473  -1.3669376076
	    H    -3.1204445420  -0.3590287452  -0.5368905440
	    H    -2.0395628773  -1.4261048438   0.3772274651
	    C     1.1076306971   0.1422708940   0.4353913275
	    C     2.4730316241  -0.1949272526  -0.1266233794
	    C     0.8091415026  -0.5824227424   1.7367543891
	    H     1.0325513722   1.2111094371   0.5870836437
	    H     2.6420939468   0.3392329985  -1.0519875678
	    H     3.2469690783   0.0824159057   0.5789438942
	    H     2.5520545979  -1.2574023460  -0.3242187895
	    H     1.5451743990  -0.3153646505   2.4855524075
	    H    -0.1660897177  -0.3117888144   2.1244983009
	    H     0.8390244486  -1.6560615597   1.5925715495
	Saving final (previous) structure.
			--------------------------
			 OPTKING Finished Execution 
			--------------------------

    Final optimized geometry and variables:
    Molecular point group: c1
    Full point group: C1

    Geometry (in Angstrom), charge = 0, multiplicity = 1:

    O           -1.315520274688     1.425967860229    -0.510317538727
    C           -1.086663514627     0.269115178630    -0.484911493065
    C           -2.138544520997    -0.802848599765    -0.502913999052
    O            0.155181831278    -0.225879873628    -0.564595998801
    H           -1.983000108146    -1.436424147275    -1.366937607592
    H           -3.120444542019    -0.359028745174    -0.536890543994
    H           -2.039562877311    -1.426104843757     0.377227465088
    C            1.107630697135     0.142270894025     0.435391327482
    C            2.473031624146    -0.194927252637    -0.126623379387
    C            0.809141502576    -0.582422742371     1.736754389137
    H            1.032551372216     1.211109437097     0.587083643738
    H            2.642093946769     0.339232998508    -1.051987567822
    H            3.246969078302     0.082415905664     0.578943894248
    H            2.552054597880    -1.257402346023    -0.324218789526
    H            1.545174398980    -0.315364650462     2.485552407505
    H           -0.166089717689    -0.311788814409     2.124498300863
    H            0.839024448550    -1.656061559719     1.592571549528

	Cleaning optimization helper files.


Properties will be evaluated at   0.000000,   0.000000,   0.000000 Bohr

Properties computed using the  density matrix

  Nuclear Dipole Moment: (a.u.)
     X:     4.2588      Y:    -4.8029      Z:     4.1814

  Electronic Dipole Moment: (a.u.)
     X:    -3.9171      Y:     3.8707      Z:    -3.6407

  Dipole Moment: (a.u.)
     X:     0.3417      Y:    -0.9322      Z:     0.5407     Total:     1.1305

  Dipole Moment: (Debye)
     X:     0.8685      Y:    -2.3694      Z:     1.3744     Total:     2.8736

  Quadrupole Moment: (Debye Ang)
    XX:   -40.5504     YY:   -47.4715     ZZ:   -42.6712
    XY:     4.9445     XZ:     1.0368     YZ:     1.3801

  Traceless Quadrupole Moment: (Debye Ang)
    XX:     3.0140     YY:    -3.9071     ZZ:     0.8932
    XY:     4.9445     XZ:     1.0368     YZ:     1.3801

  Mulliken Charges: (a.u.)
   Center  Symbol    Alpha    Beta     Spin     Total
       1     O     4.18099  4.18099  0.00000 -0.36198
       2     C     2.80769  2.80769  0.00000  0.38462
       3     C     3.13841  3.13841  0.00000 -0.27683
       4     O     4.17818  4.17818  0.00000 -0.35635
       5     H     0.44340  0.44340  0.00000  0.11321
       6     H     0.43770  0.43770  0.00000  0.12459
       7     H     0.44933  0.44933  0.00000  0.10134
       8     C     2.93149  2.93149  0.00000  0.13702
       9     C     3.14085  3.14085  0.00000 -0.28170
      10     C     3.15700  3.15700  0.00000 -0.31399
      11     H     0.44105  0.44105  0.00000  0.11790
      12     H     0.44285  0.44285  0.00000  0.11431
      13     H     0.45621  0.45621  0.00000  0.08757
      14     H     0.45261  0.45261  0.00000  0.09477
      15     H     0.44429  0.44429  0.00000  0.11142
      16     H     0.44799  0.44799  0.00000  0.10402
      17     H     0.44996  0.44996  0.00000  0.10008

   Total alpha = 28.00000, Total beta = 28.00000, Total charge =  0.00000


*** Psi4 exiting successfully. Buy a developer a beer!
