    -----------------------------------------------------------------------
          Psi4: An Open-Source Ab Initio Electronic Structure Package
                              Psi4 (no tag) Driver

                          Git: Rev {detached?}  

    J. M. Turney, A. C. Simmonett, R. M. Parrish, E. G. Hohenstein,
    F. A. Evangelista, J. T. Fermann, B. J. Mintz, L. A. Burns, J. J. Wilke,
    M. L. Abrams, N. J. Russ, M. L. Leininger, C. L. Janssen, E. T. Seidl,
    W. D. Allen, H. F. Schaefer, R. A. King, E. F. Valeev, C. D. Sherrill,
    and T. D. Crawford, WIREs Comput. Mol. Sci. 2, 556-565 (2012)
    (doi: 10.1002/wcms.93)

                         Additional Contributions by
    A. E. DePrince, M. Saitow, U. Bozkaya, A. Yu. Sokolov
    -----------------------------------------------------------------------


    Psi4 started on: Thu Sep  1 23:23:57 2016

    Process ID:  20734
    PSI4DATADIR: /export131/home/mjharvey/miniconda3/share
    Memory level set to 256.000 MB

  ==> Input File <==

--------------------------------------------------------------------------
set {
	reference rhf
	basis 6-31G*
}


set_num_threads( 1 )
memory 2 gb

molecule MOL {
0 1

H	 -1.002570	 -1.802524	 -4.831077
O	 -1.274316	 -2.667577	 -5.101092
C	 -0.660580	 -3.632923	 -4.285317
C	 -1.240768	 -3.685998	 -2.876313
H	 -0.819082	 -4.581620	 -4.781831
H	 0.415189	 -3.466785	 -4.241760
C	 -1.027720	 -2.404496	 -2.066850
H	 -2.304075	 -3.899206	 -2.949033
H	 -0.784125	 -4.524431	 -2.352982
C	 -1.573182	 -2.508910	 -0.639830
H	 -1.507326	 -1.574890	 -2.578805
H	 0.037118	 -2.174688	 -2.026252
C	 -1.309753	 -1.282496	 0.241564
H	 -2.643966	 -2.700569	 -0.679008
H	 -1.127359	 -3.378582	 -0.161696
C	 -2.037799	 -0.007733	 -0.193645
H	 -1.609590	 -1.522545	 1.259548
H	 -0.238467	 -1.090886	 0.279898
C	 -3.489788	 0.042957	 0.286558
H	 -2.017067	 0.064384	 -1.280144
H	 -1.513726	 0.868678	 0.179924
C	 -4.216917	 1.317354	 -0.141063
H	 -4.025645	 -0.823308	 -0.095450
H	 -3.513059	 -0.038752	 1.371301
H	 -4.239342	 1.411634	 -1.223113
H	 -5.243387	 1.322503	 0.212445
H	 -3.726170	 2.201406	 0.256408

	symmetry c1
}
set optking {
	frozen_dihedral = ("
		14 10 7 4,
		14 10 13 16,
		10 7 4 8,
		8 4 3 2,
		20 16 19 22,
		4 3 2 1
	")
}

ee = energy('scf')
oeprop('DIPOLE', 'QUADRUPOLE', 'MULLIKEN_CHARGES')
f=open( 'psi4out.xyz', 'w' )
f.write( "27  " )
f.write( str(ee) + "\n" )
f.write( MOL.save_string_xyz() )
f.close()
--------------------------------------------------------------------------

  Memory set to   2.000 GiB by Python script.

*** tstart() called on cx1-3-15-4.cx1.hpc.ic.ac.uk
*** at Thu Sep  1 23:23:58 2016


         ---------------------------------------------------------
                                   SCF
            by Justin Turney, Rob Parrish, and Andy Simmonett
                              RHF Reference
                        1 Threads,   2000 MiB Core
         ---------------------------------------------------------

  ==> Geometry <==

    Molecular point group: c1
    Full point group: C1

    Geometry (in Angstrom), charge = 0, multiplicity = 1:

       Center              X                  Y                   Z               Mass       
    ------------   -----------------  -----------------  -----------------  -----------------
           H          0.866277773163    -0.154045812451    -3.128878483236     1.007825032070
           O          0.594531773163    -1.019098812451    -3.398893483236    15.994914619560
           C          1.208267773163    -1.984444812451    -2.583118483236    12.000000000000
           C          0.628079773163    -2.037519812451    -1.174114483236    12.000000000000
           H          1.049765773163    -2.933141812451    -3.079632483236     1.007825032070
           H          2.284036773163    -1.818306812451    -2.539561483236     1.007825032070
           C          0.841127773163    -0.756017812451    -0.364651483236    12.000000000000
           H         -0.435227226837    -2.250727812451    -1.246834483236     1.007825032070
           H          1.084722773163    -2.875952812451    -0.650783483236     1.007825032070
           C          0.295665773163    -0.860431812451     1.062368516764    12.000000000000
           H          0.361521773163     0.073588187549    -0.876606483236     1.007825032070
           H          1.905965773163    -0.526209812451    -0.324053483236     1.007825032070
           C          0.559094773163     0.365982187549     1.943762516764    12.000000000000
           H         -0.775118226837    -1.052090812451     1.023190516764     1.007825032070
           H          0.741488773163    -1.730103812451     1.540502516764     1.007825032070
           C         -0.168951226837     1.640745187549     1.508553516764    12.000000000000
           H          0.259257773163     0.125933187549     2.961746516764     1.007825032070
           H          1.630380773163     0.557592187549     1.982096516764     1.007825032070
           C         -1.620940226837     1.691435187549     1.988756516764    12.000000000000
           H         -0.148219226837     1.712862187549     0.422054516764     1.007825032070
           H          0.355121773163     2.517156187549     1.882122516764     1.007825032070
           C         -2.348069226837     2.965832187549     1.561135516764    12.000000000000
           H         -2.156797226837     0.825170187549     1.606748516764     1.007825032070
           H         -1.644211226837     1.609726187549     3.073499516764     1.007825032070
           H         -2.370494226837     3.060112187549     0.479085516764     1.007825032070
           H         -3.374539226837     2.970981187549     1.914643516764     1.007825032070
           H         -1.857322226837     3.849884187549     1.958606516764     1.007825032070

  Running in c1 symmetry.

  Rotational constants: A =      0.08579  B =      0.01834  C =      0.01622 [cm^-1]
  Rotational constants: A =   2572.04575  B =    549.85825  C =    486.16778 [MHz]
  Nuclear repulsion =  465.685203312570479

  Charge       = 0
  Multiplicity = 1
  Electrons    = 74
  Nalpha       = 37
  Nbeta        = 37

  ==> Algorithm <==

  SCF Algorithm Type is DF.
  DIIS enabled.
  MOM disabled.
  Fractional occupation disabled.
  Guess Type is CORE.
  Energy threshold   = 1.00e-06
  Density threshold  = 1.00e-06
  Integral threshold = 0.00e+00

  ==> Primary Basis <==

  Basis Set: 6-31G*
    Number of shells: 90
    Number of basis function: 171
    Number of Cartesian functions: 171
    Spherical Harmonics?: false
    Max angular momentum: 2

  ==> Pre-Iterations <==

   -------------------------------------------------------
    Irrep   Nso     Nmo     Nalpha   Nbeta   Ndocc  Nsocc
   -------------------------------------------------------
     A        171     171       0       0       0       0
   -------------------------------------------------------
    Total     171     171      37      37      37       0
   -------------------------------------------------------

 OEINTS: Overlap, kinetic, potential, dipole, and quadrupole integrals
         stored in file 35.

  ==> Integral Setup <==

  ==> DFJK: Density-Fitted J/K Matrices <==

    J tasked:                  Yes
    K tasked:                  Yes
    wK tasked:                  No
    OpenMP threads:              1
    Integrals threads:           1
    Memory (MB):              1430
    Algorithm:                Core
    Integral Cache:           NONE
    Schwarz Cutoff:          1E-12
    Fitting Condition:       1E-12

   => Auxiliary Basis Set <=

  Basis Set: 
    Number of shells: 378
    Number of basis function: 1179
    Number of Cartesian functions: 1179
    Spherical Harmonics?: false
    Max angular momentum: 3

  Minimum eigenvalue in the overlap matrix is 3.4074503280E-03.
  Using Symmetric Orthogonalization.
  SCF Guess: Core (One-Electron) Hamiltonian.

  ==> Iterations <==

                           Total Energy        Delta E     RMS |[F,P]|

   @DF-RHF iter   1:  -295.53244515601489   -2.95532e+02   5.84023e-02 
   @DF-RHF iter   2:   -39.89023116084144    2.55642e+02   6.65464e-02 DIIS
   @DF-RHF iter   3:  -245.43448267798772   -2.05544e+02   5.44980e-02 DIIS
   @DF-RHF iter   4:  -250.27654835791952   -4.84207e+00   5.94665e-02 DIIS
   @DF-RHF iter   5:  -365.40517540131555   -1.15129e+02   2.39511e-02 DIIS
   @DF-RHF iter   6:  -363.30406991248367    2.10111e+00   2.49606e-02 DIIS
   @DF-RHF iter   7:  -384.97365217297477   -2.16696e+01   9.39155e-03 DIIS
   @DF-RHF iter   8:  -388.12331251174840   -3.14966e+00   3.11115e-03 DIIS
   @DF-RHF iter   9:  -388.26619837097985   -1.42886e-01   8.49656e-04 DIIS
   @DF-RHF iter  10:  -388.27594449093692   -9.74612e-03   3.45909e-04 DIIS
   @DF-RHF iter  11:  -388.27800208751387   -2.05760e-03   2.00364e-04 DIIS
   @DF-RHF iter  12:  -388.27863815050682   -6.36063e-04   8.67784e-05 DIIS
   @DF-RHF iter  13:  -388.27879069215635   -1.52542e-04   2.87521e-05 DIIS
   @DF-RHF iter  14:  -388.27880846422181   -1.77721e-05   7.04792e-06 DIIS
   @DF-RHF iter  15:  -388.27880959674587   -1.13252e-06   1.63707e-06 DIIS
   @DF-RHF iter  16:  -388.27880966434952   -6.76037e-08   3.04986e-07 DIIS

  ==> Post-Iterations <==

    Orbital Energies (a.u.)
    -----------------------

    Doubly Occupied:                                                      

       1A    -20.552588     2A    -11.267294     3A    -11.220068  
       4A    -11.217335     5A    -11.215578     6A    -11.215302  
       7A    -11.215115     8A    -11.213479     9A    -11.208781  
      10A     -1.359316    11A     -1.096373    12A     -1.060691  
      13A     -1.010323    14A     -0.948813    15A     -0.887463  
      16A     -0.826820    17A     -0.804088    18A     -0.768625  
      19A     -0.693796    20A     -0.654882    21A     -0.633338  
      22A     -0.611481    23A     -0.603914    24A     -0.589712  
      25A     -0.576138    26A     -0.562436    27A     -0.534349  
      28A     -0.526353    29A     -0.509460    30A     -0.492213  
      31A     -0.488732    32A     -0.481907    33A     -0.466916  
      34A     -0.452652    35A     -0.447408    36A     -0.444310  
      37A     -0.423988  

    Virtual:                                                              

      38A      0.215884    39A      0.231702    40A      0.246370  
      41A      0.258277    42A      0.260905    43A      0.274087  
      44A      0.293501    45A      0.302537    46A      0.314890  
      47A      0.320093    48A      0.322954    49A      0.330793  
      50A      0.336512    51A      0.340462    52A      0.350977  
      53A      0.361058    54A      0.388183    55A      0.391853  
      56A      0.402656    57A      0.414766    58A      0.428016  
      59A      0.439192    60A      0.445826    61A      0.453532  
      62A      0.473633    63A      0.504140    64A      0.702977  
      65A      0.703784    66A      0.711345    67A      0.730184  
      68A      0.750042    69A      0.764557    70A      0.775012  
      71A      0.789288    72A      0.814153    73A      0.828622  
      74A      0.868185    75A      0.910793    76A      0.918303  
      77A      0.934059    78A      0.957904    79A      0.964241  
      80A      0.978876    81A      0.994670    82A      1.020176  
      83A      1.071905    84A      1.086872    85A      1.094559  
      86A      1.118978    87A      1.137560    88A      1.138449  
      89A      1.150924    90A      1.166346    91A      1.172864  
      92A      1.178766    93A      1.179962    94A      1.192414  
      95A      1.201038    96A      1.201205    97A      1.206250  
      98A      1.224014    99A      1.237227   100A      1.239035  
     101A      1.241311   102A      1.270191   103A      1.277921  
     104A      1.300767   105A      1.314746   106A      1.336103  
     107A      1.364492   108A      1.396340   109A      1.440037  
     110A      1.491196   111A      1.552470   112A      1.649392  
     113A      1.673075   114A      1.703079   115A      1.732582  
     116A      1.765761   117A      1.816015   118A      1.827600  
     119A      1.876133   120A      1.907223   121A      1.946547  
     122A      1.975985   123A      2.018808   124A      2.054286  
     125A      2.111268   126A      2.129948   127A      2.157220  
     128A      2.192450   129A      2.200852   130A      2.235948  
     131A      2.245375   132A      2.278826   133A      2.284764  
     134A      2.301619   135A      2.303176   136A      2.324115  
     137A      2.391544   138A      2.406502   139A      2.458073  
     140A      2.473003   141A      2.497708   142A      2.533841  
     143A      2.581923   144A      2.630573   145A      2.655662  
     146A      2.668719   147A      2.703852   148A      2.705582  
     149A      2.719845   150A      2.746234   151A      2.777813  
     152A      2.808779   153A      2.840518   154A      2.891325  
     155A      2.919073   156A      2.963237   157A      3.007936  
     158A      3.039480   159A      3.101269   160A      3.127344  
     161A      3.167162   162A      3.218518   163A      4.186089  
     164A      4.548354   165A      4.605416   166A      4.693882  
     167A      4.774335   168A      4.825348   169A      4.889196  
     170A      4.972547   171A      5.004072  

    Final Occupation by Irrep:
              A 
    DOCC [    37 ]

  Energy converged.

  @DF-RHF Final Energy:  -388.27880966434952

   => Energetics <=

    Nuclear Repulsion Energy =            465.6852033125704793
    One-Electron Energy =               -1449.3640904814326404
    Two-Electron Energy =                 595.4000775045120690
    DFT Exchange-Correlation Energy =       0.0000000000000000
    Empirical Dispersion Energy =           0.0000000000000000
    PCM Polarization Energy =               0.0000000000000000
    EFP Energy =                            0.0000000000000000
    Total Energy =                       -388.2788096643500921

    Alert: EFP and PCM quantities not currently incorporated into SCF psivars.

Properties will be evaluated at   0.000000,   0.000000,   0.000000 Bohr
  ==> Properties <==


Properties computed using the SCF density matrix

  Nuclear Dipole Moment: (a.u.)
     X:    -2.0815      Y:     3.7098      Z:     6.5440

  Electronic Dipole Moment: (a.u.)
     X:     2.4754      Y:    -3.5771      Z:    -5.9317

  Dipole Moment: (a.u.)
     X:     0.3939      Y:     0.1326      Z:     0.6123     Total:     0.7400

  Dipole Moment: (Debye)
     X:     1.0012      Y:     0.3371      Z:     1.5563     Total:     1.8810


  Saving occupied orbitals to File 180.

*** tstop() called on cx1-3-15-4.cx1.hpc.ic.ac.uk at Thu Sep  1 23:24:26 2016
Module time:
	user time   =      27.33 seconds =       0.46 minutes
	system time =       0.23 seconds =       0.00 minutes
	total time  =         28 seconds =       0.47 minutes
Total time:
	user time   =      27.33 seconds =       0.46 minutes
	system time =       0.23 seconds =       0.00 minutes
	total time  =         28 seconds =       0.47 minutes


Properties will be evaluated at   0.000000,   0.000000,   0.000000 Bohr

Properties computed using the  density matrix

  Nuclear Dipole Moment: (a.u.)
     X:    -2.0815      Y:     3.7098      Z:     6.5440

  Electronic Dipole Moment: (a.u.)
     X:     2.4754      Y:    -3.5771      Z:    -5.9317

  Dipole Moment: (a.u.)
     X:     0.3939      Y:     0.1326      Z:     0.6123     Total:     0.7400

  Dipole Moment: (Debye)
     X:     1.0012      Y:     0.3371      Z:     1.5563     Total:     1.8810

  Quadrupole Moment: (Debye Ang)
    XX:   -58.8655     YY:   -58.9446     ZZ:   -69.5731
    XY:    -0.4841     XZ:    -2.1598     YZ:    -2.9217

  Traceless Quadrupole Moment: (Debye Ang)
    XX:     3.5956     YY:     3.5164     ZZ:    -7.1120
    XY:    -0.4841     XZ:    -2.1598     YZ:    -2.9217

  Mulliken Charges: (a.u.)
   Center  Symbol    Alpha    Beta     Spin     Total
       1     H     0.27980  0.27980  0.00000  0.44039
       2     O     4.37098  4.37098  0.00000 -0.74195
       3     C     2.99742  2.99742  0.00000  0.00516
       4     C     3.16069  3.16069  0.00000 -0.32138
       5     H     0.41437  0.41437  0.00000  0.17125
       6     H     0.43193  0.43193  0.00000  0.13615
       7     C     3.16293  3.16293  0.00000 -0.32586
       8     H     0.41510  0.41510  0.00000  0.16980
       9     H     0.42418  0.42418  0.00000  0.15163
      10     C     3.15365  3.15365  0.00000 -0.30731
      11     H     0.42369  0.42369  0.00000  0.15262
      12     H     0.42514  0.42514  0.00000  0.14973
      13     C     3.15671  3.15671  0.00000 -0.31342
      14     H     0.42072  0.42072  0.00000  0.15856
      15     H     0.42093  0.42093  0.00000  0.15814
      16     C     3.15464  3.15464  0.00000 -0.30929
      17     H     0.42076  0.42076  0.00000  0.15848
      18     H     0.42215  0.42215  0.00000  0.15570
      19     C     3.15284  3.15284  0.00000 -0.30568
      20     H     0.42339  0.42339  0.00000  0.15321
      21     H     0.42107  0.42107  0.00000  0.15785
      22     C     3.23905  3.23905  0.00000 -0.47810
      23     H     0.42199  0.42199  0.00000  0.15603
      24     H     0.42280  0.42280  0.00000  0.15439
      25     H     0.42189  0.42189  0.00000  0.15623
      26     H     0.41918  0.41918  0.00000  0.16164
      27     H     0.42199  0.42199  0.00000  0.15601

   Total alpha = 37.00000, Total beta = 37.00000, Total charge = -0.00000


*** PSI4 exiting successfully. Buy a developer a beer!
