    -----------------------------------------------------------------------
          Psi4: An Open-Source Ab Initio Electronic Structure Package
                              Psi4 (no tag) Driver

                          Git: Rev {detached?}  

    J. M. Turney, A. C. Simmonett, R. M. Parrish, E. G. Hohenstein,
    F. A. Evangelista, J. T. Fermann, B. J. Mintz, L. A. Burns, J. J. Wilke,
    M. L. Abrams, N. J. Russ, M. L. Leininger, C. L. Janssen, E. T. Seidl,
    W. D. Allen, H. F. Schaefer, R. A. King, E. F. Valeev, C. D. Sherrill,
    and T. D. Crawford, WIREs Comput. Mol. Sci. 2, 556-565 (2012)
    (doi: 10.1002/wcms.93)

                         Additional Contributions by
    A. E. DePrince, M. Saitow, U. Bozkaya, A. Yu. Sokolov
    -----------------------------------------------------------------------


    Psi4 started on: Thu Sep  1 22:09:14 2016

    Process ID:  31440
    PSI4DATADIR: /export131/home/mjharvey/miniconda3/share
    Memory level set to 256.000 MB

  ==> Input File <==

--------------------------------------------------------------------------
set {
	reference rhf
	basis 6-31G*
}


set_num_threads( 1 )
memory 2 gb

molecule MOL {
0 1

H	 -0.679546	 -1.398891	 0.670623
N	 -0.626943	 -0.667432	 -0.000092
C	 -1.726037	 -0.507623	 -0.924846
C	 0.469286	 0.129090	 0.000148
H	 -1.860397	 -1.400360	 -1.526488
H	 -1.501315	 0.322074	 -1.575100
H	 -2.651250	 -0.300993	 -0.397288
C	 1.788933	 -0.616240	 -0.000037
O	 0.411098	 1.327768	 -0.000049
H	 1.872803	 -1.245775	 -0.880381
H	 2.595421	 0.101576	 0.003713
H	 1.870096	 -1.252171	 0.875943

	symmetry c1
}
set optking {
	frozen_dihedral = ("
		4 2 3 5
	")
}

ee = energy('scf')
oeprop('DIPOLE', 'QUADRUPOLE', 'MULLIKEN_CHARGES')
f=open( 'psi4out.xyz', 'w' )
f.write( "12  " )
f.write( str(ee) + "\n" )
f.write( MOL.save_string_xyz() )
f.close()
--------------------------------------------------------------------------

  Memory set to   2.000 GiB by Python script.

*** tstart() called on cx1-3-15-1.cx1.hpc.ic.ac.uk
*** at Thu Sep  1 22:09:14 2016


         ---------------------------------------------------------
                                   SCF
            by Justin Turney, Rob Parrish, and Andy Simmonett
                              RHF Reference
                        1 Threads,   2000 MiB Core
         ---------------------------------------------------------

  ==> Geometry <==

    Molecular point group: c1
    Full point group: C1

    Geometry (in Angstrom), charge = 0, multiplicity = 1:

       Center              X                  Y                   Z               Mass       
    ------------   -----------------  -----------------  -----------------  -----------------
           H         -0.731913254166    -1.326876327880     0.861580961646     1.007825032070
           N         -0.679310254166    -0.595417327880     0.190865961646    14.003074004780
           C         -1.778404254166    -0.435608327880    -0.733888038354    12.000000000000
           C          0.416918745834     0.201104672120     0.191105961646    12.000000000000
           H         -1.912764254166    -1.328345327880    -1.335530038354     1.007825032070
           H         -1.553682254166     0.394088672120    -1.384142038354     1.007825032070
           H         -2.703617254166    -0.228978327880    -0.206330038354     1.007825032070
           C          1.736565745834    -0.544225327880     0.190920961646    12.000000000000
           O          0.358730745834     1.399782672120     0.190908961646    15.994914619560
           H          1.820435745834    -1.173760327880    -0.689423038354     1.007825032070
           H          2.543053745834     0.173590672120     0.194670961646     1.007825032070
           H          1.817728745834    -1.180156327880     1.066900961646     1.007825032070

  Running in c1 symmetry.

  Rotational constants: A =      0.30666  B =      0.13077  C =      0.10053 [cm^-1]
  Rotational constants: A =   9193.33255  B =   3920.52331  C =   3013.82541 [MHz]
  Nuclear repulsion =  180.968231355404100

  Charge       = 0
  Multiplicity = 1
  Electrons    = 40
  Nalpha       = 20
  Nbeta        = 20

  ==> Algorithm <==

  SCF Algorithm Type is DF.
  DIIS enabled.
  MOM disabled.
  Fractional occupation disabled.
  Guess Type is CORE.
  Energy threshold   = 1.00e-06
  Density threshold  = 1.00e-06
  Integral threshold = 0.00e+00

  ==> Primary Basis <==

  Basis Set: 6-31G*
    Number of shells: 44
    Number of basis function: 89
    Number of Cartesian functions: 89
    Spherical Harmonics?: false
    Max angular momentum: 2

  ==> Pre-Iterations <==

   -------------------------------------------------------
    Irrep   Nso     Nmo     Nalpha   Nbeta   Ndocc  Nsocc
   -------------------------------------------------------
     A         89      89       0       0       0       0
   -------------------------------------------------------
    Total      89      89      20      20      20       0
   -------------------------------------------------------

 OEINTS: Overlap, kinetic, potential, dipole, and quadrupole integrals
         stored in file 35.

  ==> Integral Setup <==

  ==> DFJK: Density-Fitted J/K Matrices <==

    J tasked:                  Yes
    K tasked:                  Yes
    wK tasked:                  No
    OpenMP threads:              1
    Integrals threads:           1
    Memory (MB):              1430
    Algorithm:                Core
    Integral Cache:           NONE
    Schwarz Cutoff:          1E-12
    Fitting Condition:       1E-12

   => Auxiliary Basis Set <=

  Basis Set: 
    Number of shells: 183
    Number of basis function: 580
    Number of Cartesian functions: 580
    Spherical Harmonics?: false
    Max angular momentum: 3

  Minimum eigenvalue in the overlap matrix is 4.1539178140E-03.
  Using Symmetric Orthogonalization.
  SCF Guess: Core (One-Electron) Hamiltonian.

  ==> Iterations <==

                           Total Energy        Delta E     RMS |[F,P]|

   @DF-RHF iter   1:  -191.19932142788207   -1.91199e+02   8.68617e-02 
   @DF-RHF iter   2:  -191.81818998176732   -6.18869e-01   5.92843e-02 DIIS
   @DF-RHF iter   3:  -216.68782666989551   -2.48696e+01   6.62889e-02 DIIS
   @DF-RHF iter   4:  -242.35282458514536   -2.56650e+01   2.91830e-02 DIIS
   @DF-RHF iter   5:  -245.70613350004436   -3.35331e+00   1.59652e-02 DIIS
   @DF-RHF iter   6:  -246.72092745716566   -1.01479e+00   6.94630e-03 DIIS
   @DF-RHF iter   7:  -246.94998567986170   -2.29058e-01   2.26248e-03 DIIS
   @DF-RHF iter   8:  -246.97798077470765   -2.79951e-02   6.35186e-04 DIIS
   @DF-RHF iter   9:  -246.98111494738851   -3.13417e-03   2.69774e-04 DIIS
   @DF-RHF iter  10:  -246.98175357810561   -6.38631e-04   9.58667e-05 DIIS
   @DF-RHF iter  11:  -246.98191386273146   -1.60285e-04   3.58243e-05 DIIS
   @DF-RHF iter  12:  -246.98192889905465   -1.50363e-05   1.43519e-05 DIIS
   @DF-RHF iter  13:  -246.98193016798820   -1.26893e-06   5.49010e-06 DIIS
   @DF-RHF iter  14:  -246.98193036375068   -1.95762e-07   1.00419e-06 DIIS
   @DF-RHF iter  15:  -246.98193037466314   -1.09125e-08   2.35166e-07 DIIS

  ==> Post-Iterations <==

    Orbital Energies (a.u.)
    -----------------------

    Doubly Occupied:                                                      

       1A    -20.531848     2A    -15.562393     3A    -11.345323  
       4A    -11.258093     5A    -11.226468     6A     -1.390655  
       7A     -1.223498     8A     -1.010627     9A     -0.933539  
      10A     -0.784191    11A     -0.686266    12A     -0.647034  
      13A     -0.637063    14A     -0.585693    15A     -0.582699  
      16A     -0.559969    17A     -0.548588    18A     -0.494352  
      19A     -0.419550    20A     -0.375544  

    Virtual:                                                              

      21A      0.182258    22A      0.225134    23A      0.267756  
      24A      0.285238    25A      0.308596    26A      0.310964  
      27A      0.328748    28A      0.335506    29A      0.381645  
      30A      0.421804    31A      0.515939    32A      0.601374  
      33A      0.721789    34A      0.731703    35A      0.762541  
      36A      0.777066    37A      0.799760    38A      0.826860  
      39A      0.873147    40A      0.945677    41A      0.988538  
      42A      1.032454    43A      1.057306    44A      1.065177  
      45A      1.119006    46A      1.143371    47A      1.157871  
      48A      1.186243    49A      1.205762    50A      1.209990  
      51A      1.226094    52A      1.234383    53A      1.309894  
      54A      1.329016    55A      1.379045    56A      1.401886  
      57A      1.516736    58A      1.668966    59A      1.740598  
      60A      1.767436    61A      1.883562    62A      1.941770  
      63A      2.042709    64A      2.099152    65A      2.129656  
      66A      2.183627    67A      2.232415    68A      2.245869  
      69A      2.329697    70A      2.357892    71A      2.431502  
      72A      2.450115    73A      2.566975    74A      2.604988  
      75A      2.622358    76A      2.658710    77A      2.775724  
      78A      2.823834    79A      2.915558    80A      3.039448  
      81A      3.101559    82A      3.247986    83A      3.366785  
      84A      3.504681    85A      4.368699    86A      4.457738  
      87A      4.607629    88A      4.702467    89A      4.861308  

    Final Occupation by Irrep:
              A 
    DOCC [    20 ]

  Energy converged.

  @DF-RHF Final Energy:  -246.98193037466314

   => Energetics <=

    Nuclear Repulsion Energy =            180.9682313554041002
    One-Electron Energy =                -694.2935086516536103
    Two-Electron Energy =                 266.3433469215864307
    DFT Exchange-Correlation Energy =       0.0000000000000000
    Empirical Dispersion Energy =           0.0000000000000000
    PCM Polarization Energy =               0.0000000000000000
    EFP Energy =                            0.0000000000000000
    Total Energy =                       -246.9819303746630794

    Alert: EFP and PCM quantities not currently incorporated into SCF psivars.

Properties will be evaluated at   0.000000,   0.000000,   0.000000 Bohr
  ==> Properties <==


Properties computed using the SCF density matrix

  Nuclear Dipole Moment: (a.u.)
     X:    -0.6720      Y:    -4.3699      Z:    -1.3986

  Electronic Dipole Moment: (a.u.)
     X:     0.4926      Y:     2.9259      Z:     1.3612

  Dipole Moment: (a.u.)
     X:    -0.1794      Y:    -1.4441      Z:    -0.0374     Total:     1.4557

  Dipole Moment: (Debye)
     X:    -0.4561      Y:    -3.6704      Z:    -0.0950     Total:     3.6999


  Saving occupied orbitals to File 180.

*** tstop() called on cx1-3-15-1.cx1.hpc.ic.ac.uk at Thu Sep  1 22:09:19 2016
Module time:
	user time   =       4.21 seconds =       0.07 minutes
	system time =       0.02 seconds =       0.00 minutes
	total time  =          5 seconds =       0.08 minutes
Total time:
	user time   =       4.21 seconds =       0.07 minutes
	system time =       0.02 seconds =       0.00 minutes
	total time  =          5 seconds =       0.08 minutes


Properties will be evaluated at   0.000000,   0.000000,   0.000000 Bohr

Properties computed using the  density matrix

  Nuclear Dipole Moment: (a.u.)
     X:    -0.6720      Y:    -4.3699      Z:    -1.3986

  Electronic Dipole Moment: (a.u.)
     X:     0.4926      Y:     2.9259      Z:     1.3612

  Dipole Moment: (a.u.)
     X:    -0.1794      Y:    -1.4441      Z:    -0.0374     Total:     1.4557

  Dipole Moment: (Debye)
     X:    -0.4561      Y:    -3.6704      Z:    -0.0950     Total:     3.6999

  Quadrupole Moment: (Debye Ang)
    XX:   -28.0787     YY:   -34.4816     ZZ:   -29.0666
    XY:    -0.2758     XZ:     0.7595     YZ:    -2.0489

  Traceless Quadrupole Moment: (Debye Ang)
    XX:     2.4636     YY:    -3.9393     ZZ:     1.4757
    XY:    -0.2758     XZ:     0.7595     YZ:    -2.0489

  Mulliken Charges: (a.u.)
   Center  Symbol    Alpha    Beta     Spin     Total
       1     H     0.31133  0.31133  0.00000  0.37733
       2     N     3.89593  3.89593  0.00000 -0.79186
       3     C     3.13474  3.13474  0.00000 -0.26949
       4     C     2.64941  2.64941  0.00000  0.70118
       5     H     0.41860  0.41860  0.00000  0.16279
       6     H     0.39986  0.39986  0.00000  0.20029
       7     H     0.41500  0.41500  0.00000  0.16999
       8     C     3.28309  3.28309  0.00000 -0.56619
       9     O     4.27484  4.27484  0.00000 -0.54969
      10     H     0.40593  0.40593  0.00000  0.18813
      11     H     0.39808  0.39808  0.00000  0.20385
      12     H     0.41317  0.41317  0.00000  0.17366

   Total alpha = 20.00000, Total beta = 20.00000, Total charge = -0.00000


*** PSI4 exiting successfully. Buy a developer a beer!
