    -----------------------------------------------------------------------
          Psi4: An Open-Source Ab Initio Electronic Structure Package
                              Psi4 1.0.54 Driver

                          Git: Rev {master} 8d4cec3 dirty

    J. M. Turney, A. C. Simmonett, R. M. Parrish, E. G. Hohenstein,
    F. A. Evangelista, J. T. Fermann, B. J. Mintz, L. A. Burns, J. J. Wilke,
    M. L. Abrams, N. J. Russ, M. L. Leininger, C. L. Janssen, E. T. Seidl,
    W. D. Allen, H. F. Schaefer, R. A. King, E. F. Valeev, C. D. Sherrill,
    and T. D. Crawford, WIREs Comput. Mol. Sci. 2, 556-565 (2012)
    (doi: 10.1002/wcms.93)

                         Additional Contributions by
    A. E. DePrince, U. Bozkaya, A. Yu. Sokolov, D. G. A. Smith, R. Di Remigio,
    R. M. Richard, J. F. Gonthier, H. R. McAlexander, M. Saitow, and
    B. P. Pritchard
    -----------------------------------------------------------------------


    Psi4 started on: Sat Sep 10 16:54:32 2016

    Process ID:   9698
    PSI4DATADIR: /export131/home/mjharvey/miniconda3/share/psi4
    Memory level set to 256.000 MB

  ==> Input File <==

--------------------------------------------------------------------------
set {
	reference rhf
	basis cc-pvtz
}


set_num_threads( 4 )
memory 2 gb

molecule MOL {
0 1

H	 2.301515	 0.774395	 -1.172622
O	 1.440530	 0.387750	 -1.226892
C	 1.050374	 0.054877	 0.000135
C	 -0.318151	 -0.570512	 0.000144
O	 1.728722	 0.245365	 0.949622
C	 -1.454884	 0.441630	 -0.000560
H	 -0.371613	 -1.223646	 -0.864985
H	 -0.371920	 -1.222758	 0.865929
C	 -2.822577	 -0.232186	 0.000063
H	 -1.359760	 1.084704	 -0.867077
H	 -1.359641	 1.085996	 0.864983
H	 -2.954352	 -0.858985	 -0.875745
H	 -3.615886	 0.505352	 0.000019
H	 -2.953878	 -0.858359	 0.876394

	symmetry c1
}
set optking {
	frozen_dihedral = ("
		2 3 4 7
	")
}

ee,wfn = optimize('scf', return_wfn=True)
oeprop( wfn, 'DIPOLE', 'QUADRUPOLE', 'MULLIKEN_CHARGES')
f=open( 'psi4out.xyz', 'w' )
f.write( "14  " )
f.write( str(ee) + "\n" )
f.write( MOL.save_string_xyz() )
f.close()
--------------------------------------------------------------------------

  Memory set to   2.000 GiB by Python script.
gradient() will perform analytic gradient computation.

*** tstart() called on cx1-27-3-1
*** at Sat Sep 10 16:54:33 2016


         ---------------------------------------------------------
                                   SCF
            by Justin Turney, Rob Parrish, and Andy Simmonett
                              RHF Reference
                        4 Threads,   2000 MiB Core
         ---------------------------------------------------------

  ==> Geometry <==

    Molecular point group: c1
    Full point group: C1

    Geometry (in Angstrom), charge = 0, multiplicity = 1:

       Center              X                  Y                   Z               Mass       
    ------------   -----------------  -----------------  -----------------  -----------------
           H          2.331271027417     0.709281001454    -1.108798553161     1.007825032070
           O          1.470286027417     0.322636001454    -1.163068553161    15.994914619560
           C          1.080130027417    -0.010236998546     0.063958446839    12.000000000000
           C         -0.288394972583    -0.635625998546     0.063967446839    12.000000000000
           O          1.758478027417     0.180251001454     1.013445446839    15.994914619560
           C         -1.425127972583     0.376516001454     0.063263446839    12.000000000000
           H         -0.341856972583    -1.288759998546    -0.801161553161     1.007825032070
           H         -0.342163972583    -1.287871998546     0.929752446839     1.007825032070
           C         -2.792820972583    -0.297299998546     0.063886446839    12.000000000000
           H         -1.330003972583     1.019590001454    -0.803253553161     1.007825032070
           H         -1.329884972583     1.020882001454     0.928806446839     1.007825032070
           H         -2.924595972583    -0.924098998546    -0.811921553161     1.007825032070
           H         -3.586129972583     0.440238001454     0.063842446839     1.007825032070
           H         -2.924121972583    -0.923472998546     0.940217446839     1.007825032070

  Running in c1 symmetry.

  Rotational constants: A =      0.28269  B =      0.06159  C =      0.05561 [cm^-1]
  Rotational constants: A =   8474.84824  B =   1846.29431  C =   1667.24770 [MHz]
  Nuclear repulsion =  240.573151125189781

  Charge       = 0
  Multiplicity = 1
  Electrons    = 48
  Nalpha       = 24
  Nbeta        = 24

  ==> Algorithm <==

  SCF Algorithm Type is DF.
  DIIS enabled.
  MOM disabled.
  Fractional occupation disabled.
  Guess Type is SAD.
  Energy threshold   = 1.00e-08
  Density threshold  = 1.00e-08
  Integral threshold = 0.00e+00

  ==> Primary Basis <==

  Basis Set: CC-PVTZ
    Number of shells: 108
    Number of basis function: 292
    Number of Cartesian functions: 330
    Spherical Harmonics?: true
    Max angular momentum: 3

  ==> Pre-Iterations <==

   -------------------------------------------------------
    Irrep   Nso     Nmo     Nalpha   Nbeta   Ndocc  Nsocc
   -------------------------------------------------------
     A        292     292       0       0       0       0
   -------------------------------------------------------
    Total     292     292      24      24      24       0
   -------------------------------------------------------

  ==> Integral Setup <==

  ==> DFJK: Density-Fitted J/K Matrices <==

    J tasked:                  Yes
    K tasked:                  Yes
    wK tasked:                  No
    OpenMP threads:              4
    Integrals threads:           4
    Memory (MB):              1430
    Algorithm:                Core
    Integral Cache:           NONE
    Schwarz Cutoff:          1E-12
    Fitting Condition:       1E-12

   => Auxiliary Basis Set <=

  Basis Set: 
    Number of shells: 230
    Number of basis function: 714
    Number of Cartesian functions: 856
    Spherical Harmonics?: true
    Max angular momentum: 4

  Minimum eigenvalue in the overlap matrix is 3.9925925852E-04.
  Using Symmetric Orthogonalization.
  SCF Guess: Superposition of Atomic Densities via on-the-fly atomic UHF.

  ==> Iterations <==

                           Total Energy        Delta E     RMS |[F,P]|

   @DF-RHF iter   0:  -308.58129530244281   -3.08581e+02   1.69601e-02 
   @DF-RHF iter   1:  -305.78420957129794    2.79709e+00   2.29025e-03 
   @DF-RHF iter   2:  -305.93403489394194   -1.49825e-01   1.39765e-03 DIIS
   @DF-RHF iter   3:  -305.99380187014953   -5.97670e-02   3.04391e-04 DIIS
   @DF-RHF iter   4:  -305.99837427314623   -4.57240e-03   1.05895e-04 DIIS
   @DF-RHF iter   5:  -305.99895855653557   -5.84283e-04   3.22190e-05 DIIS
   @DF-RHF iter   6:  -305.99903318062314   -7.46241e-05   1.07491e-05 DIIS
   @DF-RHF iter   7:  -305.99904361903936   -1.04384e-05   3.08406e-06 DIIS
   @DF-RHF iter   8:  -305.99904478716866   -1.16813e-06   1.26678e-06 DIIS
   @DF-RHF iter   9:  -305.99904506754166   -2.80373e-07   5.11448e-07 DIIS
   @DF-RHF iter  10:  -305.99904512390509   -5.63634e-08   1.76457e-07 DIIS
   @DF-RHF iter  11:  -305.99904512898428   -5.07919e-09   6.25978e-08 DIIS
   @DF-RHF iter  12:  -305.99904512956363   -5.79348e-10   1.42489e-08 DIIS
   @DF-RHF iter  13:  -305.99904512959114   -2.75122e-11   3.07520e-09 DIIS

  ==> Post-Iterations <==

    Orbital Energies (a.u.)
    -----------------------

    Doubly Occupied:                                                      

       1A    -20.604769     2A    -20.539733     3A    -11.372847  
       4A    -11.237785     5A    -11.234090     6A    -11.219958  
       7A     -1.477609     8A     -1.368527     9A     -1.088727  
      10A     -0.981376    11A     -0.855112    12A     -0.811340  
      13A     -0.706212    14A     -0.688057    15A     -0.642307  
      16A     -0.639477    17A     -0.597500    18A     -0.569567  
      19A     -0.550443    20A     -0.520840    21A     -0.502626  
      22A     -0.489184    23A     -0.476911    24A     -0.441530  

    Virtual:                                                              

      25A      0.136111    26A      0.156962    27A      0.173815  
      28A      0.182484    29A      0.184355    30A      0.202187  
      31A      0.225982    32A      0.229938    33A      0.253375  
      34A      0.303811    35A      0.311024    36A      0.354518  
      37A      0.366607    38A      0.389285    39A      0.415122  
      40A      0.435073    41A      0.441292    42A      0.447515  
      43A      0.492285    44A      0.505194    45A      0.539447  
      46A      0.570771    47A      0.573593    48A      0.579712  
      49A      0.609365    50A      0.617799    51A      0.627125  
      52A      0.631812    53A      0.652466    54A      0.667765  
      55A      0.676496    56A      0.677628    57A      0.688977  
      58A      0.727609    59A      0.735674    60A      0.754073  
      61A      0.762010    62A      0.794726    63A      0.807240  
      64A      0.824693    65A      0.865075    66A      0.872857  
      67A      0.890739    68A      0.924905    69A      0.943700  
      70A      0.971596    71A      0.989862    72A      1.003273  
      73A      1.007877    74A      1.033596    75A      1.080603  
      76A      1.092880    77A      1.133615    78A      1.150609  
      79A      1.188580    80A      1.223261    81A      1.230269  
      82A      1.256954    83A      1.272291    84A      1.281147  
      85A      1.295345    86A      1.313673    87A      1.345901  
      88A      1.348021    89A      1.366161    90A      1.382243  
      91A      1.407174    92A      1.414325    93A      1.442876  
      94A      1.463881    95A      1.468634    96A      1.479236  
      97A      1.503290    98A      1.526095    99A      1.540911  
     100A      1.558652   101A      1.572025   102A      1.605061  
     103A      1.643744   104A      1.649199   105A      1.680456  
     106A      1.711895   107A      1.734310   108A      1.783113  
     109A      1.795034   110A      1.824301   111A      1.828007  
     112A      1.885427   113A      1.904757   114A      1.925198  
     115A      1.990950   116A      2.046964   117A      2.049983  
     118A      2.230409   119A      2.285803   120A      2.314192  
     121A      2.360351   122A      2.392388   123A      2.447455  
     124A      2.494707   125A      2.543295   126A      2.567940  
     127A      2.575153   128A      2.637109   129A      2.676690  
     130A      2.704372   131A      2.739281   132A      2.747959  
     133A      2.790975   134A      2.810084   135A      2.838464  
     136A      2.846379   137A      2.868541   138A      2.902285  
     139A      2.928051   140A      2.954515   141A      2.978446  
     142A      3.012047   143A      3.030576   144A      3.062714  
     145A      3.094277   146A      3.117488   147A      3.133278  
     148A      3.153136   149A      3.189425   150A      3.208293  
     151A      3.240298   152A      3.264001   153A      3.290074  
     154A      3.304848   155A      3.337033   156A      3.341114  
     157A      3.353777   158A      3.388713   159A      3.398388  
     160A      3.407188   161A      3.415318   162A      3.433409  
     163A      3.447750   164A      3.481555   165A      3.491630  
     166A      3.506365   167A      3.529462   168A      3.548788  
     169A      3.566649   170A      3.581446   171A      3.621938  
     172A      3.626973   173A      3.652144   174A      3.662675  
     175A      3.694640   176A      3.721893   177A      3.761439  
     178A      3.765837   179A      3.783905   180A      3.826902  
     181A      3.828286   182A      3.853458   183A      3.870682  
     184A      3.890545   185A      3.911165   186A      3.929362  
     187A      3.968798   188A      3.987108   189A      3.998197  
     190A      4.028053   191A      4.057305   192A      4.114531  
     193A      4.125759   194A      4.135917   195A      4.138536  
     196A      4.150513   197A      4.164315   198A      4.187553  
     199A      4.199499   200A      4.216718   201A      4.226440  
     202A      4.260741   203A      4.295791   204A      4.311475  
     205A      4.325648   206A      4.361986   207A      4.380490  
     208A      4.392159   209A      4.412413   210A      4.448497  
     211A      4.458318   212A      4.469682   213A      4.505560  
     214A      4.530185   215A      4.573946   216A      4.596246  
     217A      4.611632   218A      4.629902   219A      4.642273  
     220A      4.649732   221A      4.666355   222A      4.695040  
     223A      4.715472   224A      4.769002   225A      4.796077  
     226A      4.830605   227A      4.881533   228A      4.911585  
     229A      4.961682   230A      4.999766   231A      5.038001  
     232A      5.098701   233A      5.133303   234A      5.171090  
     235A      5.203041   236A      5.228959   237A      5.254659  
     238A      5.281181   239A      5.305525   240A      5.339896  
     241A      5.377640   242A      5.394700   243A      5.429233  
     244A      5.472211   245A      5.531197   246A      5.585202  
     247A      5.597746   248A      5.632123   249A      5.644538  
     250A      5.690871   251A      5.699422   252A      5.741031  
     253A      5.755825   254A      5.762208   255A      5.790825  
     256A      5.863886   257A      5.872444   258A      5.888709  
     259A      5.920767   260A      5.929652   261A      6.005161  
     262A      6.049198   263A      6.090024   264A      6.260531  
     265A      6.304218   266A      6.314365   267A      6.334875  
     268A      6.432611   269A      6.508411   270A      6.656578  
     271A      6.788043   272A      6.813037   273A      6.873473  
     274A      6.965592   275A      7.036364   276A      7.048628  
     277A      7.101120   278A      7.197937   279A      7.283136  
     280A      7.318007   281A      7.400228   282A      7.461954  
     283A      7.603061   284A      7.736442   285A      7.846397  
     286A      8.030112   287A      9.926624   288A     13.148893  
     289A     13.273255   290A     13.784943   291A     14.204147  
     292A     14.285089  

    Final Occupation by Irrep:
              A 
    DOCC [    24 ]

  Energy converged.

  @DF-RHF Final Energy:  -305.99904512959114

   => Energetics <=

    Nuclear Repulsion Energy =            240.5731511251897814
    One-Electron Energy =                -893.9113406725175537
    Two-Electron Energy =                 347.3391444177364065
    DFT Exchange-Correlation Energy =       0.0000000000000000
    Empirical Dispersion Energy =           0.0000000000000000
    PCM Polarization Energy =               0.0000000000000000
    EFP Energy =                            0.0000000000000000
    Total Energy =                       -305.9990451295914227


  Saving occupied orbitals to File 180.

*** tstop() called on cx1-27-3-1 at Sat Sep 10 16:54:39 2016
Module time:
	user time   =      21.41 seconds =       0.36 minutes
	system time =       0.67 seconds =       0.01 minutes
	total time  =          6 seconds =       0.10 minutes
Total time:
	user time   =      21.41 seconds =       0.36 minutes
	system time =       0.67 seconds =       0.01 minutes
	total time  =          6 seconds =       0.10 minutes


Properties will be evaluated at   0.000000,   0.000000,   0.000000 Bohr

Properties computed using the SCF density matrix

  Nuclear Dipole Moment: (a.u.)
     X:    -9.7787      Y:    -1.1546      Z:    -0.6218

  Electronic Dipole Moment: (a.u.)
     X:     9.2697      Y:     1.1090      Z:     0.0195

  Dipole Moment: (a.u.)
     X:    -0.5090      Y:    -0.0456      Z:    -0.6023     Total:     0.7899

  Dipole Moment: (Debye)
     X:    -1.2936      Y:    -0.1160      Z:    -1.5310     Total:     2.0077


*** tstart() called on cx1-27-3-1
*** at Sat Sep 10 16:54:39 2016


         ------------------------------------------------------------
                                   SCF GRAD                          
                          Rob Parrish, Justin Turney,                
                       Andy Simmonett, and Alex Sokolov              
         ------------------------------------------------------------

  ==> Geometry <==

    Molecular point group: c1
    Full point group: C1

    Geometry (in Angstrom), charge = 0, multiplicity = 1:

       Center              X                  Y                   Z               Mass       
    ------------   -----------------  -----------------  -----------------  -----------------
           H          2.331271027417     0.709281001454    -1.108798553161     1.007825032070
           O          1.470286027417     0.322636001454    -1.163068553161    15.994914619560
           C          1.080130027417    -0.010236998546     0.063958446839    12.000000000000
           C         -0.288394972583    -0.635625998546     0.063967446839    12.000000000000
           O          1.758478027417     0.180251001454     1.013445446839    15.994914619560
           C         -1.425127972583     0.376516001454     0.063263446839    12.000000000000
           H         -0.341856972583    -1.288759998546    -0.801161553161     1.007825032070
           H         -0.342163972583    -1.287871998546     0.929752446839     1.007825032070
           C         -2.792820972583    -0.297299998546     0.063886446839    12.000000000000
           H         -1.330003972583     1.019590001454    -0.803253553161     1.007825032070
           H         -1.329884972583     1.020882001454     0.928806446839     1.007825032070
           H         -2.924595972583    -0.924098998546    -0.811921553161     1.007825032070
           H         -3.586129972583     0.440238001454     0.063842446839     1.007825032070
           H         -2.924121972583    -0.923472998546     0.940217446839     1.007825032070

  Nuclear repulsion =  240.573151125189781

  ==> Basis Set <==

  Basis Set: CC-PVTZ
    Number of shells: 108
    Number of basis function: 292
    Number of Cartesian functions: 330
    Spherical Harmonics?: true
    Max angular momentum: 3

  ==> DFJKGrad: Density-Fitted SCF Gradients <==

    Gradient:                    1
    J tasked:                  Yes
    K tasked:                  Yes
    wK tasked:                  No
    OpenMP threads:              4
    Integrals threads:           4
    Memory (MB):              1430
    Schwarz Cutoff:          0E+00
    Fitting Condition:       1E-12

   => Auxiliary Basis Set <=

  Basis Set: 
    Number of shells: 230
    Number of basis function: 714
    Number of Cartesian functions: 856
    Spherical Harmonics?: true
    Max angular momentum: 4


  -Total Gradient:
     Atom            X                  Y                   Z
    ------   -----------------  -----------------  -----------------
       1        0.000010867293    -0.000627741427     0.000065332484
       2       -0.001314078840    -0.001034343611     0.000268479091
       3        0.001328709232    -0.001167889488     0.001316423864
       4       -0.006044975609     0.015005701156    -0.002283198237
       5        0.000820005722     0.000060365689    -0.000620803559
       6        0.001089070795    -0.003162837799     0.001035862892
       7        0.002801097161    -0.003645150608     0.001628375444
       8        0.000834245121    -0.005041014210    -0.001197012488
       9        0.000601005064     0.000053096662    -0.000053818820
      10        0.000723799359     0.000116622046     0.001444240046
      11        0.000250561843     0.000374144115    -0.001637114727
      12       -0.000507162166    -0.000364733724    -0.000086037526
      13       -0.000053155441    -0.000169715980    -0.000022012461
      14       -0.000539989527    -0.000396502822     0.000141283999


*** tstop() called on cx1-27-3-1 at Sat Sep 10 16:54:45 2016
Module time:
	user time   =      20.76 seconds =       0.35 minutes
	system time =       0.50 seconds =       0.01 minutes
	total time  =          6 seconds =       0.10 minutes
Total time:
	user time   =      42.29 seconds =       0.70 minutes
	system time =       1.18 seconds =       0.02 minutes
	total time  =         12 seconds =       0.20 minutes

			-----------------------------------------
			 OPTKING 2.0: for geometry optimizations 
			  - R.A. King,  Bethel University        
			-----------------------------------------

	Internal coordinates to be generated automatically.
	Detected frag 1 with atoms:  1 2 3 4 5 6 7 8 9 10 11 12 13 14
	---Fragment 1 Bond Connectivity---
	 1 : 2
	 2 : 1 3
	 3 : 2 4 5
	 4 : 3 6 7 8
	 5 : 3
	 6 : 4 9 10 11
	 7 : 4
	 8 : 4
	 9 : 6 12 13 14
	 10 : 6
	 11 : 6
	 12 : 9
	 13 : 9
	 14 : 9

	Assuming in current code that numbering for constraints corresponds to unified fragment.
	Frozen dihedral atom list: 
	     2     3     4     7
	---Fragment 1 Geometry and Gradient---
	 H           4.4054637833        1.3403468440       -2.0953256020
	 O           2.7784379288        0.6096936834       -2.1978810392
	 C           2.0411499397       -0.0193451237        0.1208639484
	 C          -0.5449875163       -1.2011590602        0.1208809559
	 O           3.3230418825        0.3406250279        1.9151343451
	 C          -2.6931015725        0.7115121274        0.1195505887
	 H          -0.6460160548       -2.4354034483       -1.5139759237
	 H          -0.6465962007       -2.4337253715        1.7569774959
	 C          -5.2776667764       -0.5618155766        0.1207278881
	 H          -2.5133432638        1.9267458706       -1.5179292307
	 H          -2.5131183864        1.9291873967        1.7551898150
	 H          -5.5266854375       -1.7462940269       -1.5343093769
	 H          -6.7768035251        0.8319292560        0.1206447402
	 H          -5.5257897073       -1.7451110584        1.7767534799
	             0.0000108673       -0.0006277414        0.0000653325
	            -0.0013140788       -0.0010343436        0.0002684791
	             0.0013287092       -0.0011678895        0.0013164239
	            -0.0060449756        0.0150057012       -0.0022831982
	             0.0008200057        0.0000603657       -0.0006208036
	             0.0010890708       -0.0031628378        0.0010358629
	             0.0028010972       -0.0036451506        0.0016283754
	             0.0008342451       -0.0050410142       -0.0011970125
	             0.0006010051        0.0000530967       -0.0000538188
	             0.0007237994        0.0001166220        0.0014442400
	             0.0002505618        0.0003741441       -0.0016371147
	            -0.0005071622       -0.0003647337       -0.0000860375
	            -0.0000531554       -0.0001697160       -0.0000220125
	            -0.0005399895       -0.0003965028        0.0001412840

	Previous optimization step data not found.  Starting new optimization.

	---Fragment 1 Intrafragment Coordinates---
	 - Coordinate -           - BOHR/RAD -       - ANG/DEG -
	 R(1,2)           =         1.786501	       0.945375
	 R(2,3)           =         2.513138	       1.329895
	 R(3,4)           =         2.843377	       1.504650
	 R(3,5)           =         2.234330	       1.182357
	 R(4,6)           =         2.876231	       1.522036
	 R(4,7)           =         2.050932	       1.085307
	 R(4,8)           =         2.050940	       1.085311
	 R(6,9)           =         2.881205	       1.524668
	 R(6,10)          =         2.047058	       1.083256
	 R(6,11)          =         2.047057	       1.083256
	 R(9,12)          =         2.050402	       1.085026
	 R(9,13)          =         2.046933	       1.083190
	 R(9,14)          =         2.050408	       1.085029
	 B(1,2,3)         =         1.892927	     108.456755
	 B(2,3,4)         =         1.950744	     111.769390
	 B(2,3,5)         =         2.132098	     122.160223
	 B(3,4,6)         =         1.985466	     113.758803
	 B(3,4,7)         =         1.870176	     107.153209
	 B(3,4,8)         =         1.870098	     107.148747
	 B(4,3,5)         =         2.200343	     126.070387
	 B(4,6,9)         =         1.956346	     112.090352
	 B(4,6,10)        =         1.906632	     109.241992
	 B(4,6,11)        =         1.906602	     109.240272
	 B(6,4,7)         =         1.942316	     111.286500
	 B(6,4,8)         =         1.942295	     111.285326
	 B(6,9,12)        =         1.943266	     111.340942
	 B(6,9,13)        =         1.934846	     110.858538
	 B(6,9,14)        =         1.943279	     111.341672
	 B(7,4,8)         =         1.846046	     105.770658
	 B(9,6,10)        =         1.919264	     109.965714
	 B(9,6,11)        =         1.919234	     109.964034
	 B(10,6,11)       =         1.852823	     106.158940
	 B(12,9,13)       =         1.880063	     107.719668
	 B(12,9,14)       =         1.879521	     107.688626
	 B(13,9,14)       =         1.880054	     107.719172
	 D(1,2,3,4)       =         3.141563	     179.998303
	 D(1,2,3,5)       =         0.000072	       0.004114
	 D(2,3,4,6)       =        -1.456204	     -83.434346
	*D(2,3,4,7)       =         0.698132	      40.000000
	 D(2,3,4,8)       =         2.672729	     153.136070
	 D(3,4,6,9)       =        -3.141174	    -179.976018
	 D(3,4,6,10)      =         1.010273	      57.884392
	 D(3,4,6,11)      =        -1.009494	     -57.839760
	 D(4,6,9,12)      =        -1.049330	     -60.122178
	 D(4,6,9,13)      =         3.141127	     179.973308
	 D(4,6,9,14)      =         1.048401	      60.068936
	 D(5,3,4,6)       =         1.685282	      96.559568
	 D(5,3,4,7)       =        -2.443567	    -140.006086
	 D(5,3,4,8)       =        -0.468970	     -26.870017
	 D(7,4,6,9)       =         1.027479	      58.870239
	 D(7,4,6,10)      =        -1.104258	     -63.269351
	 D(7,4,6,11)      =        -3.124026	    -178.993504
	 D(8,4,6,9)       =        -1.026760	     -58.828996
	 D(8,4,6,10)      =         3.124688	     179.031414
	 D(8,4,6,11)      =         1.104920	      63.307261
	 D(10,6,9,12)     =         1.075190	      61.603826
	 D(10,6,9,13)     =        -1.017539	     -58.300687
	 D(10,6,9,14)     =        -3.110265	    -178.205060
	 D(11,6,9,12)     =         3.109395	     178.155188
	 D(11,6,9,13)     =         1.016666	      58.250674
	 D(11,6,9,14)     =        -1.076060	     -61.653698

	Current energy   :      -305.9990451296

	Generating empirical Hessian (Schlegel '84) for each fragment.
	Taking RFO optimization step.
	Going to follow RFO solution 1.
	Using RFO vector 1.
	Norm of target step-size    0.15829
	Projected energy change by RFO approximation:        -0.0045599611

	Back-transformation to cartesian coordinates...
	Could not converge backtransformation.
	Using first guess instead.

	Back-transformation to cartesian coordinates to adjust frozen coordinates...
	Successfully converged to displaced geometry.

	--- Internal Coordinate Step in ANG or DEG, aJ/ANG or AJ/DEG ---
	 ---------------------------------------------------------------------------
	   Coordinate                Previous        Force       Change         New 
	   ----------                --------       ------       ------       ------
	    1 R(1,2)          =      0.945375     0.002003     0.002678     0.948054
	    2 R(2,3)          =      1.329895     0.009115     0.002192     1.332088
	    3 R(3,4)          =      1.504650     0.003148     0.000873     1.505523
	    4 R(3,5)          =      1.182357     0.000151     0.001175     1.183531
	    5 R(4,6)          =      1.522036     0.029076     0.007090     1.529126
	    6 R(4,7)          =      1.085307    -0.006242    -0.000435     1.084871
	    7 R(4,8)          =      1.085311    -0.016752    -0.001795     1.083516
	    8 R(6,9)          =      1.524668    -0.006886    -0.000939     1.523729
	    9 R(6,10)         =      1.083256     0.008424     0.002116     1.085372
	   10 R(6,11)         =      1.083256     0.008762     0.001870     1.085126
	   11 R(9,12)         =      1.085026    -0.002815    -0.000201     1.084825
	   12 R(9,13)         =      1.083190     0.000631     0.000742     1.083933
	   13 R(9,14)         =      1.085029    -0.003364    -0.000080     1.084950
	   14 B(1,2,3)        =    108.456755     0.000020     0.170695   108.627450
	   15 B(2,3,4)        =    111.769390     0.000243     0.746044   112.515434
	   16 B(2,3,5)        =    122.160223    -0.000039    -0.238053   121.922170
	   17 B(3,4,6)        =    113.758803    -0.000313    -1.723004   112.035799
	   18 B(3,4,7)        =    107.153209     0.000251     1.334993   108.488202
	   19 B(3,4,8)        =    107.148747     0.000096     0.149210   107.297958
	   20 B(4,3,5)        =    126.070387    -0.000204    -0.635347   125.435039
	   21 B(4,6,9)        =    112.090352     0.000038    -0.014553   112.075799
	   22 B(4,6,10)       =    109.241992     0.000020     0.226640   109.468631
	   23 B(4,6,11)       =    109.240272    -0.000024    -0.171066   109.069206
	   24 B(6,4,7)        =    111.286500    -0.000091    -1.378682   109.907819
	   25 B(6,4,8)        =    111.285326    -0.000025    -0.878455   110.406871
	   26 B(6,9,12)       =    111.340942    -0.000045    -0.240670   111.100272
	   27 B(6,9,13)       =    110.858538     0.000002     0.029287   110.887825
	   28 B(6,9,14)       =    111.341672    -0.000048    -0.220861   111.120811
	   29 B(7,4,8)        =    105.770658     0.000128     2.829648   108.600306
	   30 B(9,6,10)       =    109.965714    -0.000054    -0.305347   109.660366
	   31 B(9,6,11)       =    109.964034    -0.000031    -0.368919   109.595115
	   32 B(10,6,11)      =    106.158940     0.000054     0.670380   106.829320
	   33 B(12,9,13)      =    107.719668     0.000026     0.160764   107.880432
	   34 B(12,9,14)      =    107.688626     0.000045     0.175480   107.864106
	   35 B(13,9,14)      =    107.719172     0.000026     0.121590   107.840762
	   36 D(1,2,3,4)      =    179.998303    -0.000025    -3.734273   176.264030
	   37 D(1,2,3,5)      =      0.004114     0.000009     0.153409     0.157523
	   38 D(2,3,4,6)      =    -83.434346     0.000032     1.922901   -81.511445
	   39 *D(2,3,4,7)     =     40.000000     0.000000     0.000000    40.000000
	   40 D(2,3,4,8)      =    153.136070     0.000071     4.017996   157.154066
	   41 D(3,4,6,9)      =   -179.976018     0.000012     0.652336  -179.323682
	   42 D(3,4,6,10)     =     57.884392     0.000019     0.891367    58.775759
	   43 D(3,4,6,11)     =    -57.839760     0.000005     0.057287   -57.782473
	   44 D(4,6,9,12)     =    -60.122178    -0.000002    -0.289040   -60.411218
	   45 D(4,6,9,13)     =    179.973308    -0.000003    -0.351668   179.621641
	   46 D(4,6,9,14)     =     60.068936    -0.000004    -0.378053    59.690882
	   47 D(5,3,4,6)      =     96.559568    -0.000003    -2.127216    94.432352
	   48 D(5,3,4,7)      =   -140.006086    -0.000035    -4.050117  -144.056203
	   49 D(5,3,4,8)      =    -26.870017     0.000035    -0.032120   -26.902137
	   50 D(7,4,6,9)      =     58.870239     0.000004     1.114028    59.984267
	   51 D(7,4,6,10)     =    -63.269351     0.000011     1.353060   -61.916291
	   52 D(7,4,6,11)     =   -178.993504    -0.000003     0.518980  -178.474524
	   53 D(8,4,6,9)      =    -58.828996    -0.000015    -0.967608   -59.796604
	   54 D(8,4,6,10)     =    179.031414    -0.000008    -0.728576   178.302838
	   55 D(8,4,6,11)     =     63.307261    -0.000023    -1.562656    61.744605
	   56 D(10,6,9,12)    =     61.603826     0.000000    -0.224189    61.379638
	   57 D(10,6,9,13)    =    -58.300687    -0.000000    -0.286816   -58.587504
	   58 D(10,6,9,14)    =   -178.205060    -0.000001    -0.313202  -178.518262
	   59 D(11,6,9,12)    =    178.155188     0.000004     0.194768   178.349956
	   60 D(11,6,9,13)    =     58.250674     0.000003     0.132140    58.382815
	   61 D(11,6,9,14)    =    -61.653698     0.000002     0.105755   -61.547943
	 ---------------------------------------------------------------------------
	Successfully symmetrized geometry.

  ==> Convergence Check <==

  Measures of convergence in internal coordinates in au.
  Criteria marked as inactive (o), active & met (*), and active & unmet ( ).
  --------------------------------------------------------------------------------------------- ~
   Step     Total Energy     Delta E     MAX Force     RMS Force      MAX Disp      RMS Disp    ~
  --------------------------------------------------------------------------------------------- ~
    Convergence Criteria    1.00e-06 *    3.00e-04 *             o    1.20e-03 *             o  ~
  --------------------------------------------------------------------------------------------- ~
      1    -305.99904513   -3.06e+02      4.12e-03      1.35e-03 o    7.07e-02      2.03e-02 o  ~
  ---------------------------------------------------------------------------------------------

	Writing optimization data to binary file.
	Structure for next step:
	Cartesian Geometry (in Angstrom)
	    H     2.3257552896   0.7189636679  -1.0607935405
	    O     1.4871417873   0.2830305989  -1.1349232732
	    C     1.0769381935  -0.0606245605   0.0849502773
	    C    -0.2942093927  -0.6823243439   0.0782827806
	    O     1.7163697272   0.1804453533   1.0512623377
	    C    -1.4015710826   0.3711416421   0.0315290050
	    H    -0.3707977138  -1.3372654330  -0.7831881380
	    H    -0.3805886521  -1.2816362716   0.9768208294
	    C    -2.7899518216  -0.2565931586   0.0414057514
	    H    -1.2830273922   0.9813416403  -0.8582102858
	    H    -1.2960356742   1.0344946499   0.8837756041
	    H    -2.9322193786  -0.9034249094  -0.8177874538
	    H    -3.5592983086   0.5064882142   0.0145190568
	    H    -2.9434421974  -0.8520100693   0.9352933050
			--------------------------
			 OPTKING Finished Execution 
			--------------------------

    Structure for next step:
    Molecular point group: c1
    Full point group: C1

    Geometry (in Angstrom), charge = 0, multiplicity = 1:

    H            2.327878805572     0.733380776225    -1.069660317016
    O            1.489265303282     0.297447707280    -1.143790049710
    C            1.079061709432    -0.046207452134     0.076083500799
    C           -0.292085876729    -0.667907235500     0.069416004071
    O            1.718493243139     0.194862461649     1.042395561139
    C           -1.399447566648     0.385558750497     0.022662228456
    H           -0.368674197812    -1.322848324678    -0.792054914544
    H           -0.378465136100    -1.267219163198     0.967954052861
    C           -2.787828305693    -0.242176050200     0.032538974837
    H           -1.280903876261     0.995758748662    -0.867077062325
    H           -1.293912158288     1.048911758317     0.874908827549
    H           -2.930095862604    -0.889007801023    -0.826654230300
    H           -3.557174792685     0.520905322533     0.005652280292
    H           -2.941318681421    -0.837592960911     0.926426528454

gradient() will perform analytic gradient computation.

*** tstart() called on cx1-27-3-1
*** at Sat Sep 10 16:54:46 2016


         ---------------------------------------------------------
                                   SCF
            by Justin Turney, Rob Parrish, and Andy Simmonett
                              RHF Reference
                        4 Threads,   2000 MiB Core
         ---------------------------------------------------------

  ==> Geometry <==

    Molecular point group: c1
    Full point group: C1

    Geometry (in Angstrom), charge = 0, multiplicity = 1:

       Center              X                  Y                   Z               Mass       
    ------------   -----------------  -----------------  -----------------  -----------------
           H          2.327878805572     0.733380776225    -1.069660317016     1.007825032070
           O          1.489265303282     0.297447707280    -1.143790049710    15.994914619560
           C          1.079061709432    -0.046207452134     0.076083500799    12.000000000000
           C         -0.292085876729    -0.667907235500     0.069416004071    12.000000000000
           O          1.718493243139     0.194862461649     1.042395561139    15.994914619560
           C         -1.399447566648     0.385558750497     0.022662228456    12.000000000000
           H         -0.368674197812    -1.322848324678    -0.792054914544     1.007825032070
           H         -0.378465136100    -1.267219163198     0.967954052861     1.007825032070
           C         -2.787828305693    -0.242176050200     0.032538974837    12.000000000000
           H         -1.280903876261     0.995758748662    -0.867077062325     1.007825032070
           H         -1.293912158288     1.048911758317     0.874908827549     1.007825032070
           H         -2.930095862604    -0.889007801023    -0.826654230300     1.007825032070
           H         -3.557174792685     0.520905322533     0.005652280292     1.007825032070
           H         -2.941318681421    -0.837592960911     0.926426528454     1.007825032070

  Running in c1 symmetry.

  Rotational constants: A =      0.27912  B =      0.06221  C =      0.05621 [cm^-1]
  Rotational constants: A =   8367.67677  B =   1865.07503  C =   1685.04364 [MHz]
  Nuclear repulsion =  240.765308005635973

  Charge       = 0
  Multiplicity = 1
  Electrons    = 48
  Nalpha       = 24
  Nbeta        = 24

  ==> Algorithm <==

  SCF Algorithm Type is DF.
  DIIS enabled.
  MOM disabled.
  Fractional occupation disabled.
  Guess Type is READ.
  Energy threshold   = 1.00e-08
  Density threshold  = 1.00e-08
  Integral threshold = 0.00e+00

  ==> Primary Basis <==

  Basis Set: CC-PVTZ
    Number of shells: 108
    Number of basis function: 292
    Number of Cartesian functions: 330
    Spherical Harmonics?: true
    Max angular momentum: 3

  ==> Pre-Iterations <==

   -------------------------------------------------------
    Irrep   Nso     Nmo     Nalpha   Nbeta   Ndocc  Nsocc
   -------------------------------------------------------
     A        292     292       0       0       0       0
   -------------------------------------------------------
    Total     292     292      24      24      24       0
   -------------------------------------------------------

  ==> Integral Setup <==

  ==> DFJK: Density-Fitted J/K Matrices <==

    J tasked:                  Yes
    K tasked:                  Yes
    wK tasked:                  No
    OpenMP threads:              4
    Integrals threads:           4
    Memory (MB):              1430
    Algorithm:                Core
    Integral Cache:           NONE
    Schwarz Cutoff:          1E-12
    Fitting Condition:       1E-12

   => Auxiliary Basis Set <=

  Basis Set: 
    Number of shells: 230
    Number of basis function: 714
    Number of Cartesian functions: 856
    Spherical Harmonics?: true
    Max angular momentum: 4

  Minimum eigenvalue in the overlap matrix is 4.0882904252E-04.
  Using Symmetric Orthogonalization.
  SCF Guess: Reading in previously saved MOs, projecting if necessary.

  Using orbitals from previous SCF, no projection.
  Recomputing DOCC and SOCC from number of alpha and beta electrons from previous calculation.
              A 
    DOCC [    24 ]

  ==> Iterations <==

                           Total Energy        Delta E     RMS |[F,P]|

   @DF-RHF iter   0:  -305.98368143985994   -3.05984e+02   4.84482e-04 
   @DF-RHF iter   1:  -305.99903619959429   -1.53548e-02   7.39308e-05 
   @DF-RHF iter   2:  -305.99943185995090   -3.95660e-04   2.74928e-05 DIIS
   @DF-RHF iter   3:  -305.99949341027542   -6.15503e-05   1.31935e-05 DIIS
   @DF-RHF iter   4:  -305.99950461121927   -1.12009e-05   4.31971e-06 DIIS
   @DF-RHF iter   5:  -305.99950630855989   -1.69734e-06   2.08634e-06 DIIS
   @DF-RHF iter   6:  -305.99950682412219   -5.15562e-07   5.27256e-07 DIIS
   @DF-RHF iter   7:  -305.99950686409846   -3.99763e-08   1.67082e-07 DIIS
   @DF-RHF iter   8:  -305.99950686806773   -3.96926e-09   7.79248e-08 DIIS
   @DF-RHF iter   9:  -305.99950686899302   -9.25297e-10   3.35556e-08 DIIS
   @DF-RHF iter  10:  -305.99950686920891   -2.15891e-10   1.11090e-08 DIIS
   @DF-RHF iter  11:  -305.99950686922824   -1.93268e-11   3.74550e-09 DIIS

  ==> Post-Iterations <==

    Orbital Energies (a.u.)
    -----------------------

    Doubly Occupied:                                                      

       1A    -20.604856     2A    -20.539355     3A    -11.373213  
       4A    -11.238945     5A    -11.234395     6A    -11.219801  
       7A     -1.475997     8A     -1.367228     9A     -1.088222  
      10A     -0.980716    11A     -0.852822    12A     -0.810531  
      13A     -0.705651    14A     -0.687944    15A     -0.641841  
      16A     -0.640401    17A     -0.596771    18A     -0.567737  
      19A     -0.553577    20A     -0.519816    21A     -0.501039  
      22A     -0.489463    23A     -0.476098    24A     -0.441644  

    Virtual:                                                              

      25A      0.136692    26A      0.156647    27A      0.174115  
      28A      0.182481    29A      0.184707    30A      0.199811  
      31A      0.226400    32A      0.230182    33A      0.253166  
      34A      0.304994    35A      0.309425    36A      0.354114  
      37A      0.366796    38A      0.388910    39A      0.413196  
      40A      0.431300    41A      0.443663    42A      0.450485  
      43A      0.490983    44A      0.505840    45A      0.543313  
      46A      0.569694    47A      0.572552    48A      0.577063  
      49A      0.609025    50A      0.618122    51A      0.626828  
      52A      0.631093    53A      0.651192    54A      0.667206  
      55A      0.675119    56A      0.677547    57A      0.686616  
      58A      0.725715    59A      0.735540    60A      0.749463  
      61A      0.762075    62A      0.791604    63A      0.811975  
      64A      0.825217    65A      0.865145    66A      0.868931  
      67A      0.894251    68A      0.924981    69A      0.948255  
      70A      0.975939    71A      0.987700    72A      1.002090  
      73A      1.013622    74A      1.034388    75A      1.082690  
      76A      1.092481    77A      1.126216    78A      1.140852  
      79A      1.185984    80A      1.218847    81A      1.230628  
      82A      1.256770    83A      1.273013    84A      1.278725  
      85A      1.295899    86A      1.313973    87A      1.343388  
      88A      1.351867    89A      1.364607    90A      1.384061  
      91A      1.410910    92A      1.411900    93A      1.447057  
      94A      1.458091    95A      1.466893    96A      1.479485  
      97A      1.504703    98A      1.523100    99A      1.539437  
     100A      1.562377   101A      1.572356   102A      1.605884  
     103A      1.643185   104A      1.647137   105A      1.678799  
     106A      1.710573   107A      1.736058   108A      1.780488  
     109A      1.795933   110A      1.814171   111A      1.825319  
     112A      1.880069   113A      1.899806   114A      1.927317  
     115A      1.986477   116A      2.047657   117A      2.055023  
     118A      2.226139   119A      2.291318   120A      2.307461  
     121A      2.365917   122A      2.396784   123A      2.443630  
     124A      2.492829   125A      2.542416   126A      2.563617  
     127A      2.574961   128A      2.642360   129A      2.677762  
     130A      2.698395   131A      2.735787   132A      2.747528  
     133A      2.801827   134A      2.810905   135A      2.838607  
     136A      2.847726   137A      2.866416   138A      2.896513  
     139A      2.931150   140A      2.949557   141A      2.974787  
     142A      3.010181   143A      3.027840   144A      3.072449  
     145A      3.096329   146A      3.119421   147A      3.133518  
     148A      3.149820   149A      3.191061   150A      3.210892  
     151A      3.243515   152A      3.265616   153A      3.288472  
     154A      3.309480   155A      3.337532   156A      3.339846  
     157A      3.355189   158A      3.383812   159A      3.396687  
     160A      3.407691   161A      3.413341   162A      3.429855  
     163A      3.449569   164A      3.481342   165A      3.490971  
     166A      3.508011   167A      3.529734   168A      3.539661  
     169A      3.552679   170A      3.574044   171A      3.622254  
     172A      3.634886   173A      3.653451   174A      3.662149  
     175A      3.694011   176A      3.720860   177A      3.761143  
     178A      3.766213   179A      3.783427   180A      3.817824  
     181A      3.824407   182A      3.853921   183A      3.871139  
     184A      3.894054   185A      3.908375   186A      3.929773  
     187A      3.975450   188A      3.991362   189A      3.997877  
     190A      4.037404   191A      4.064204   192A      4.108528  
     193A      4.117740   194A      4.135355   195A      4.140458  
     196A      4.145284   197A      4.166612   198A      4.189418  
     199A      4.198308   200A      4.217424   201A      4.225815  
     202A      4.252358   203A      4.293933   204A      4.304515  
     205A      4.316913   206A      4.354747   207A      4.374682  
     208A      4.384820   209A      4.408948   210A      4.441694  
     211A      4.459589   212A      4.465533   213A      4.501415  
     214A      4.529281   215A      4.575049   216A      4.591266  
     217A      4.609281   218A      4.625568   219A      4.635501  
     220A      4.648800   221A      4.666672   222A      4.701248  
     223A      4.714783   224A      4.769591   225A      4.792915  
     226A      4.825023   227A      4.872808   228A      4.905932  
     229A      4.960982   230A      5.006322   231A      5.042872  
     232A      5.098251   233A      5.149198   234A      5.151983  
     235A      5.192525   236A      5.229087   237A      5.244736  
     238A      5.271658   239A      5.300890   240A      5.338027  
     241A      5.385951   242A      5.388251   243A      5.419771  
     244A      5.473176   245A      5.524324   246A      5.591022  
     247A      5.602608   248A      5.633435   249A      5.643077  
     250A      5.689649   251A      5.692057   252A      5.736815  
     253A      5.753026   254A      5.758546   255A      5.777570  
     256A      5.855694   257A      5.872438   258A      5.889888  
     259A      5.914302   260A      5.931844   261A      6.008636  
     262A      6.044203   263A      6.092836   264A      6.260129  
     265A      6.299077   266A      6.312091   267A      6.320898  
     268A      6.418114   269A      6.501418   270A      6.652470  
     271A      6.779848   272A      6.802874   273A      6.875195  
     274A      6.964172   275A      7.025429   276A      7.041245  
     277A      7.095239   278A      7.195031   279A      7.284311  
     280A      7.315485   281A      7.399552   282A      7.461442  
     283A      7.601305   284A      7.739015   285A      7.843011  
     286A      8.022521   287A      9.902701   288A     13.143128  
     289A     13.236352   290A     13.762424   291A     14.217332  
     292A     14.277873  

    Final Occupation by Irrep:
              A 
    DOCC [    24 ]

  Energy converged.

  @DF-RHF Final Energy:  -305.99950686922824

   => Energetics <=

    Nuclear Repulsion Energy =            240.7653080056359727
    One-Electron Energy =                -894.3134997294760069
    Two-Electron Energy =                 347.5486848546117926
    DFT Exchange-Correlation Energy =       0.0000000000000000
    Empirical Dispersion Energy =           0.0000000000000000
    PCM Polarization Energy =               0.0000000000000000
    EFP Energy =                            0.0000000000000000
    Total Energy =                       -305.9995068692282985


  Saving occupied orbitals to File 180.

*** tstop() called on cx1-27-3-1 at Sat Sep 10 16:54:51 2016
Module time:
	user time   =      16.96 seconds =       0.28 minutes
	system time =       0.41 seconds =       0.01 minutes
	total time  =          5 seconds =       0.08 minutes
Total time:
	user time   =      61.09 seconds =       1.02 minutes
	system time =       1.65 seconds =       0.03 minutes
	total time  =         18 seconds =       0.30 minutes


Properties will be evaluated at   0.000000,   0.000000,   0.000000 Bohr

Properties computed using the SCF density matrix

  Nuclear Dipole Moment: (a.u.)
     X:    -9.7555      Y:    -0.9517      Z:    -0.7322

  Electronic Dipole Moment: (a.u.)
     X:     9.2552      Y:     0.9037      Z:     0.1254

  Dipole Moment: (a.u.)
     X:    -0.5003      Y:    -0.0480      Z:    -0.6068     Total:     0.7879

  Dipole Moment: (Debye)
     X:    -1.2717      Y:    -0.1220      Z:    -1.5423     Total:     2.0028


*** tstart() called on cx1-27-3-1
*** at Sat Sep 10 16:54:51 2016


         ------------------------------------------------------------
                                   SCF GRAD                          
                          Rob Parrish, Justin Turney,                
                       Andy Simmonett, and Alex Sokolov              
         ------------------------------------------------------------

  ==> Geometry <==

    Molecular point group: c1
    Full point group: C1

    Geometry (in Angstrom), charge = 0, multiplicity = 1:

       Center              X                  Y                   Z               Mass       
    ------------   -----------------  -----------------  -----------------  -----------------
           H          2.327878805572     0.733380776225    -1.069660317016     1.007825032070
           O          1.489265303282     0.297447707280    -1.143790049710    15.994914619560
           C          1.079061709432    -0.046207452134     0.076083500799    12.000000000000
           C         -0.292085876729    -0.667907235500     0.069416004071    12.000000000000
           O          1.718493243139     0.194862461649     1.042395561139    15.994914619560
           C         -1.399447566648     0.385558750497     0.022662228456    12.000000000000
           H         -0.368674197812    -1.322848324678    -0.792054914544     1.007825032070
           H         -0.378465136100    -1.267219163198     0.967954052861     1.007825032070
           C         -2.787828305693    -0.242176050200     0.032538974837    12.000000000000
           H         -1.280903876261     0.995758748662    -0.867077062325     1.007825032070
           H         -1.293912158288     1.048911758317     0.874908827549     1.007825032070
           H         -2.930095862604    -0.889007801023    -0.826654230300     1.007825032070
           H         -3.557174792685     0.520905322533     0.005652280292     1.007825032070
           H         -2.941318681421    -0.837592960911     0.926426528454     1.007825032070

  Nuclear repulsion =  240.765308005635973

  ==> Basis Set <==

  Basis Set: CC-PVTZ
    Number of shells: 108
    Number of basis function: 292
    Number of Cartesian functions: 330
    Spherical Harmonics?: true
    Max angular momentum: 3

  ==> DFJKGrad: Density-Fitted SCF Gradients <==

    Gradient:                    1
    J tasked:                  Yes
    K tasked:                  Yes
    wK tasked:                  No
    OpenMP threads:              4
    Integrals threads:           4
    Memory (MB):              1430
    Schwarz Cutoff:          0E+00
    Fitting Condition:       1E-12

   => Auxiliary Basis Set <=

  Basis Set: 
    Number of shells: 230
    Number of basis function: 714
    Number of Cartesian functions: 856
    Spherical Harmonics?: true
    Max angular momentum: 4


  -Total Gradient:
     Atom            X                  Y                   Z
    ------   -----------------  -----------------  -----------------
       1        0.002620772764     0.001636188581    -0.000340814573
       2       -0.002111681842     0.001351163748    -0.000806872335
       3        0.002257359485    -0.009759466655    -0.000328070401
       4       -0.003735390446     0.007041140278     0.000498924972
       5        0.000064456307     0.003595228411     0.000987196424
       6        0.000346333670    -0.003432455106     0.000023191378
       7        0.000608692661    -0.000532616476    -0.001029796198
       8        0.000157587741    -0.001313519716     0.001196667417
       9        0.000265662180     0.000518203239    -0.000070615502
      10       -0.000116761048     0.000619042773    -0.000568844632
      11       -0.000142386216     0.000245389654     0.000266745909
      12        0.000177087087    -0.000091739470    -0.000167529744
      13       -0.000436583857     0.000302120325     0.000032322433
      14        0.000044851521    -0.000178679586     0.000307494852


*** tstop() called on cx1-27-3-1 at Sat Sep 10 16:54:56 2016
Module time:
	user time   =      20.44 seconds =       0.34 minutes
	system time =       0.48 seconds =       0.01 minutes
	total time  =          5 seconds =       0.08 minutes
Total time:
	user time   =      81.66 seconds =       1.36 minutes
	system time =       2.13 seconds =       0.04 minutes
	total time  =         23 seconds =       0.38 minutes

			-----------------------------------------
			 OPTKING 2.0: for geometry optimizations 
			  - R.A. King,  Bethel University        
			-----------------------------------------

	Previous internal coordinate definitions found.
	---Fragment 1 Geometry and Gradient---
	 H           4.3990534131        1.3858888182       -2.0213650544
	 O           2.8143035624        0.5620947056       -2.1614499475
	 C           2.0391311113       -0.0873194298        0.1437769797
	 C          -0.5519623143       -1.2621617573        0.1311772369
	 O           3.2474815907        0.3682366861        1.9698421327
	 C          -2.6445726383        0.7286004466        0.0428254053
	 H          -0.6966932661       -2.4998210490       -1.4967668707
	 H          -0.7151954581       -2.3946971688        1.8291680691
	 C          -5.2682320033       -0.4576464108        0.0614897511
	 H          -2.4205575287        1.8817113294       -1.6385381839
	 H          -2.4451396192        1.9821559608        1.6533380753
	 H          -5.5370787234       -1.6799812739       -1.5621501019
	 H          -6.7220861650        0.9843684007        0.0106812618
	 H          -5.5582867774       -1.5828213070        1.7506924210
	             0.0026207728        0.0016361886       -0.0003408146
	            -0.0021116818        0.0013511637       -0.0008068723
	             0.0022573595       -0.0097594667       -0.0003280704
	            -0.0037353904        0.0070411403        0.0004989250
	             0.0000644563        0.0035952284        0.0009871964
	             0.0003463337       -0.0034324551        0.0000231914
	             0.0006086927       -0.0005326165       -0.0010297962
	             0.0001575877       -0.0013135197        0.0011966674
	             0.0002656622        0.0005182032       -0.0000706155
	            -0.0001167610        0.0006190428       -0.0005688446
	            -0.0001423862        0.0002453897        0.0002667459
	             0.0001770871       -0.0000917395       -0.0001675297
	            -0.0004365839        0.0003021203        0.0000323224
	             0.0000448515       -0.0001786796        0.0003074949

	---Fragment 1 Intrafragment Coordinates---
	 - Coordinate -           - BOHR/RAD -       - ANG/DEG -
	 R(1,2)           =         1.791561	       0.948054
	 R(2,3)           =         2.517281	       1.332088
	 R(3,4)           =         2.845027	       1.505523
	 R(3,5)           =         2.236550	       1.183531
	 R(4,6)           =         2.889629	       1.529126
	 R(4,7)           =         2.050110	       1.084871
	 R(4,8)           =         2.047548	       1.083516
	 R(6,9)           =         2.879430	       1.523729
	 R(6,10)          =         2.051056	       1.085372
	 R(6,11)          =         2.050592	       1.085126
	 R(9,12)          =         2.050021	       1.084825
	 R(9,13)          =         2.048336	       1.083933
	 R(9,14)          =         2.050258	       1.084950
	 B(1,2,3)         =         1.895907	     108.627450
	 B(2,3,4)         =         1.963765	     112.515434
	 B(2,3,5)         =         2.127943	     121.922170
	 B(3,4,6)         =         1.955394	     112.035799
	 B(3,4,7)         =         1.893476	     108.488202
	 B(3,4,8)         =         1.872703	     107.297958
	 B(4,3,5)         =         2.189254	     125.435039
	 B(4,6,9)         =         1.956092	     112.075799
	 B(4,6,10)        =         1.910588	     109.468631
	 B(4,6,11)        =         1.903617	     109.069206
	 B(6,4,7)         =         1.918253	     109.907819
	 B(6,4,8)         =         1.926963	     110.406871
	 B(6,9,12)        =         1.939066	     111.100272
	 B(6,9,13)        =         1.935358	     110.887825
	 B(6,9,14)        =         1.939424	     111.120811
	 B(7,4,8)         =         1.895433	     108.600306
	 B(9,6,10)        =         1.913934	     109.660366
	 B(9,6,11)        =         1.912796	     109.595115
	 B(10,6,11)       =         1.864523	     106.829320
	 B(12,9,13)       =         1.882869	     107.880432
	 B(12,9,14)       =         1.882584	     107.864106
	 B(13,9,14)       =         1.882176	     107.840762
	 D(1,2,3,4)       =         3.076388	     176.264030
	 D(1,2,3,5)       =         0.002749	       0.157523
	 D(2,3,4,6)       =        -1.422643	     -81.511445
	*D(2,3,4,7)       =         0.698132	      40.000000
	 D(2,3,4,8)       =         2.742856	     157.154066
	 D(3,4,6,9)       =        -3.129789	    -179.323682
	 D(3,4,6,10)      =         1.025831	      58.775759
	 D(3,4,6,11)      =        -1.008494	     -57.782473
	 D(4,6,9,12)      =        -1.054375	     -60.411218
	 D(4,6,9,13)      =         3.134989	     179.621641
	 D(4,6,9,14)      =         1.041802	      59.690882
	 D(5,3,4,6)       =         1.648155	      94.432352
	 D(5,3,4,7)       =        -2.514255	    -144.056203
	 D(5,3,4,8)       =        -0.469531	     -26.902137
	 D(7,4,6,9)       =         1.046923	      59.984267
	 D(7,4,6,10)      =        -1.080643	     -61.916291
	 D(7,4,6,11)      =        -3.114968	    -178.474524
	 D(8,4,6,9)       =        -1.043648	     -59.796604
	 D(8,4,6,10)      =         3.111972	     178.302838
	 D(8,4,6,11)      =         1.077647	      61.744605
	 D(10,6,9,12)     =         1.071277	      61.379638
	 D(10,6,9,13)     =        -1.022545	     -58.587504
	 D(10,6,9,14)     =        -3.115731	    -178.518262
	 D(11,6,9,12)     =         3.112794	     178.349956
	 D(11,6,9,13)     =         1.018972	      58.382815
	 D(11,6,9,14)     =        -1.074214	     -61.547943

	Current energy   :      -305.9995068692

	Energy change for the previous step:
		Projected    :        -0.0045599611
		Actual       :        -0.0004617396
	Energy ratio indicates iffy step: Trust radius decreased to 1.250e-01.


	Performing BFGS update.
	Previous computed or guess Hessian on step 1.
	Steps to be used in Hessian update: 1
	Taking RFO optimization step.
	Going to follow RFO solution 1.
	Using RFO vector 1.

	Determining step-restricting scale parameter for RS-RFO.
	Maximum step size allowed    0.12500

	 Iter      |step|        alpha        rfo_root  
	------------------------------------------------
	    0     0.35560       1.00000           1
	    1     0.24064       5.97722           1
	    2     0.17307      15.25945           1
	    3     0.13893      26.12083           1
	    4     0.12680      32.26581           1
	    5     0.12504      33.31319           1
	    6     0.12500      33.33597           1
	------------------------------------------------
	Norm of target step-size    0.12500
	Projected energy change by RFO approximation:        -0.0008247223

	Back-transformation to cartesian coordinates...
	Could not converge backtransformation.
	Using first guess instead.

	Back-transformation to cartesian coordinates to adjust frozen coordinates...
	Successfully converged to displaced geometry.

	--- Internal Coordinate Step in ANG or DEG, aJ/ANG or AJ/DEG ---
	 ---------------------------------------------------------------------------
	   Coordinate                Previous        Force       Change         New 
	   ----------                --------       ------       ------       ------
	    1 R(1,2)          =      0.948054    -0.025078    -0.001525     0.946529
	    2 R(2,3)          =      1.332088    -0.016300    -0.000764     1.331324
	    3 R(3,4)          =      1.505523    -0.010415    -0.001240     1.504284
	    4 R(3,5)          =      1.183531    -0.012961     0.000488     1.184020
	    5 R(4,6)          =      1.529126     0.012235     0.004688     1.533814
	    6 R(4,7)          =      1.084871    -0.009032    -0.001578     1.083293
	    7 R(4,8)          =      1.083516    -0.014058    -0.002808     1.080708
	    8 R(6,9)          =      1.523729     0.002244     0.000007     1.523736
	    9 R(6,10)         =      1.085372    -0.006604    -0.000225     1.085147
	   10 R(6,11)         =      1.085126    -0.002848     0.000261     1.085387
	   11 R(9,12)         =      1.084825    -0.001352    -0.000290     1.084534
	   12 R(9,13)         =      1.083933    -0.004299    -0.000434     1.083498
	   13 R(9,14)         =      1.084950    -0.002843    -0.000495     1.084455
	   14 B(1,2,3)        =    108.627450    -0.000082    -0.255242   108.372208
	   15 B(2,3,4)        =    112.515434    -0.000027     0.280286   112.795720
	   16 B(2,3,5)        =    121.922170     0.000087     0.200297   122.122467
	   17 B(3,4,6)        =    112.035799    -0.000206    -1.117330   110.918469
	   18 B(3,4,7)        =    108.488202     0.000093     0.955181   109.443383
	   19 B(3,4,8)        =    107.297958     0.000050    -0.023382   107.274576
	   20 B(4,3,5)        =    125.435039    -0.000051    -0.358488   125.076551
	   21 B(4,6,9)        =    112.075799    -0.000030    -0.088188   111.987611
	   22 B(4,6,10)       =    109.468631    -0.000006    -0.017711   109.450920
	   23 B(4,6,11)       =    109.069206     0.000003    -0.054078   109.015128
	   24 B(6,4,7)        =    109.907819     0.000089     0.048446   109.956264
	   25 B(6,4,8)        =    110.406871     0.000042    -0.333006   110.073865
	   26 B(6,9,12)       =    111.100272     0.000022     0.005149   111.105421
	   27 B(6,9,13)       =    110.887825    -0.000017    -0.068988   110.818837
	   28 B(6,9,14)       =    111.120811     0.000010    -0.035278   111.085533
	   29 B(7,4,8)        =    108.600306    -0.000067     0.517830   109.118136
	   30 B(9,6,10)       =    109.660366     0.000017    -0.055760   109.604606
	   31 B(9,6,11)       =    109.595115     0.000018    -0.009937   109.585178
	   32 B(10,6,11)      =    106.829320    -0.000001     0.241266   107.070586
	   33 B(12,9,13)      =    107.880432    -0.000006     0.019319   107.899751
	   34 B(12,9,14)      =    107.864106    -0.000011     0.050866   107.914972
	   35 B(13,9,14)      =    107.840762     0.000001     0.034293   107.875055
	   36 D(1,2,3,4)      =    176.264030     0.000018     1.473256   177.737286
	   37 D(1,2,3,5)      =      0.157523    -0.000013    -1.625206    -1.467683
	   38 D(2,3,4,6)      =    -81.511445    -0.000010     0.017130   -81.494315
	   39 *D(2,3,4,7)     =     40.000000     0.000000    -0.000000    40.000000
	   40 D(2,3,4,8)      =    157.154066    -0.000001     1.108260   158.262326
	   41 D(3,4,6,9)      =   -179.323682     0.000006     0.494681  -178.829001
	   42 D(3,4,6,10)     =     58.775759     0.000007     0.636552    59.412312
	   43 D(3,4,6,11)     =    -57.782473     0.000007     0.387505   -57.394968
	   44 D(4,6,9,12)     =    -60.411218     0.000000    -0.024951   -60.436169
	   45 D(4,6,9,13)     =    179.621641     0.000001    -0.006824   179.614817
	   46 D(4,6,9,14)     =     59.690882     0.000002     0.019160    59.710042
	   47 D(5,3,4,6)      =     94.432352     0.000024     3.250585    97.682937
	   48 D(5,3,4,7)      =   -144.056203     0.000034     3.233455  -140.822748
	   49 D(5,3,4,8)      =    -26.902137     0.000033     4.341715   -22.560422
	   50 D(7,4,6,9)      =     59.984267    -0.000004    -0.006070    59.978197
	   51 D(7,4,6,10)     =    -61.916291    -0.000003     0.135801   -61.780490
	   52 D(7,4,6,11)     =   -178.474524    -0.000003    -0.113246  -178.587770
	   53 D(8,4,6,9)      =    -59.796604    -0.000004    -0.468051   -60.264655
	   54 D(8,4,6,10)     =    178.302838    -0.000003    -0.326180   177.976658
	   55 D(8,4,6,11)     =     61.744605    -0.000003    -0.575227    61.169378
	   56 D(10,6,9,12)    =     61.379638    -0.000003    -0.145323    61.234315
	   57 D(10,6,9,13)    =    -58.587504    -0.000002    -0.127196   -58.714699
	   58 D(10,6,9,14)    =   -178.518262    -0.000002    -0.101212  -178.619474
	   59 D(11,6,9,12)    =    178.349956     0.000001     0.108570   178.458526
	   60 D(11,6,9,13)    =     58.382815     0.000002     0.126697    58.509512
	   61 D(11,6,9,14)    =    -61.547943     0.000003     0.152681   -61.395263
	 ---------------------------------------------------------------------------
	Successfully symmetrized geometry.

  ==> Convergence Check <==

  Measures of convergence in internal coordinates in au.
  Criteria marked as inactive (o), active & met (*), and active & unmet ( ).
  ---------------------------------------------------------------------------------------------
   Step     Total Energy     Delta E     MAX Force     RMS Force      MAX Disp      RMS Disp   
  ---------------------------------------------------------------------------------------------
    Convergence Criteria    1.00e-06 *    3.00e-04 *             o    1.20e-03 *             o
  ---------------------------------------------------------------------------------------------
      2    -305.99950687   -4.62e-04      3.04e-03      9.24e-04 o    7.58e-02      1.59e-02 o  ~
  ---------------------------------------------------------------------------------------------

	Writing optimization data to binary file.
	Structure for next step:
	Cartesian Geometry (in Angstrom)
	    H     2.3230811080   0.7453198105  -1.0582999782
	    O     1.4823898817   0.3182665570  -1.1406432640
	    C     1.0698433049  -0.0340701389   0.0751225407
	    C    -0.2901140230  -0.6769493050   0.0655641541
	    O     1.7215225986   0.1650885052   1.0433954586
	    C    -1.3969260927   0.3837470243   0.0158040972
	    H    -0.3712402998  -1.3363894936  -0.7900536484
	    H    -0.3757434051  -1.2601949349   0.9713359200
	    C    -2.7867287499  -0.2406608782   0.0340627672
	    H    -1.2801467248   0.9861497859  -0.8791918617
	    H    -1.2863618903   1.0503431580   0.8652103640
	    H    -2.9335360152  -0.8918847951  -0.8206707839
	    H    -3.5531543819   0.5246655284   0.0051475156
	    H    -2.9380927032  -0.8295642860   0.9320181034
			--------------------------
			 OPTKING Finished Execution 
			--------------------------

    Structure for next step:
    Molecular point group: c1
    Full point group: C1

    Geometry (in Angstrom), charge = 0, multiplicity = 1:

    H            2.324188331256     0.746494648086    -1.057739033741
    O            1.483497104933     0.319441394562    -1.140082319539
    C            1.070950528220    -0.032895301358     0.075683485148
    C           -0.289006799716    -0.675774467402     0.066125098630
    O            1.722629821869     0.166263342779     1.043956403120
    C           -1.395818869433     0.384921861842     0.016365041641
    H           -0.370133076554    -1.335214656026    -0.789492703927
    H           -0.374636181846    -1.259020097361     0.971896864458
    C           -2.785621526607    -0.239486040641     0.034623711704
    H           -1.279039501519     0.987324623442    -0.878630917179
    H           -1.285254667035     1.051517995516     0.865771308477
    H           -2.932428791933    -0.890709957584    -0.820109839420
    H           -3.552047158608     0.525840365977     0.005708460068
    H           -2.936985479943    -0.828389448469     0.932579047900

gradient() will perform analytic gradient computation.

*** tstart() called on cx1-27-3-1
*** at Sat Sep 10 16:54:56 2016


         ---------------------------------------------------------
                                   SCF
            by Justin Turney, Rob Parrish, and Andy Simmonett
                              RHF Reference
                        4 Threads,   2000 MiB Core
         ---------------------------------------------------------

  ==> Geometry <==

    Molecular point group: c1
    Full point group: C1

    Geometry (in Angstrom), charge = 0, multiplicity = 1:

       Center              X                  Y                   Z               Mass       
    ------------   -----------------  -----------------  -----------------  -----------------
           H          2.324188331256     0.746494648086    -1.057739033741     1.007825032070
           O          1.483497104933     0.319441394562    -1.140082319539    15.994914619560
           C          1.070950528220    -0.032895301358     0.075683485148    12.000000000000
           C         -0.289006799716    -0.675774467402     0.066125098630    12.000000000000
           O          1.722629821869     0.166263342779     1.043956403120    15.994914619560
           C         -1.395818869433     0.384921861842     0.016365041641    12.000000000000
           H         -0.370133076554    -1.335214656026    -0.789492703927     1.007825032070
           H         -0.374636181846    -1.259020097361     0.971896864458     1.007825032070
           C         -2.785621526607    -0.239486040641     0.034623711704    12.000000000000
           H         -1.279039501519     0.987324623442    -0.878630917179     1.007825032070
           H         -1.285254667035     1.051517995516     0.865771308477     1.007825032070
           H         -2.932428791933    -0.890709957584    -0.820109839420     1.007825032070
           H         -3.552047158608     0.525840365977     0.005708460068     1.007825032070
           H         -2.936985479943    -0.828389448469     0.932579047900     1.007825032070

  Running in c1 symmetry.

  Rotational constants: A =      0.27875  B =      0.06238  C =      0.05630 [cm^-1]
  Rotational constants: A =   8356.83324  B =   1870.19574  C =   1687.96715 [MHz]
  Nuclear repulsion =  240.870601344195364

  Charge       = 0
  Multiplicity = 1
  Electrons    = 48
  Nalpha       = 24
  Nbeta        = 24

  ==> Algorithm <==

  SCF Algorithm Type is DF.
  DIIS enabled.
  MOM disabled.
  Fractional occupation disabled.
  Guess Type is READ.
  Energy threshold   = 1.00e-08
  Density threshold  = 1.00e-08
  Integral threshold = 0.00e+00

  ==> Primary Basis <==

  Basis Set: CC-PVTZ
    Number of shells: 108
    Number of basis function: 292
    Number of Cartesian functions: 330
    Spherical Harmonics?: true
    Max angular momentum: 3

  ==> Pre-Iterations <==

   -------------------------------------------------------
    Irrep   Nso     Nmo     Nalpha   Nbeta   Ndocc  Nsocc
   -------------------------------------------------------
     A        292     292       0       0       0       0
   -------------------------------------------------------
    Total     292     292      24      24      24       0
   -------------------------------------------------------

  ==> Integral Setup <==

  ==> DFJK: Density-Fitted J/K Matrices <==

    J tasked:                  Yes
    K tasked:                  Yes
    wK tasked:                  No
    OpenMP threads:              4
    Integrals threads:           4
    Memory (MB):              1430
    Algorithm:                Core
    Integral Cache:           NONE
    Schwarz Cutoff:          1E-12
    Fitting Condition:       1E-12

   => Auxiliary Basis Set <=

  Basis Set: 
    Number of shells: 230
    Number of basis function: 714
    Number of Cartesian functions: 856
    Spherical Harmonics?: true
    Max angular momentum: 4

  Minimum eigenvalue in the overlap matrix is 4.0129114851E-04.
  Using Symmetric Orthogonalization.
  SCF Guess: Reading in previously saved MOs, projecting if necessary.

  Using orbitals from previous SCF, no projection.
  Recomputing DOCC and SOCC from number of alpha and beta electrons from previous calculation.
              A 
    DOCC [    24 ]

  ==> Iterations <==

                           Total Energy        Delta E     RMS |[F,P]|

   @DF-RHF iter   0:  -305.99945846428943   -3.05999e+02   2.84896e-04 
   @DF-RHF iter   1:  -305.99958152230874   -1.23058e-04   3.68777e-05 
   @DF-RHF iter   2:  -305.99967374446089   -9.22222e-05   1.57763e-05 DIIS
   @DF-RHF iter   3:  -305.99968742188514   -1.36774e-05   8.98063e-06 DIIS
   @DF-RHF iter   4:  -305.99969170356781   -4.28168e-06   2.01207e-06 DIIS
   @DF-RHF iter   5:  -305.99969214244038   -4.38873e-07   9.93643e-07 DIIS
   @DF-RHF iter   6:  -305.99969226677308   -1.24333e-07   3.14091e-07 DIIS
   @DF-RHF iter   7:  -305.99969227787960   -1.11065e-08   1.07587e-07 DIIS
   @DF-RHF iter   8:  -305.99969227899794   -1.11834e-09   4.15386e-08 DIIS
   @DF-RHF iter   9:  -305.99969227930421   -3.06272e-10   1.68521e-08 DIIS
   @DF-RHF iter  10:  -305.99969227936629   -6.20730e-11   5.01454e-09 DIIS

  ==> Post-Iterations <==

    Orbital Energies (a.u.)
    -----------------------

    Doubly Occupied:                                                      

       1A    -20.605328     2A    -20.539126     3A    -11.373064  
       4A    -11.238452     5A    -11.234425     6A    -11.219435  
       7A     -1.476489     8A     -1.367563     9A     -1.087995  
      10A     -0.980725    11A     -0.852087    12A     -0.811476  
      13A     -0.705950    14A     -0.688524    15A     -0.642613  
      16A     -0.639920    17A     -0.596473    18A     -0.568591  
      19A     -0.554540    20A     -0.519212    21A     -0.500941  
      22A     -0.489946    23A     -0.475872    24A     -0.441280  

    Virtual:                                                              

      25A      0.136436    26A      0.156800    27A      0.174102  
      28A      0.182413    29A      0.185181    30A      0.201446  
      31A      0.225755    32A      0.230151    33A      0.253360  
      34A      0.303958    35A      0.308355    36A      0.354204  
      37A      0.367591    38A      0.388813    39A      0.413562  
      40A      0.432446    41A      0.442021    42A      0.451186  
      43A      0.491673    44A      0.505852    45A      0.540323  
      46A      0.569460    47A      0.573029    48A      0.577732  
      49A      0.609527    50A      0.618554    51A      0.627539  
      52A      0.630711    53A      0.651523    54A      0.667614  
      55A      0.674308    56A      0.678572    57A      0.688260  
      58A      0.726018    59A      0.735840    60A      0.748613  
      61A      0.762171    62A      0.793127    63A      0.810829  
      64A      0.824724    65A      0.864422    66A      0.867936  
      67A      0.892661    68A      0.925153    69A      0.948466  
      70A      0.976724    71A      0.989496    72A      1.003345  
      73A      1.015801    74A      1.030635    75A      1.085206  
      76A      1.091999    77A      1.128119    78A      1.144238  
      79A      1.186455    80A      1.222752    81A      1.229497  
      82A      1.256697    83A      1.273788    84A      1.278738  
      85A      1.296845    86A      1.313803    87A      1.345348  
      88A      1.349722    89A      1.361678    90A      1.384872  
      91A      1.409687    92A      1.413397    93A      1.444937  
      94A      1.458121    95A      1.470599    96A      1.478377  
      97A      1.504642    98A      1.523750    99A      1.539502  
     100A      1.560205   101A      1.571886   102A      1.605025  
     103A      1.643462   104A      1.648513   105A      1.675320  
     106A      1.711662   107A      1.737086   108A      1.780909  
     109A      1.795577   110A      1.817606   111A      1.825596  
     112A      1.877777   113A      1.896454   114A      1.928862  
     115A      1.987362   116A      2.047212   117A      2.051495  
     118A      2.231786   119A      2.287393   120A      2.313149  
     121A      2.363386   122A      2.394386   123A      2.445734  
     124A      2.493471   125A      2.542013   126A      2.566490  
     127A      2.571223   128A      2.642146   129A      2.675782  
     130A      2.698549   131A      2.733668   132A      2.749253  
     133A      2.799333   134A      2.814715   135A      2.841486  
     136A      2.851359   137A      2.868411   138A      2.899258  
     139A      2.928045   140A      2.947835   141A      2.975608  
     142A      3.009659   143A      3.022340   144A      3.071960  
     145A      3.096672   146A      3.121293   147A      3.134426  
     148A      3.149691   149A      3.191291   150A      3.209920  
     151A      3.243073   152A      3.268235   153A      3.289784  
     154A      3.307742   155A      3.339213   156A      3.339997  
     157A      3.352889   158A      3.382643   159A      3.398136  
     160A      3.407582   161A      3.413941   162A      3.429458  
     163A      3.451783   164A      3.481153   165A      3.491628  
     166A      3.509486   167A      3.528948   168A      3.542801  
     169A      3.553485   170A      3.571984   171A      3.623925  
     172A      3.633383   173A      3.656946   174A      3.662700  
     175A      3.691924   176A      3.724894   177A      3.764109  
     178A      3.766478   179A      3.785444   180A      3.813796  
     181A      3.819559   182A      3.853368   183A      3.873861  
     184A      3.895441   185A      3.915032   186A      3.932018  
     187A      3.976725   188A      3.994959   189A      4.003920  
     190A      4.035608   191A      4.065855   192A      4.106459  
     193A      4.117189   194A      4.134511   195A      4.140163  
     196A      4.145880   197A      4.166956   198A      4.191031  
     199A      4.197657   200A      4.215974   201A      4.226652  
     202A      4.251017   203A      4.292792   204A      4.306004  
     205A      4.321594   206A      4.354039   207A      4.374247  
     208A      4.384443   209A      4.407359   210A      4.440463  
     211A      4.459603   212A      4.464171   213A      4.499614  
     214A      4.531118   215A      4.573581   216A      4.591159  
     217A      4.611901   218A      4.624556   219A      4.634470  
     220A      4.651648   221A      4.668296   222A      4.704052  
     223A      4.717285   224A      4.770499   225A      4.793675  
     226A      4.824047   227A      4.867784   228A      4.903071  
     229A      4.966195   230A      5.007775   231A      5.045513  
     232A      5.101636   233A      5.153566   234A      5.156145  
     235A      5.194591   236A      5.230811   237A      5.242314  
     238A      5.270182   239A      5.300727   240A      5.339517  
     241A      5.390288   242A      5.393270   243A      5.420493  
     244A      5.473970   245A      5.525383   246A      5.590810  
     247A      5.608206   248A      5.633648   249A      5.645419  
     250A      5.690283   251A      5.692440   252A      5.738091  
     253A      5.753381   254A      5.758504   255A      5.779089  
     256A      5.855111   257A      5.873674   258A      5.891235  
     259A      5.911157   260A      5.934011   261A      6.007710  
     262A      6.045328   263A      6.100874   264A      6.257574  
     265A      6.299084   266A      6.311996   267A      6.320160  
     268A      6.416206   269A      6.503760   270A      6.652199  
     271A      6.777985   272A      6.803990   273A      6.874365  
     274A      6.963722   275A      7.031657   276A      7.044884  
     277A      7.097704   278A      7.195087   279A      7.283739  
[...]
           H         -3.555502421860     0.522690445516     0.004921667860     1.007825032070
           H         -2.941088434459    -0.830338367765     0.932739135408     1.007825032070

  Nuclear repulsion =  240.909737725933525

  ==> Basis Set <==

  Basis Set: CC-PVTZ
    Number of shells: 108
    Number of basis function: 292
    Number of Cartesian functions: 330
    Spherical Harmonics?: true
    Max angular momentum: 3

  ==> DFJKGrad: Density-Fitted SCF Gradients <==

    Gradient:                    1
    J tasked:                  Yes
    K tasked:                  Yes
    wK tasked:                  No
    OpenMP threads:              4
    Integrals threads:           4
    Memory (MB):              1430
    Schwarz Cutoff:          0E+00
    Fitting Condition:       1E-12

   => Auxiliary Basis Set <=

  Basis Set: 
    Number of shells: 230
    Number of basis function: 714
    Number of Cartesian functions: 856
    Spherical Harmonics?: true
    Max angular momentum: 4


  -Total Gradient:
     Atom            X                  Y                   Z
    ------   -----------------  -----------------  -----------------
       1        0.000064315111     0.000056214532    -0.000049958223
       2        0.000154424637    -0.000203927448     0.000083071720
       3       -0.000276946411     0.000282472684    -0.000000041539
       4        0.000095064557    -0.000236593450     0.000169175447
       5        0.000052303717    -0.000008872380    -0.000093905687
       6        0.000017480740    -0.000051028224     0.000004975629
       7       -0.000071523678     0.000172602082    -0.000134908914
       8       -0.000013259816    -0.000023585812     0.000020957915
       9       -0.000021227465     0.000019882507     0.000001128298
      10       -0.000004556525    -0.000008071369     0.000008422768
      11       -0.000010650260    -0.000004737925    -0.000010706960
      12        0.000012613987     0.000002699519    -0.000002229859
      13       -0.000001485398     0.000005120443    -0.000001827301
      14        0.000003446805    -0.000002175157     0.000005846708


*** tstop() called on cx1-27-3-1 at Sat Sep 10 16:55:27 2016
Module time:
	user time   =      20.84 seconds =       0.35 minutes
	system time =       0.43 seconds =       0.01 minutes
	total time  =          5 seconds =       0.08 minutes
Total time:
	user time   =     191.75 seconds =       3.20 minutes
	system time =       4.55 seconds =       0.08 minutes
	total time  =         54 seconds =       0.90 minutes

			-----------------------------------------
			 OPTKING 2.0: for geometry optimizations 
			  - R.A. King,  Bethel University        
			-----------------------------------------

	Previous internal coordinate definitions found.
	---Fragment 1 Geometry and Gradient---
	 H           4.3878786437        1.3923133778       -2.0163014298
	 O           2.7933531266        0.5983115525       -2.1572957465
	 C           2.0288767961       -0.0654834646        0.1429830639
	 C          -0.5455318820       -1.2683965154        0.1318046737
	 O           3.2687058204        0.3161186720        1.9633712690
	 C          -2.6427045516        0.7299892811        0.0386216357
	 H          -0.6941110125       -2.5052359783       -1.4916179621
	 H          -0.7063714381       -2.3844752586        1.8344693786
	 C          -5.2676580238       -0.4549060143        0.0673596614
	 H          -2.4169927583        1.8696902987       -1.6486162945
	 H          -2.4359561210        1.9892125642        1.6424228492
	 H          -5.5415461729       -1.6858948571       -1.5483081428
	 H          -6.7189258421        0.9877417943        0.0093006044
	 H          -5.5578516737       -1.5691121127        1.7626215193
	             0.0000643151        0.0000562145       -0.0000499582
	             0.0001544246       -0.0002039274        0.0000830717
	            -0.0002769464        0.0002824727       -0.0000000415
	             0.0000950646       -0.0002365934        0.0001691754
	             0.0000523037       -0.0000088724       -0.0000939057
	             0.0000174807       -0.0000510282        0.0000049756
	            -0.0000715237        0.0001726021       -0.0001349089
	            -0.0000132598       -0.0000235858        0.0000209579
	            -0.0000212275        0.0000198825        0.0000011283
	            -0.0000045565       -0.0000080714        0.0000084228
	            -0.0000106503       -0.0000047379       -0.0000107070
	             0.0000126140        0.0000026995       -0.0000022299
	            -0.0000014854        0.0000051204       -0.0000018273
	             0.0000034468       -0.0000021752        0.0000058467

	---Fragment 1 Intrafragment Coordinates---
	 - Coordinate -           - BOHR/RAD -       - ANG/DEG -
	 R(1,2)           =         1.786849	       0.945560
	 R(2,3)           =         2.513231	       1.329945
	 R(3,4)           =         2.841603	       1.503711
	 R(3,5)           =         2.235310	       1.182875
	 R(4,6)           =         2.898338	       1.533734
	 R(4,7)           =         2.046301	       1.082856
	 R(4,8)           =         2.042197	       1.080684
	 R(6,9)           =         2.880136	       1.524102
	 R(6,10)          =         2.048569	       1.084056
	 R(6,11)          =         2.049528	       1.084564
	 R(9,12)          =         2.049568	       1.084585
	 R(9,13)          =         2.047140	       1.083300
	 R(9,14)          =         2.049288	       1.084436
	 B(1,2,3)         =         1.892923	     108.456477
	 B(2,3,4)         =         1.964689	     112.568405
	 B(2,3,5)         =         2.131248	     122.111528
	 B(3,4,6)         =         1.943128	     111.333062
	 B(3,4,7)         =         1.901564	     108.951606
	 B(3,4,8)         =         1.874883	     107.422891
	 B(4,3,5)         =         2.187040	     125.308159
	 B(4,6,9)         =         1.955719	     112.054467
	 B(4,6,10)        =         1.907469	     109.289943
	 B(4,6,11)        =         1.902308	     108.994200
	 B(6,4,7)         =         1.916336	     109.797942
	 B(6,4,8)         =         1.924774	     110.281455
	 B(6,9,12)        =         1.940156	     111.162762
	 B(6,9,13)        =         1.934683	     110.849178
	 B(6,9,14)        =         1.940132	     111.161380
	 B(7,4,8)         =         1.902233	     108.989904
	 B(9,6,10)        =         1.915073	     109.725602
	 B(9,6,11)        =         1.914413	     109.687796
	 B(10,6,11)       =         1.866665	     106.952038
	 B(12,9,13)       =         1.881959	     107.828286
	 B(12,9,14)       =         1.882454	     107.856692
	 B(13,9,14)       =         1.882025	     107.832093
	 D(1,2,3,4)       =         3.106149	     177.969223
	 D(1,2,3,5)       =        -0.014619	      -0.837597
	 D(2,3,4,6)       =        -1.417839	     -81.236166
	*D(2,3,4,7)       =         0.698132	      40.000000
	 D(2,3,4,8)       =         2.756357	     157.927616
	 D(3,4,6,9)       =        -3.126125	    -179.113749
	 D(3,4,6,10)      =         1.030469	      59.041549
	 D(3,4,6,11)      =        -1.003933	     -57.521134
	 D(4,6,9,12)      =        -1.053231	     -60.345665
	 D(4,6,9,13)      =         3.137007	     179.737234
	 D(4,6,9,14)      =         1.043991	      59.816250
	 D(5,3,4,6)       =         1.702139	      97.525380
	 D(5,3,4,7)       =        -2.465076	    -141.238454
	 D(5,3,4,8)       =        -0.406851	     -23.310838
	 D(7,4,6,9)       =         1.049740	      60.145646
	 D(7,4,6,10)      =        -1.076852	     -61.699056
	 D(7,4,6,11)      =        -3.111254	    -178.261738
	 D(8,4,6,9)       =        -1.046656	     -59.968957
	 D(8,4,6,10)      =         3.109938	     178.186341
	 D(8,4,6,11)      =         1.075536	      61.623658
	 D(10,6,9,12)     =         1.069002	      61.249330
	 D(10,6,9,13)     =        -1.023946	     -58.667771
	 D(10,6,9,14)     =        -3.116962	    -178.588754
	 D(11,6,9,12)     =         3.114726	     178.460667
	 D(11,6,9,13)     =         1.021778	      58.543566
	 D(11,6,9,14)     =        -1.071238	     -61.377417

	Current energy   :      -305.9997268563

	Energy change for the previous step:
		Projected    :        -0.0000017478
		Actual       :        -0.0000006182

	Performing BFGS update.
	Previous computed or guess Hessian on step 1.
	Steps to be used in Hessian update: 4 3
	Taking RFO optimization step.
	Going to follow RFO solution 1.
	Using RFO vector 1.
	Norm of target step-size    0.00195
	Projected energy change by RFO approximation:        -0.0000001529

	Back-transformation to cartesian coordinates...
	Could not converge backtransformation.
	Using first guess instead.

	Back-transformation to cartesian coordinates to adjust frozen coordinates...
	Successfully converged to displaced geometry.

	--- Internal Coordinate Step in ANG or DEG, aJ/ANG or AJ/DEG ---
	 ---------------------------------------------------------------------------
	   Coordinate                Previous        Force       Change         New 
	   ----------                --------       ------       ------       ------
	    1 R(1,2)          =      0.945560    -0.000646    -0.000054     0.945505
	    2 R(2,3)          =      1.329945     0.000023    -0.000000     1.329944
	    3 R(3,4)          =      1.503711    -0.000393    -0.000053     1.503658
	    4 R(3,5)          =      1.182875     0.000404     0.000024     1.182898
	    5 R(4,6)          =      1.533734     0.000193     0.000072     1.533806
	    6 R(4,7)          =      1.082856    -0.000065    -0.000007     1.082849
	    7 R(4,8)          =      1.080684    -0.000259    -0.000051     1.080633
	    8 R(6,9)          =      1.524102     0.000036    -0.000025     1.524078
	    9 R(6,10)         =      1.084056     0.000098     0.000007     1.084063
	   10 R(6,11)         =      1.084564     0.000102     0.000016     1.084580
	   11 R(9,12)         =      1.084585     0.000013     0.000003     1.084588
	   12 R(9,13)         =      1.083300    -0.000039    -0.000005     1.083295
	   13 R(9,14)         =      1.084436    -0.000046    -0.000007     1.084429
	   14 B(1,2,3)        =    108.456477    -0.000008    -0.022106   108.434372
	   15 B(2,3,4)        =    112.568405    -0.000009    -0.019797   112.548608
	   16 B(2,3,5)        =    122.111528     0.000012     0.026640   122.138168
	   17 B(3,4,6)        =    111.333062    -0.000002    -0.012942   111.320120
	   18 B(3,4,7)        =    108.951606     0.000002     0.014875   108.966481
	   19 B(3,4,8)        =    107.422891    -0.000000    -0.004890   107.418001
	   20 B(4,3,5)        =    125.308159    -0.000003    -0.007639   125.300519
	   21 B(4,6,9)        =    112.054467    -0.000003    -0.011040   112.043427
	   22 B(4,6,10)       =    109.289943     0.000001     0.000612   109.290555
	   23 B(4,6,11)       =    108.994200     0.000000     0.000549   108.994749
	   24 B(6,4,7)        =    109.797942    -0.000000     0.005290   109.803232
	   25 B(6,4,8)        =    110.281455     0.000001    -0.003702   110.277753
	   26 B(6,9,12)       =    111.162762     0.000001     0.005022   111.167784
	   27 B(6,9,13)       =    110.849178    -0.000000    -0.002003   110.847175
	   28 B(6,9,14)       =    111.161380     0.000000     0.000415   111.161795
	   29 B(7,4,8)        =    108.989904     0.000000     0.001620   108.991524
	   30 B(9,6,10)       =    109.725602     0.000001     0.004652   109.730254
	   31 B(9,6,11)       =    109.687796     0.000001     0.002531   109.690326
	   32 B(10,6,11)      =    106.952038    -0.000000     0.003337   106.955375
	   33 B(12,9,13)      =    107.828286    -0.000001    -0.001210   107.827076
	   34 B(12,9,14)      =    107.856692    -0.000001    -0.001073   107.855619
	   35 B(13,9,14)      =    107.832093    -0.000000    -0.001355   107.830738
	   36 D(1,2,3,4)      =    177.969223     0.000000     0.012168   177.981391
	   37 D(1,2,3,5)      =     -0.837597     0.000000     0.051546    -0.786051
	   38 D(2,3,4,6)      =    -81.236166     0.000000    -0.008235   -81.244401
	   39 *D(2,3,4,7)     =     40.000000    -0.000000     0.000000    40.000000
	   40 D(2,3,4,8)      =    157.927616     0.000000     0.007198   157.934814
	   41 D(3,4,6,9)      =   -179.113749     0.000000     0.015970  -179.097779
	   42 D(3,4,6,10)     =     59.041549     0.000000     0.016979    59.058527
	   43 D(3,4,6,11)     =    -57.521134     0.000000     0.012328   -57.508806
	   44 D(4,6,9,12)     =    -60.345665    -0.000000    -0.012439   -60.358104
	   45 D(4,6,9,13)     =    179.737234    -0.000000    -0.012906   179.724328
	   46 D(4,6,9,14)     =     59.816250    -0.000000    -0.010139    59.806111
	   47 D(5,3,4,6)      =     97.525380    -0.000000    -0.048613    97.476767
	   48 D(5,3,4,7)      =   -141.238454    -0.000000    -0.040378  -141.278832
	   49 D(5,3,4,8)      =    -23.310838    -0.000000    -0.033179   -23.344018
	   50 D(7,4,6,9)      =     60.145646     0.000000     0.002184    60.147831
	   51 D(7,4,6,10)     =    -61.699056     0.000000     0.003193   -61.695863
	   52 D(7,4,6,11)     =   -178.261738    -0.000000    -0.001457  -178.263196
	   53 D(8,4,6,9)      =    -59.968957    -0.000000    -0.000852   -59.969809
	   54 D(8,4,6,10)     =    178.186341    -0.000000     0.000157   178.186498
	   55 D(8,4,6,11)     =     61.623658    -0.000000    -0.004493    61.619165
	   56 D(10,6,9,12)    =     61.249330    -0.000000    -0.015822    61.233508
	   57 D(10,6,9,13)    =    -58.667771    -0.000000    -0.016289   -58.684060
	   58 D(10,6,9,14)    =   -178.588754    -0.000000    -0.013522  -178.602277
	   59 D(11,6,9,12)    =    178.460667     0.000000    -0.007556   178.453111
	   60 D(11,6,9,13)    =     58.543566     0.000000    -0.008023    58.535543
	   61 D(11,6,9,14)    =    -61.377417     0.000000    -0.005257   -61.382674
	 ---------------------------------------------------------------------------
	Successfully symmetrized geometry.

  ==> Convergence Check <==

  Measures of convergence in internal coordinates in au.
  Criteria marked as inactive (o), active & met (*), and active & unmet ( ).
  ---------------------------------------------------------------------------------------------
   Step     Total Energy     Delta E     MAX Force     RMS Force      MAX Disp      RMS Disp   
  ---------------------------------------------------------------------------------------------
    Convergence Criteria    1.00e-06 *    3.00e-04 *             o    1.20e-03 *             o
  ---------------------------------------------------------------------------------------------
      5    -305.99972686   -6.18e-07 *    1.54e-04 *    3.35e-05 o    9.00e-04 *    2.50e-04 o  ~
  ---------------------------------------------------------------------------------------------


  **** Optimization is complete! (in 5 steps) ****

  ==> Optimization Summary <==

  Measures of convergence in internal coordinates in au.
  --------------------------------------------------------------------------------------------------------------- ~
   Step         Total Energy             Delta E       MAX Force       RMS Force        MAX Disp        RMS Disp  ~
  --------------------------------------------------------------------------------------------------------------- ~
      1    -305.999045129591   -305.999045129591      0.00411921      0.00135277      0.07068787      0.02026083  ~
      2    -305.999506869228     -0.000461739637      0.00304394      0.00092394      0.07577722      0.01593977  ~
      3    -305.999692279366     -0.000185410138      0.00224138      0.00053111      0.01412009      0.00400054  ~
      4    -305.999726238068     -0.000033958702      0.00033264      0.00007476      0.00288996      0.00068964  ~
      5    -305.999726856307     -0.000000618239      0.00015419      0.00003353      0.00089964      0.00024987  ~
  --------------------------------------------------------------------------------------------------------------- ~

	Writing optimization data to binary file.
	Final energy is   -305.9997268563075
	Final (previous) structure:
	Cartesian Geometry (in Angstrom)
	    H     2.3219653723   0.7367805068  -1.0669807623
	    O     1.4781788102   0.3166128372  -1.1415917412
	    C     1.0736353595  -0.0346523570   0.0756633786
	    C    -0.2886830385  -0.6712065274   0.0697480293
	    O     1.7297246217   0.1672827964   1.0389713275
	    C    -1.3984590178   0.3862936901   0.0204376894
	    H    -0.3673077280  -1.3257137819  -0.7893302295
	    H    -0.3737956658  -1.2618099613   0.9707593850
	    C    -2.7875245689  -0.2407258948   0.0356451976
	    H    -1.2790174810   0.9893974932  -0.8724101687
	    H    -1.2890524604   1.0526459520   0.8691327387
	    H    -2.9324599350  -0.8921371344  -0.8193293811
	    H    -3.5555024219   0.5226904455   0.0049216679
	    H    -2.9410884345  -0.8303383678   0.9327391354
	Saving final (previous) structure.
			--------------------------
			 OPTKING Finished Execution 
			--------------------------

    Final optimized geometry and variables:
    Molecular point group: c1
    Full point group: C1

    Geometry (in Angstrom), charge = 0, multiplicity = 1:

    H            2.321965372280     0.736780506763    -1.066980762272
    O            1.478178810153     0.316612837194    -1.141591741244
    C            1.073635359510    -0.034652357029     0.075663378607
    C           -0.288683038513    -0.671206527421     0.069748029316
    O            1.729724621716     0.167282796416     1.038971327537
    C           -1.398459017760     0.386293690085     0.020437689376
    H           -0.367307728021    -1.325713781862    -0.789330229459
    H           -0.373795665843    -1.261809961292     0.970759385035
    C           -2.787524568854    -0.240725894818     0.035645197580
    H           -1.279017481034     0.989397493190    -0.872410168745
    H           -1.289052460376     1.052645951998     0.869132738678
    H           -2.932459935023    -0.892137134434    -0.819329381050
    H           -3.555502421860     0.522690445516     0.004921667860
    H           -2.941088434459    -0.830338367765     0.932739135408

	Cleaning optimization helper files.


Properties will be evaluated at   0.000000,   0.000000,   0.000000 Bohr

Properties computed using the  density matrix

  Nuclear Dipole Moment: (a.u.)
     X:    -9.7495      Y:    -0.9431      Z:    -0.7228

  Electronic Dipole Moment: (a.u.)
     X:     9.2435      Y:     0.9130      Z:     0.1140

  Dipole Moment: (a.u.)
     X:    -0.5060      Y:    -0.0301      Z:    -0.6088     Total:     0.7922

  Dipole Moment: (Debye)
     X:    -1.2860      Y:    -0.0764      Z:    -1.5475     Total:     2.0136

  Quadrupole Moment: (Debye Ang)
    XX:   -35.8124     YY:   -35.4177     ZZ:   -40.4579
    XY:     1.1122     XZ:    -5.0323     YZ:    -1.0249

  Traceless Quadrupole Moment: (Debye Ang)
    XX:     1.4169     YY:     1.8117     ZZ:    -3.2286
    XY:     1.1122     XZ:    -5.0323     YZ:    -1.0249

  Mulliken Charges: (a.u.)
   Center  Symbol    Alpha    Beta     Spin     Total
       1     H     0.38028  0.38028  0.00000  0.23944
       2     O     4.16415  4.16415  0.00000 -0.32830
       3     C     2.80468  2.80468  0.00000  0.39065
       4     C     3.08703  3.08703  0.00000 -0.17406
       5     O     4.19680  4.19680  0.00000 -0.39360
       6     C     3.09445  3.09445  0.00000 -0.18890
       7     H     0.44352  0.44352  0.00000  0.11296
       8     H     0.43756  0.43756  0.00000  0.12487
       9     C     3.14977  3.14977  0.00000 -0.29954
      10     H     0.44517  0.44517  0.00000  0.10966
      11     H     0.44452  0.44452  0.00000  0.11097
      12     H     0.45375  0.45375  0.00000  0.09250
      13     H     0.44567  0.44567  0.00000  0.10865
      14     H     0.45265  0.45265  0.00000  0.09469

   Total alpha = 24.00000, Total beta = 24.00000, Total charge =  0.00000


*** Psi4 exiting successfully. Buy a developer a beer!
