    -----------------------------------------------------------------------
          Psi4: An Open-Source Ab Initio Electronic Structure Package
                              Psi4 (no tag) Driver

                          Git: Rev {detached?}  

    J. M. Turney, A. C. Simmonett, R. M. Parrish, E. G. Hohenstein,
    F. A. Evangelista, J. T. Fermann, B. J. Mintz, L. A. Burns, J. J. Wilke,
    M. L. Abrams, N. J. Russ, M. L. Leininger, C. L. Janssen, E. T. Seidl,
    W. D. Allen, H. F. Schaefer, R. A. King, E. F. Valeev, C. D. Sherrill,
    and T. D. Crawford, WIREs Comput. Mol. Sci. 2, 556-565 (2012)
    (doi: 10.1002/wcms.93)

                         Additional Contributions by
    A. E. DePrince, M. Saitow, U. Bozkaya, A. Yu. Sokolov
    -----------------------------------------------------------------------


    Psi4 started on: Thu Sep  1 22:06:12 2016

    Process ID:  32711
    PSI4DATADIR: /export131/home/mjharvey/miniconda3/share
    Memory level set to 256.000 MB

  ==> Input File <==

--------------------------------------------------------------------------
set {
	reference rhf
	basis 6-31G*
}


set_num_threads( 1 )
memory 2 gb

molecule MOL {
0 1

H	 -1.764462	 -0.373314	 -1.056230
O	 -1.422729	 -0.573567	 -0.196946
C	 -0.731407	 0.539437	 0.309156
C	 0.680193	 0.672443	 -0.251532
H	 -1.319765	 1.404033	 0.030086
H	 -0.700012	 0.506517	 1.397677
C	 1.599139	 -0.492137	 0.118598
H	 0.616402	 0.758534	 -1.332349
H	 1.107032	 1.602637	 0.117369
H	 1.239738	 -1.428634	 -0.297334
H	 2.601428	 -0.335055	 -0.265730
H	 1.674954	 -0.608418	 1.197020

	symmetry c1
}
set optking {
	frozen_dihedral = ("
		8 4 3 2
	")
}

ee = energy('scf')
oeprop('DIPOLE', 'QUADRUPOLE', 'MULLIKEN_CHARGES')
f=open( 'psi4out.xyz', 'w' )
f.write( "12  " )
f.write( str(ee) + "\n" )
f.write( MOL.save_string_xyz() )
f.close()
--------------------------------------------------------------------------

  Memory set to   2.000 GiB by Python script.

*** tstart() called on cx1-3-2-1.cx1.hpc.ic.ac.uk
*** at Thu Sep  1 22:06:12 2016


         ---------------------------------------------------------
                                   SCF
            by Justin Turney, Rob Parrish, and Andy Simmonett
                              RHF Reference
                        1 Threads,   2000 MiB Core
         ---------------------------------------------------------

  ==> Geometry <==

    Molecular point group: c1
    Full point group: C1

    Geometry (in Angstrom), charge = 0, multiplicity = 1:

       Center              X                  Y                   Z               Mass       
    ------------   -----------------  -----------------  -----------------  -----------------
           H         -1.752823557542    -0.389981425466    -1.035473218255     1.007825032070
           O         -1.411090557542    -0.590234425466    -0.176189218255    15.994914619560
           C         -0.719768557542     0.522769574534     0.329912781745    12.000000000000
           C          0.691831442458     0.655775574534    -0.230775218255    12.000000000000
           H         -1.308126557542     1.387365574534     0.050842781745     1.007825032070
           H         -0.688373557542     0.489849574534     1.418433781745     1.007825032070
           C          1.610777442458    -0.508804425466     0.139354781745    12.000000000000
           H          0.628040442458     0.741866574534    -1.311592218255     1.007825032070
           H          1.118670442458     1.585969574534     0.138125781745     1.007825032070
           H          1.251376442458    -1.445301425466    -0.276577218255     1.007825032070
           H          2.613066442458    -0.351722425466    -0.244973218255     1.007825032070
           H          1.686592442458    -0.625085425466     1.217776781745     1.007825032070

  Running in c1 symmetry.

  Rotational constants: A =      0.49298  B =      0.16471  C =      0.14215 [cm^-1]
  Rotational constants: A =  14779.29940  B =   4937.93630  C =   4261.52982 [MHz]
  Nuclear repulsion =  132.743328061085379

  Charge       = 0
  Multiplicity = 1
  Electrons    = 34
  Nalpha       = 17
  Nbeta        = 17

  ==> Algorithm <==

  SCF Algorithm Type is DF.
  DIIS enabled.
  MOM disabled.
  Fractional occupation disabled.
  Guess Type is CORE.
  Energy threshold   = 1.00e-06
  Density threshold  = 1.00e-06
  Integral threshold = 0.00e+00

  ==> Primary Basis <==

  Basis Set: 6-31G*
    Number of shells: 40
    Number of basis function: 76
    Number of Cartesian functions: 76
    Spherical Harmonics?: false
    Max angular momentum: 2

  ==> Pre-Iterations <==

   -------------------------------------------------------
    Irrep   Nso     Nmo     Nalpha   Nbeta   Ndocc  Nsocc
   -------------------------------------------------------
     A         76      76       0       0       0       0
   -------------------------------------------------------
    Total      76      76      17      17      17       0
   -------------------------------------------------------

 OEINTS: Overlap, kinetic, potential, dipole, and quadrupole integrals
         stored in file 35.

  ==> Integral Setup <==

  ==> DFJK: Density-Fitted J/K Matrices <==

    J tasked:                  Yes
    K tasked:                  Yes
    wK tasked:                  No
    OpenMP threads:              1
    Integrals threads:           1
    Memory (MB):              1430
    Algorithm:                Core
    Integral Cache:           NONE
    Schwarz Cutoff:          1E-12
    Fitting Condition:       1E-12

   => Auxiliary Basis Set <=

  Basis Set: 
    Number of shells: 168
    Number of basis function: 524
    Number of Cartesian functions: 524
    Spherical Harmonics?: false
    Max angular momentum: 3

  Minimum eigenvalue in the overlap matrix is 5.2815324142E-03.
  Using Symmetric Orthogonalization.
  SCF Guess: Core (One-Electron) Hamiltonian.

  ==> Iterations <==

                           Total Energy        Delta E     RMS |[F,P]|

   @DF-RHF iter   1:  -155.95378253038524   -1.55954e+02   8.71060e-02 
   @DF-RHF iter   2:  -120.73977315404062    3.52140e+01   8.12567e-02 DIIS
   @DF-RHF iter   3:  -166.25461256169643   -4.55148e+01   6.17289e-02 DIIS
   @DF-RHF iter   4:  -191.79707183756096   -2.55425e+01   2.15592e-02 DIIS
   @DF-RHF iter   5:  -193.06584762428139   -1.26878e+00   3.35598e-03 DIIS
   @DF-RHF iter   6:  -193.10276646541473   -3.69188e-02   1.22539e-03 DIIS
   @DF-RHF iter   7:  -193.10719189368490   -4.42543e-03   4.94207e-04 DIIS
   @DF-RHF iter   8:  -193.10812860692090   -9.36713e-04   1.48137e-04 DIIS
   @DF-RHF iter   9:  -193.10821874021326   -9.01333e-05   4.65440e-05 DIIS
   @DF-RHF iter  10:  -193.10823013045780   -1.13902e-05   1.28810e-05 DIIS
   @DF-RHF iter  11:  -193.10823113242276   -1.00196e-06   3.30609e-06 DIIS
   @DF-RHF iter  12:  -193.10823118848128   -5.60585e-08   7.56689e-07 DIIS

  ==> Post-Iterations <==

    Orbital Energies (a.u.)
    -----------------------

    Doubly Occupied:                                                      

       1A    -20.552096     2A    -11.268894     3A    -11.217862  
       4A    -11.206822     5A     -1.360055     6A     -1.047400  
       7A     -0.920169     8A     -0.809988     9A     -0.686358  
      10A     -0.641167    11A     -0.616009    12A     -0.567340  
      13A     -0.524641    14A     -0.521378    15A     -0.484389  
      16A     -0.464232    17A     -0.427625  

    Virtual:                                                              

      18A      0.216669    19A      0.262630    20A      0.291878  
      21A      0.301606    22A      0.313278    23A      0.323959  
      24A      0.342532    25A      0.354865    26A      0.401434  
      27A      0.422779    28A      0.453389    29A      0.717546  
      30A      0.728868    31A      0.757369    32A      0.784877  
      33A      0.835484    34A      0.909443    35A      0.942814  
      36A      0.971288    37A      1.048377    38A      1.085108  
      39A      1.136022    40A      1.156383    41A      1.170557  
      42A      1.189849    43A      1.209277    44A      1.223691  
      45A      1.238812    46A      1.257977    47A      1.283264  
      48A      1.337039    49A      1.440919    50A      1.566642  
      51A      1.690953    52A      1.747603    53A      1.826167  
      54A      1.853968    55A      1.984127    56A      2.029615  
      57A      2.086335    58A      2.177526    59A      2.275860  
      60A      2.306356    61A      2.390529    62A      2.450561  
      63A      2.547331    64A      2.582490    65A      2.648304  
      66A      2.700924    67A      2.752872    68A      2.821309  
      69A      2.852607    70A      2.993688    71A      3.050405  
      72A      3.208215    73A      4.173134    74A      4.588178  
      75A      4.748359    76A      4.906639  

    Final Occupation by Irrep:
              A 
    DOCC [    17 ]

  Energy converged.

  @DF-RHF Final Energy:  -193.10823118848128

   => Energetics <=

    Nuclear Repulsion Energy =            132.7433280610853785
    One-Electron Energy =                -525.0704221036507988
    Two-Electron Energy =                 199.2188628540841933
    DFT Exchange-Correlation Energy =       0.0000000000000000
    Empirical Dispersion Energy =           0.0000000000000000
    PCM Polarization Energy =               0.0000000000000000
    EFP Energy =                            0.0000000000000000
    Total Energy =                       -193.1082311884812270

    Alert: EFP and PCM quantities not currently incorporated into SCF psivars.

Properties will be evaluated at   0.000000,   0.000000,   0.000000 Bohr
  ==> Properties <==


Properties computed using the SCF density matrix

  Nuclear Dipole Moment: (a.u.)
     X:     3.3198      Y:     1.3030      Z:    -0.0416

  Electronic Dipole Moment: (a.u.)
     X:    -3.2394      Y:    -0.7023      Z:    -0.3303

  Dipole Moment: (a.u.)
     X:     0.0803      Y:     0.6007      Z:    -0.3719     Total:     0.7110

  Dipole Moment: (Debye)
     X:     0.2042      Y:     1.5268      Z:    -0.9452     Total:     1.8073


  Saving occupied orbitals to File 180.

*** tstop() called on cx1-3-2-1.cx1.hpc.ic.ac.uk at Thu Sep  1 22:06:17 2016
Module time:
	user time   =       4.23 seconds =       0.07 minutes
	system time =       0.04 seconds =       0.00 minutes
	total time  =          5 seconds =       0.08 minutes
Total time:
	user time   =       4.23 seconds =       0.07 minutes
	system time =       0.04 seconds =       0.00 minutes
	total time  =          5 seconds =       0.08 minutes


Properties will be evaluated at   0.000000,   0.000000,   0.000000 Bohr

Properties computed using the  density matrix

  Nuclear Dipole Moment: (a.u.)
     X:     3.3198      Y:     1.3030      Z:    -0.0416

  Electronic Dipole Moment: (a.u.)
     X:    -3.2394      Y:    -0.7023      Z:    -0.3303

  Dipole Moment: (a.u.)
     X:     0.0803      Y:     0.6007      Z:    -0.3719     Total:     0.7110

  Dipole Moment: (Debye)
     X:     0.2042      Y:     1.5268      Z:    -0.9452     Total:     1.8073

  Quadrupole Moment: (Debye Ang)
    XX:   -27.0017     YY:   -27.9447     ZZ:   -24.1015
    XY:    -1.8254     XZ:     2.5847     YZ:     0.6664

  Traceless Quadrupole Moment: (Debye Ang)
    XX:    -0.6524     YY:    -1.5954     ZZ:     2.2478
    XY:    -1.8254     XZ:     2.5847     YZ:     0.6664

  Mulliken Charges: (a.u.)
   Center  Symbol    Alpha    Beta     Spin     Total
       1     H     0.28105  0.28105  0.00000  0.43789
       2     O     4.36982  4.36982  0.00000 -0.73965
       3     C     2.99783  2.99783  0.00000  0.00435
       4     C     3.16077  3.16077  0.00000 -0.32154
       5     H     0.43013  0.43013  0.00000  0.13974
       6     H     0.41727  0.41727  0.00000  0.16547
       7     C     3.24042  3.24042  0.00000 -0.48085
       8     H     0.42615  0.42615  0.00000  0.14770
       9     H     0.42350  0.42350  0.00000  0.15301
      10     H     0.41043  0.41043  0.00000  0.17914
      11     H     0.42058  0.42058  0.00000  0.15884
      12     H     0.42205  0.42205  0.00000  0.15590

   Total alpha = 17.00000, Total beta = 17.00000, Total charge = -0.00000


*** PSI4 exiting successfully. Buy a developer a beer!
