    -----------------------------------------------------------------------
          Psi4: An Open-Source Ab Initio Electronic Structure Package
                              Psi4 1.0.54 Driver

                          Git: Rev {master} 8d4cec3 dirty

    J. M. Turney, A. C. Simmonett, R. M. Parrish, E. G. Hohenstein,
    F. A. Evangelista, J. T. Fermann, B. J. Mintz, L. A. Burns, J. J. Wilke,
    M. L. Abrams, N. J. Russ, M. L. Leininger, C. L. Janssen, E. T. Seidl,
    W. D. Allen, H. F. Schaefer, R. A. King, E. F. Valeev, C. D. Sherrill,
    and T. D. Crawford, WIREs Comput. Mol. Sci. 2, 556-565 (2012)
    (doi: 10.1002/wcms.93)

                         Additional Contributions by
    A. E. DePrince, U. Bozkaya, A. Yu. Sokolov, D. G. A. Smith, R. Di Remigio,
    R. M. Richard, J. F. Gonthier, H. R. McAlexander, M. Saitow, and
    B. P. Pritchard
    -----------------------------------------------------------------------


    Psi4 started on: Sat Sep 10 15:17:49 2016

    Process ID:  27942
    PSI4DATADIR: /export131/home/mjharvey/miniconda3/share/psi4
    Memory level set to 256.000 MB

  ==> Input File <==

--------------------------------------------------------------------------
set {
	reference rhf
	basis cc-pvtz
}


set_num_threads( 4 )
memory 2 gb

molecule MOL {
0 1

H	 -3.162295	 0.493233	 -0.000107
C	 -2.364013	 -0.234699	 0.000005
O	 -1.158843	 0.454662	 -0.000087
H	 -2.464419	 -0.863588	 -0.882153
H	 -2.464432	 -0.863331	 0.882345
C	 -0.028716	 -0.359666	 0.000037
C	 1.212742	 0.509342	 -0.000053
H	 -0.034260	 -1.007019	 -0.877198
H	 -0.034300	 -1.006808	 0.877430
C	 2.497787	 -0.311030	 0.000090
H	 1.182084	 1.155395	 -0.870456
H	 1.182064	 1.155557	 0.870244
H	 2.560381	 -0.947911	 -0.876010
H	 3.367830	 0.333986	 -0.000109
H	 2.560504	 -0.947517	 0.876457

	symmetry c1
}
ee,wfn = energy('scf', return_wfn=True)
oeprop( wfn, 'DIPOLE', 'QUADRUPOLE', 'MULLIKEN_CHARGES')
oeprop( wfn, 'GRID_ESP')
f=open( 'psi4out.xyz', 'w' )
f.write( "15  " )
f.write( str(ee) + "\n" )
f.write( MOL.save_string_xyz() )
f.close()
--------------------------------------------------------------------------

  Memory set to   2.000 GiB by Python script.

*** tstart() called on cx1-27-2-2
*** at Sat Sep 10 15:17:50 2016


         ---------------------------------------------------------
                                   SCF
            by Justin Turney, Rob Parrish, and Andy Simmonett
                              RHF Reference
                        4 Threads,   2000 MiB Core
         ---------------------------------------------------------

  ==> Geometry <==

    Molecular point group: c1
    Full point group: C1

    Geometry (in Angstrom), charge = 0, multiplicity = 1:

       Center              X                  Y                   Z               Mass       
    ------------   -----------------  -----------------  -----------------  -----------------
           H         -3.162190187379     0.493204731771    -0.000107039271     1.007825032070
           C         -2.363908187379    -0.234727268229     0.000004960729    12.000000000000
           O         -1.158738187379     0.454633731771    -0.000087039271    15.994914619560
           H         -2.464314187379    -0.863616268229    -0.882153039271     1.007825032070
           H         -2.464327187379    -0.863359268229     0.882344960729     1.007825032070
           C         -0.028611187379    -0.359694268229     0.000036960729    12.000000000000
           C          1.212846812621     0.509313731771    -0.000053039271    12.000000000000
           H         -0.034155187379    -1.007047268229    -0.877198039271     1.007825032070
           H         -0.034195187379    -1.006836268229     0.877429960729     1.007825032070
           C          2.497891812621    -0.311058268229     0.000089960729    12.000000000000
           H          1.182188812621     1.155366731771    -0.870456039271     1.007825032070
           H          1.182168812621     1.155528731771     0.870243960729     1.007825032070
           H          2.560485812621    -0.947939268229    -0.876010039271     1.007825032070
           H          3.367934812621     0.333957731771    -0.000109039271     1.007825032070
           H          2.560608812621    -0.947545268229     0.876456960729     1.007825032070

  Running in c1 symmetry.

  Rotational constants: A =      0.69147  B =      0.07111  C =      0.06769 [cm^-1]
  Rotational constants: A =  20729.84322  B =   2131.83795  C =   2029.20809 [MHz]
  Nuclear repulsion =  190.006843812315935

  Charge       = 0
  Multiplicity = 1
  Electrons    = 42
  Nalpha       = 21
  Nbeta        = 21

  ==> Algorithm <==

  SCF Algorithm Type is DF.
  DIIS enabled.
  MOM disabled.
  Fractional occupation disabled.
  Guess Type is SAD.
  Energy threshold   = 1.00e-06
  Density threshold  = 1.00e-06
  Integral threshold = 0.00e+00

  ==> Primary Basis <==

  Basis Set: CC-PVTZ
    Number of shells: 110
    Number of basis function: 290
    Number of Cartesian functions: 325
    Spherical Harmonics?: true
    Max angular momentum: 3

  ==> Pre-Iterations <==

   -------------------------------------------------------
    Irrep   Nso     Nmo     Nalpha   Nbeta   Ndocc  Nsocc
   -------------------------------------------------------
     A        290     290       0       0       0       0
   -------------------------------------------------------
    Total     290     290      21      21      21       0
   -------------------------------------------------------

  ==> Integral Setup <==

  ==> DFJK: Density-Fitted J/K Matrices <==

    J tasked:                  Yes
    K tasked:                  Yes
    wK tasked:                  No
    OpenMP threads:              4
    Integrals threads:           4
    Memory (MB):              1430
    Algorithm:                Core
    Integral Cache:           NONE
    Schwarz Cutoff:          1E-12
    Fitting Condition:       1E-12

   => Auxiliary Basis Set <=

  Basis Set: 
    Number of shells: 225
    Number of basis function: 695
    Number of Cartesian functions: 830
    Spherical Harmonics?: true
    Max angular momentum: 4

  Minimum eigenvalue in the overlap matrix is 6.7179715969E-04.
  Using Symmetric Orthogonalization.
  SCF Guess: Superposition of Atomic Densities via on-the-fly atomic UHF.

  ==> Iterations <==

                           Total Energy        Delta E     RMS |[F,P]|

   @DF-RHF iter   0:  -234.36504435226124   -2.34365e+02   1.53302e-02 
   @DF-RHF iter   1:  -232.11769314880286    2.24735e+00   1.32704e-03 
   @DF-RHF iter   2:  -232.21444581094426   -9.67527e-02   5.09767e-04 DIIS
   @DF-RHF iter   3:  -232.22571291924027   -1.12671e-02   1.99994e-04 DIIS
   @DF-RHF iter   4:  -232.22802484227265   -2.31192e-03   5.21107e-05 DIIS
   @DF-RHF iter   5:  -232.22819858995149   -1.73748e-04   1.74230e-05 DIIS
   @DF-RHF iter   6:  -232.22822163689182   -2.30469e-05   4.61598e-06 DIIS
   @DF-RHF iter   7:  -232.22822327685122   -1.63996e-06   1.18073e-06 DIIS
   @DF-RHF iter   8:  -232.22822339051658   -1.13665e-07   3.60820e-07 DIIS

  ==> Post-Iterations <==

    Orbital Energies (a.u.)
    -----------------------

    Doubly Occupied:                                                      

       1A    -20.547596     2A    -11.264400     3A    -11.261771  
       4A    -11.212770     5A    -11.210723     6A     -1.381836  
       7A     -1.058495     8A     -0.956162     9A     -0.877395  
      10A     -0.809580    11A     -0.677240    12A     -0.655933  
      13A     -0.632279    14A     -0.608549    15A     -0.565259  
      16A     -0.540922    17A     -0.503783    18A     -0.490406  
      19A     -0.478397    20A     -0.462947    21A     -0.416871  

    Virtual:                                                              

      22A      0.141674    23A      0.154246    24A      0.186583  
      25A      0.188084    26A      0.196136    27A      0.223228  
      28A      0.227657    29A      0.241285    30A      0.242343  
      31A      0.270661    32A      0.284915    33A      0.321481  
      34A      0.355245    35A      0.360324    36A      0.393221  
      37A      0.402546    38A      0.405364    39A      0.427594  
      40A      0.458108    41A      0.501702    42A      0.528935  
      43A      0.533890    44A      0.549897    45A      0.586661  
      46A      0.590108    47A      0.604864    48A      0.634085  
      49A      0.640281    50A      0.641328    51A      0.653251  
      52A      0.658103    53A      0.658194    54A      0.679291  
      55A      0.681117    56A      0.683340    57A      0.710774  
      58A      0.733017    59A      0.734725    60A      0.779890  
      61A      0.820721    62A      0.877933    63A      0.889394  
      64A      0.903289    65A      0.925658    66A      0.938917  
      67A      0.971892    68A      0.984610    69A      0.989696  
      70A      1.016909    71A      1.076031    72A      1.101627  
      73A      1.109704    74A      1.138558    75A      1.185971  
      76A      1.186407    77A      1.192601    78A      1.206568  
      79A      1.223070    80A      1.246191    81A      1.259000  
      82A      1.275331    83A      1.285060    84A      1.291293  
      85A      1.309418    86A      1.329681    87A      1.357717  
      88A      1.376091    89A      1.383388    90A      1.396990  
      91A      1.404557    92A      1.420883    93A      1.457729  
      94A      1.477982    95A      1.492883    96A      1.498918  
      97A      1.514758    98A      1.523284    99A      1.552535  
     100A      1.565166   101A      1.569512   102A      1.592583  
     103A      1.610545   104A      1.618208   105A      1.631928  
     106A      1.646505   107A      1.688380   108A      1.750441  
     109A      1.773993   110A      1.787135   111A      1.817345  
     112A      1.853009   113A      1.871407   114A      1.941139  
     115A      2.029805   116A      2.231322   117A      2.236631  
     118A      2.332013   119A      2.336055   120A      2.477046  
     121A      2.495584   122A      2.535474   123A      2.588218  
     124A      2.603314   125A      2.627576   126A      2.653716  
     127A      2.671366   128A      2.721827   129A      2.748473  
     130A      2.784114   131A      2.808494   132A      2.834998  
     133A      2.850912   134A      2.871814   135A      2.925721  
     136A      2.942585   137A      2.977713   138A      3.026824  
     139A      3.052393   140A      3.067760   141A      3.108258  
     142A      3.113980   143A      3.122442   144A      3.140504  
     145A      3.145936   146A      3.170201   147A      3.187231  
     148A      3.196925   149A      3.223550   150A      3.255236  
     151A      3.260499   152A      3.286190   153A      3.312461  
     154A      3.337129   155A      3.342306   156A      3.357364  
     157A      3.366443   158A      3.376313   159A      3.392112  
     160A      3.415316   161A      3.420147   162A      3.444799  
     163A      3.462545   164A      3.482916   165A      3.514172  
     166A      3.523953   167A      3.524173   168A      3.568357  
     169A      3.575127   170A      3.591145   171A      3.621435  
     172A      3.652737   173A      3.662696   174A      3.679153  
     175A      3.680322   176A      3.733611   177A      3.744334  
     178A      3.766242   179A      3.790484   180A      3.797357  
     181A      3.798312   182A      3.841603   183A      3.849215  
     184A      3.861770   185A      3.878478   186A      3.904687  
     187A      3.926260   188A      3.950077   189A      3.963673  
     190A      3.990723   191A      4.019488   192A      4.046856  
     193A      4.081414   194A      4.087189   195A      4.126641  
     196A      4.130155   197A      4.151261   198A      4.162399  
     199A      4.196165   200A      4.197491   201A      4.212250  
     202A      4.213998   203A      4.265153   204A      4.268459  
     205A      4.290288   206A      4.297461   207A      4.324520  
     208A      4.348634   209A      4.366897   210A      4.367686  
     211A      4.413027   212A      4.413076   213A      4.442811  
     214A      4.453244   215A      4.456622   216A      4.487412  
     217A      4.517617   218A      4.548266   219A      4.549279  
     220A      4.589893   221A      4.594917   222A      4.623109  
     223A      4.637546   224A      4.658270   225A      4.666313  
     226A      4.722300   227A      4.772897   228A      4.789920  
     229A      4.838383   230A      4.852289   231A      4.913014  
     232A      4.971831   233A      5.001108   234A      5.008506  
     235A      5.065244   236A      5.090692   237A      5.119757  
     238A      5.153693   239A      5.195657   240A      5.220594  
     241A      5.241732   242A      5.258797   243A      5.295277  
     244A      5.302512   245A      5.345162   246A      5.360115  
     247A      5.380269   248A      5.402398   249A      5.466109  
     250A      5.481725   251A      5.526539   252A      5.542756  
     253A      5.585083   254A      5.595382   255A      5.614260  
     256A      5.633158   257A      5.665307   258A      5.732138  
     259A      5.748878   260A      5.769126   261A      5.798572  
     262A      5.870359   263A      5.876030   264A      5.905135  
     265A      5.909109   266A      5.939498   267A      5.981744  
     268A      6.026428   269A      6.141187   270A      6.214841  
     271A      6.258691   272A      6.287438   273A      6.315865  
     274A      6.329429   275A      6.399628   276A      6.518334  
     277A      6.622831   278A      6.742284   279A      6.875406  
     280A      6.980370   281A      7.329738   282A      7.388166  
     283A      7.560658   284A      7.892580   285A      7.923276  
     286A     11.355843   287A     13.291222   288A     13.797398  
     289A     14.205498   290A     14.243731  

    Final Occupation by Irrep:
              A 
    DOCC [    21 ]

  Energy converged.

  @DF-RHF Final Energy:  -232.22822339051658

   => Energetics <=

    Nuclear Repulsion Energy =            190.0068438123159353
    One-Electron Energy =                -691.2436131736894822
    Two-Electron Energy =                 269.0085459708571989
    DFT Exchange-Correlation Energy =       0.0000000000000000
    Empirical Dispersion Energy =           0.0000000000000000
    PCM Polarization Energy =               0.0000000000000000
    EFP Energy =                            0.0000000000000000
    Total Energy =                       -232.2282233905163480


  Saving occupied orbitals to File 180.

*** tstop() called on cx1-27-2-2 at Sat Sep 10 15:17:54 2016
Module time:
	user time   =      14.49 seconds =       0.24 minutes
	system time =       0.40 seconds =       0.01 minutes
	total time  =          4 seconds =       0.07 minutes
Total time:
	user time   =      14.49 seconds =       0.24 minutes
	system time =       0.40 seconds =       0.01 minutes
	total time  =          4 seconds =       0.07 minutes


Properties will be evaluated at   0.000000,   0.000000,   0.000000 Bohr

Properties computed using the SCF density matrix

  Nuclear Dipole Moment: (a.u.)
     X:     2.5202      Y:    -2.3399      Z:     0.0004

  Electronic Dipole Moment: (a.u.)
     X:    -2.5206      Y:     1.8855      Z:    -0.0003

  Dipole Moment: (a.u.)
     X:    -0.0004      Y:    -0.4544      Z:     0.0001     Total:     0.4544

  Dipole Moment: (Debye)
     X:    -0.0011      Y:    -1.1550      Z:     0.0002     Total:     1.1550



Properties will be evaluated at   0.000000,   0.000000,   0.000000 Bohr

Properties computed using the  density matrix

  Nuclear Dipole Moment: (a.u.)
     X:     2.5202      Y:    -2.3399      Z:     0.0004

  Electronic Dipole Moment: (a.u.)
     X:    -2.5206      Y:     1.8855      Z:    -0.0003

  Dipole Moment: (a.u.)
     X:    -0.0004      Y:    -0.4544      Z:     0.0001     Total:     0.4544

  Dipole Moment: (Debye)
     X:    -0.0011      Y:    -1.1550      Z:     0.0002     Total:     1.1550

  Quadrupole Moment: (Debye Ang)
    XX:   -30.8804     YY:   -34.2916     ZZ:   -33.0333
    XY:     1.6503     XZ:    -0.0001     YZ:     0.0001

  Traceless Quadrupole Moment: (Debye Ang)
    XX:     1.8547     YY:    -1.5565     ZZ:    -0.2982
    XY:     1.6503     XZ:    -0.0001     YZ:     0.0001

  Mulliken Charges: (a.u.)
   Center  Symbol    Alpha    Beta     Spin     Total
       1     H     0.44685  0.44685  0.00000  0.10631
       2     C     3.03353  3.03353  0.00000 -0.06707
       3     O     4.17153  4.17153  0.00000 -0.34307
       4     H     0.47212  0.47212  0.00000  0.05577
       5     H     0.47212  0.47212  0.00000  0.05577
       6     C     2.95610  2.95610  0.00000  0.08780
       7     C     3.08015  3.08015  0.00000 -0.16031
       8     H     0.47583  0.47583  0.00000  0.04835
       9     H     0.47583  0.47583  0.00000  0.04834
      10     C     3.15583  3.15583  0.00000 -0.31167
      11     H     0.45109  0.45109  0.00000  0.09782
      12     H     0.45110  0.45110  0.00000  0.09781
      13     H     0.45583  0.45583  0.00000  0.08833
      14     H     0.44626  0.44626  0.00000  0.10747
      15     H     0.45583  0.45583  0.00000  0.08835

   Total alpha = 21.00000, Total beta = 21.00000, Total charge = -0.00000



Properties will be evaluated at   0.000000,   0.000000,   0.000000 Bohr

Properties computed using the  density matrix


 Electrostatic potential computed on the grid and written to grid_esp.dat

*** Psi4 exiting successfully. Buy a developer a beer!
