    -----------------------------------------------------------------------
          Psi4: An Open-Source Ab Initio Electronic Structure Package
                              Psi4 1.0.54 Driver

                          Git: Rev {master} 8d4cec3 dirty

    J. M. Turney, A. C. Simmonett, R. M. Parrish, E. G. Hohenstein,
    F. A. Evangelista, J. T. Fermann, B. J. Mintz, L. A. Burns, J. J. Wilke,
    M. L. Abrams, N. J. Russ, M. L. Leininger, C. L. Janssen, E. T. Seidl,
    W. D. Allen, H. F. Schaefer, R. A. King, E. F. Valeev, C. D. Sherrill,
    and T. D. Crawford, WIREs Comput. Mol. Sci. 2, 556-565 (2012)
    (doi: 10.1002/wcms.93)

                         Additional Contributions by
    A. E. DePrince, U. Bozkaya, A. Yu. Sokolov, D. G. A. Smith, R. Di Remigio,
    R. M. Richard, J. F. Gonthier, H. R. McAlexander, M. Saitow, and
    B. P. Pritchard
    -----------------------------------------------------------------------


    Psi4 started on: Sat Sep 10 16:36:58 2016

    Process ID:  34489
    PSI4DATADIR: /export131/home/mjharvey/miniconda3/share/psi4
    Memory level set to 256.000 MB

  ==> Input File <==

--------------------------------------------------------------------------
set {
	reference rhf
	basis cc-pvtz
}


set_num_threads( 4 )
memory 2 gb

molecule MOL {
0 1

H	 2.341977	 -1.816528	 1.560757
O	 2.686225	 -1.027477	 1.181793
C	 1.715972	 -0.290286	 0.612810
C	 2.087879	 0.904787	 0.013974
C	 0.394147	 -0.681595	 0.609243
H	 3.121091	 1.190146	 0.028102
C	 1.138014	 1.700683	 -0.584072
H	 0.079239	 -1.597994	 1.063493
C	 -0.532034	 0.141680	 0.000000
H	 1.434694	 2.622553	 -1.044380
C	 -0.195975	 1.329000	 -0.600514
N	 -1.937041	 -0.281114	 0.000000
H	 -0.944126	 1.936518	 -1.060855
O	 -2.159542	 -1.446261	 0.000000
O	 -2.764978	 0.565773	 0.000000

	symmetry c1
}
set optking {
	frozen_dihedral = ("
		11 9 12 14
	")
}

ee,wfn = optimize('scf', return_wfn=True)
oeprop( wfn, 'DIPOLE', 'QUADRUPOLE', 'MULLIKEN_CHARGES')
f=open( 'psi4out.xyz', 'w' )
f.write( "15  " )
f.write( str(ee) + "\n" )
f.write( MOL.save_string_xyz() )
f.close()
--------------------------------------------------------------------------

  Memory set to   2.000 GiB by Python script.
gradient() will perform analytic gradient computation.

*** tstart() called on cx1-27-4-1
*** at Sat Sep 10 16:36:58 2016


         ---------------------------------------------------------
                                   SCF
            by Justin Turney, Rob Parrish, and Andy Simmonett
                              RHF Reference
                        4 Threads,   2000 MiB Core
         ---------------------------------------------------------

  ==> Geometry <==

    Molecular point group: c1
    Full point group: C1

    Geometry (in Angstrom), charge = 0, multiplicity = 1:

       Center              X                  Y                   Z               Mass       
    ------------   -----------------  -----------------  -----------------  -----------------
           H          2.353124101545    -1.853571140943     1.416386650595     1.007825032070
           O          2.697372101545    -1.064520140943     1.037422650595    15.994914619560
           C          1.727119101545    -0.327329140943     0.468439650595    12.000000000000
           C          2.099026101545     0.867743859057    -0.130396349405    12.000000000000
           C          0.405294101545    -0.718638140943     0.464872650595    12.000000000000
           H          3.132238101545     1.153102859057    -0.116268349405     1.007825032070
           C          1.149161101545     1.663639859057    -0.728442349405    12.000000000000
           H          0.090386101545    -1.635037140943     0.919122650595     1.007825032070
           C         -0.520886898455     0.104636859057    -0.144370349405    12.000000000000
           H          1.445841101545     2.585509859057    -1.188750349405     1.007825032070
           C         -0.184827898455     1.291956859057    -0.744884349405    12.000000000000
           N         -1.925893898455    -0.318157140943    -0.144370349405    14.003074004780
           H         -0.932978898455     1.899474859057    -1.205225349405     1.007825032070
           O         -2.148394898455    -1.483304140943    -0.144370349405    15.994914619560
           O         -2.753830898455     0.528729859057    -0.144370349405    15.994914619560

  Running in c1 symmetry.

  Rotational constants: A =      0.09355  B =      0.03312  C =      0.02500 [cm^-1]
  Rotational constants: A =   2804.53206  B =    992.98917  C =    749.59946 [MHz]
  Nuclear repulsion =  504.291736896325403

  Charge       = 0
  Multiplicity = 1
  Electrons    = 72
  Nalpha       = 36
  Nbeta        = 36

  ==> Algorithm <==

  SCF Algorithm Type is DF.
  DIIS enabled.
  MOM disabled.
  Fractional occupation disabled.
  Guess Type is SAD.
  Energy threshold   = 1.00e-08
  Density threshold  = 1.00e-08
  Integral threshold = 0.00e+00

  ==> Primary Basis <==

  Basis Set: CC-PVTZ
    Number of shells: 130
    Number of basis function: 370
    Number of Cartesian functions: 425
    Spherical Harmonics?: true
    Max angular momentum: 3

  ==> Pre-Iterations <==

   -------------------------------------------------------
    Irrep   Nso     Nmo     Nalpha   Nbeta   Ndocc  Nsocc
   -------------------------------------------------------
     A        370     370       0       0       0       0
   -------------------------------------------------------
    Total     370     370      36      36      36       0
   -------------------------------------------------------

  ==> Integral Setup <==

  ==> DFJK: Density-Fitted J/K Matrices <==

    J tasked:                  Yes
    K tasked:                  Yes
    wK tasked:                  No
    OpenMP threads:              4
    Integrals threads:           4
    Memory (MB):              1430
    Algorithm:                Core
    Integral Cache:           NONE
    Schwarz Cutoff:          1E-12
    Fitting Condition:       1E-12

   => Auxiliary Basis Set <=

  Basis Set: 
    Number of shells: 300
    Number of basis function: 940
    Number of Cartesian functions: 1135
    Spherical Harmonics?: true
    Max angular momentum: 4

  Minimum eigenvalue in the overlap matrix is 3.7256631821E-05.
  Using Symmetric Orthogonalization.
  SCF Guess: Superposition of Atomic Densities via on-the-fly atomic UHF.

  ==> Iterations <==

                           Total Energy        Delta E     RMS |[F,P]|

   @DF-RHF iter   0:  -515.00870107881929   -5.15009e+02   1.69193e-02 
   @DF-RHF iter   1:  -508.84901464233457    6.15969e+00   2.16312e-03 
   @DF-RHF iter   2:  -509.08110636030614   -2.32092e-01   1.62974e-03 DIIS
   @DF-RHF iter   3:  -509.20158771178416   -1.20481e-01   2.92916e-04 DIIS
   @DF-RHF iter   4:  -509.21508841391636   -1.35007e-02   1.18513e-04 DIIS
   @DF-RHF iter   5:  -509.21700049712553   -1.91208e-03   4.87652e-05 DIIS
   @DF-RHF iter   6:  -509.21737283549061   -3.72338e-04   1.53187e-05 DIIS
   @DF-RHF iter   7:  -509.21741808725739   -4.52518e-05   5.83205e-06 DIIS
   @DF-RHF iter   8:  -509.21742466730797   -6.58005e-06   2.82564e-06 DIIS
   @DF-RHF iter   9:  -509.21742695872643   -2.29142e-06   1.40501e-06 DIIS
   @DF-RHF iter  10:  -509.21742758808222   -6.29356e-07   7.63268e-07 DIIS
   @DF-RHF iter  11:  -509.21742775120691   -1.63125e-07   2.68978e-07 DIIS
   @DF-RHF iter  12:  -509.21742777142407   -2.02172e-08   1.10294e-07 DIIS
   @DF-RHF iter  13:  -509.21742777382320   -2.39913e-09   3.87853e-08 DIIS
   @DF-RHF iter  14:  -509.21742777413391   -3.10706e-10   1.50626e-08 DIIS
   @DF-RHF iter  15:  -509.21742777418621   -5.22959e-11   6.93069e-09 DIIS

  ==> Post-Iterations <==

    Orbital Energies (a.u.)
    -----------------------

    Doubly Occupied:                                                      

       1A    -20.609200     2A    -20.596219     3A    -20.595466  
       4A    -15.850358     5A    -11.328748     6A    -11.311163  
       7A    -11.264025     8A    -11.263902     9A    -11.259152  
      10A    -11.255519    11A     -1.644769    12A     -1.441716  
      13A     -1.426723    14A     -1.203186    15A     -1.095993  
      16A     -1.048960    17A     -0.967075    18A     -0.883151  
      19A     -0.832413    20A     -0.794367    21A     -0.760878  
      22A     -0.741045    23A     -0.726743    24A     -0.711639  
      25A     -0.676086    26A     -0.636270    27A     -0.622414  
      28A     -0.598278    29A     -0.562593    30A     -0.548208  
      31A     -0.525762    32A     -0.494242    33A     -0.492881  
      34A     -0.458940    35A     -0.379284    36A     -0.346737  

    Virtual:                                                              

      37A      0.060533    38A      0.114106    39A      0.127904  
      40A      0.143096    41A      0.161486    42A      0.179436  
      43A      0.196583    44A      0.208079    45A      0.286179  
      46A      0.313499    47A      0.318705    48A      0.355090  
      49A      0.361740    50A      0.397575    51A      0.406798  
      52A      0.409530    53A      0.441474    54A      0.447148  
      55A      0.454448    56A      0.462351    57A      0.474096  
      58A      0.498437    59A      0.520975    60A      0.527535  
      61A      0.537048    62A      0.541050    63A      0.549365  
      64A      0.552875    65A      0.559568    66A      0.587974  
      67A      0.591846    68A      0.594890    69A      0.609115  
      70A      0.617920    71A      0.644715    72A      0.655104  
      73A      0.666983    74A      0.681022    75A      0.694255  
      76A      0.702312    77A      0.720068    78A      0.734237  
      79A      0.739501    80A      0.754502    81A      0.789407  
      82A      0.803302    83A      0.815833    84A      0.824520  
      85A      0.842018    86A      0.850542    87A      0.865238  
      88A      0.869547    89A      0.874816    90A      0.909666  
      91A      0.915416    92A      0.921353    93A      0.932389  
      94A      0.943361    95A      0.967916    96A      0.973904  
      97A      0.975034    98A      0.997604    99A      1.002671  
     100A      1.010988   101A      1.043737   102A      1.061914  
     103A      1.074256   104A      1.082569   105A      1.105812  
     106A      1.142622   107A      1.167370   108A      1.181731  
     109A      1.200323   110A      1.209199   111A      1.251226  
     112A      1.262337   113A      1.265446   114A      1.308565  
     115A      1.317037   116A      1.337021   117A      1.375163  
     118A      1.383966   119A      1.426440   120A      1.450405  
     121A      1.459511   122A      1.480028   123A      1.484295  
     124A      1.511804   125A      1.529716   126A      1.550797  
     127A      1.556903   128A      1.563551   129A      1.590615  
     130A      1.603958   131A      1.614378   132A      1.645768  
     133A      1.662677   134A      1.670628   135A      1.687170  
     136A      1.713945   137A      1.723705   138A      1.741607  
     139A      1.759484   140A      1.791729   141A      1.845474  
     142A      1.865054   143A      1.910343   144A      1.945507  
     145A      1.963644   146A      2.001363   147A      2.033176  
     148A      2.075827   149A      2.107899   150A      2.142191  
     151A      2.182882   152A      2.192710   153A      2.196138  
     154A      2.203941   155A      2.260875   156A      2.303353  
     157A      2.339154   158A      2.350894   159A      2.374803  
     160A      2.406899   161A      2.425400   162A      2.437930  
     163A      2.465718   164A      2.471706   165A      2.509543  
     166A      2.530693   167A      2.558259   168A      2.563428  
     169A      2.577751   170A      2.600795   171A      2.647540  
     172A      2.677149   173A      2.696331   174A      2.703873  
     175A      2.724830   176A      2.737660   177A      2.781393  
     178A      2.795443   179A      2.825766   180A      2.830882  
     181A      2.858957   182A      2.909634   183A      2.928855  
     184A      2.939452   185A      2.944867   186A      2.970676  
     187A      2.985355   188A      3.010764   189A      3.022738  
     190A      3.030677   191A      3.053458   192A      3.077517  
     193A      3.116450   194A      3.120454   195A      3.137274  
     196A      3.153734   197A      3.187498   198A      3.200120  
     199A      3.216013   200A      3.240402   201A      3.258418  
     202A      3.274541   203A      3.304981   204A      3.337472  
     205A      3.350146   206A      3.353239   207A      3.356221  
     208A      3.369594   209A      3.384145   210A      3.400938  
     211A      3.402697   212A      3.412235   213A      3.425918  
     214A      3.436335   215A      3.441510   216A      3.460944  
     217A      3.484314   218A      3.496706   219A      3.555356  
     220A      3.580399   221A      3.597384   222A      3.610154  
     223A      3.636407   224A      3.644691   225A      3.662045  
     226A      3.674779   227A      3.687175   228A      3.693039  
     229A      3.709925   230A      3.731390   231A      3.738600  
     232A      3.750072   233A      3.784276   234A      3.837215  
     235A      3.896277   236A      3.902873   237A      3.958060  
     238A      3.966987   239A      3.968008   240A      4.000104  
     241A      4.014159   242A      4.045906   243A      4.080103  
     244A      4.091728   245A      4.099623   246A      4.124379  
     247A      4.126000   248A      4.137600   249A      4.141007  
     250A      4.162412   251A      4.170760   252A      4.182795  
     253A      4.198676   254A      4.207718   255A      4.217408  
     256A      4.255569   257A      4.265473   258A      4.282680  
     259A      4.306467   260A      4.329569   261A      4.358182  
     262A      4.373355   263A      4.415195   264A      4.450065  
     265A      4.457053   266A      4.462747   267A      4.471641  
     268A      4.488185   269A      4.527513   270A      4.558276  
     271A      4.573134   272A      4.582636   273A      4.599755  
     274A      4.625558   275A      4.630067   276A      4.639014  
     277A      4.655917   278A      4.661967   279A      4.691906  
     280A      4.696857   281A      4.704939   282A      4.730272  
     283A      4.741863   284A      4.799673   285A      4.848899  
     286A      4.908064   287A      4.930800   288A      4.964871  
     289A      4.994310   290A      5.013714   291A      5.041580  
     292A      5.053265   293A      5.072832   294A      5.089685  
     295A      5.092507   296A      5.114004   297A      5.155581  
     298A      5.172254   299A      5.209798   300A      5.251161  
     301A      5.259065   302A      5.280321   303A      5.303196  
     304A      5.327343   305A      5.371869   306A      5.381158  
     307A      5.426871   308A      5.488677   309A      5.512742  
     310A      5.543318   311A      5.553779   312A      5.583267  
     313A      5.600853   314A      5.615941   315A      5.650504  
     316A      5.670927   317A      5.692636   318A      5.787829  
     319A      5.813791   320A      5.830426   321A      5.881923  
     322A      5.955178   323A      5.974438   324A      6.052931  
     325A      6.101685   326A      6.121670   327A      6.169940  
     328A      6.236370   329A      6.300057   330A      6.411709  
     331A      6.437382   332A      6.469454   333A      6.505751  
     334A      6.602599   335A      6.667663   336A      6.799543  
     337A      6.867902   338A      6.896710   339A      6.903467  
     340A      6.969592   341A      6.985491   342A      7.008366  
     343A      7.090303   344A      7.103329   345A      7.170575  
     346A      7.202406   347A      7.230621   348A      7.276344  
     349A      7.303223   350A      7.365057   351A      7.399400  
     352A      7.436413   353A      7.464096   354A      7.604175  
     355A      7.631524   356A      7.659987   357A      7.820515  
     358A      7.827341   359A      8.040140   360A      8.167780  
     361A      9.094264   362A     10.140943   363A     12.790995  
     364A     13.178172   365A     13.541721   366A     13.810044  
     367A     14.046696   368A     14.519283   369A     15.314295  
     370A     16.506315  

    Final Occupation by Irrep:
              A 
    DOCC [    36 ]

  Energy converged.

  @DF-RHF Final Energy:  -509.21742777418621

   => Energetics <=

    Nuclear Repulsion Energy =            504.2917368963254034
    One-Electron Energy =               -1695.1101200324096681
    Two-Electron Energy =                 681.6009553618984000
    DFT Exchange-Correlation Energy =       0.0000000000000000
    Empirical Dispersion Energy =           0.0000000000000000
    PCM Polarization Energy =               0.0000000000000000
    EFP Energy =                            0.0000000000000000
    Total Energy =                       -509.2174277741859214


  Saving occupied orbitals to File 180.

*** tstop() called on cx1-27-4-1 at Sat Sep 10 16:37:11 2016
Module time:
	user time   =      46.90 seconds =       0.78 minutes
	system time =       1.13 seconds =       0.02 minutes
	total time  =         13 seconds =       0.22 minutes
Total time:
	user time   =      46.90 seconds =       0.78 minutes
	system time =       1.13 seconds =       0.02 minutes
	total time  =         13 seconds =       0.22 minutes


Properties will be evaluated at   0.000000,   0.000000,   0.000000 Bohr

Properties computed using the SCF density matrix

  Nuclear Dipole Moment: (a.u.)
     X:     5.7029      Y:     2.0063      Z:    -0.1598

  Electronic Dipole Moment: (a.u.)
     X:    -4.2654      Y:    -1.7964      Z:     0.2915

  Dipole Moment: (a.u.)
     X:     1.4375      Y:     0.2098      Z:     0.1317     Total:     1.4587

  Dipole Moment: (Debye)
     X:     3.6537      Y:     0.5334      Z:     0.3348     Total:     3.7076


*** tstart() called on cx1-27-4-1
*** at Sat Sep 10 16:37:11 2016


         ------------------------------------------------------------
                                   SCF GRAD                          
                          Rob Parrish, Justin Turney,                
                       Andy Simmonett, and Alex Sokolov              
         ------------------------------------------------------------

  ==> Geometry <==

    Molecular point group: c1
    Full point group: C1

    Geometry (in Angstrom), charge = 0, multiplicity = 1:

       Center              X                  Y                   Z               Mass       
    ------------   -----------------  -----------------  -----------------  -----------------
           H          2.353124101545    -1.853571140943     1.416386650595     1.007825032070
           O          2.697372101545    -1.064520140943     1.037422650595    15.994914619560
           C          1.727119101545    -0.327329140943     0.468439650595    12.000000000000
           C          2.099026101545     0.867743859057    -0.130396349405    12.000000000000
           C          0.405294101545    -0.718638140943     0.464872650595    12.000000000000
           H          3.132238101545     1.153102859057    -0.116268349405     1.007825032070
           C          1.149161101545     1.663639859057    -0.728442349405    12.000000000000
           H          0.090386101545    -1.635037140943     0.919122650595     1.007825032070
           C         -0.520886898455     0.104636859057    -0.144370349405    12.000000000000
           H          1.445841101545     2.585509859057    -1.188750349405     1.007825032070
           C         -0.184827898455     1.291956859057    -0.744884349405    12.000000000000
           N         -1.925893898455    -0.318157140943    -0.144370349405    14.003074004780
           H         -0.932978898455     1.899474859057    -1.205225349405     1.007825032070
           O         -2.148394898455    -1.483304140943    -0.144370349405    15.994914619560
           O         -2.753830898455     0.528729859057    -0.144370349405    15.994914619560

  Nuclear repulsion =  504.291736896325403

  ==> Basis Set <==

  Basis Set: CC-PVTZ
    Number of shells: 130
    Number of basis function: 370
    Number of Cartesian functions: 425
    Spherical Harmonics?: true
    Max angular momentum: 3

  ==> DFJKGrad: Density-Fitted SCF Gradients <==

    Gradient:                    1
    J tasked:                  Yes
    K tasked:                  Yes
    wK tasked:                  No
    OpenMP threads:              4
    Integrals threads:           4
    Memory (MB):              1430
    Schwarz Cutoff:          0E+00
    Fitting Condition:       1E-12

   => Auxiliary Basis Set <=

  Basis Set: 
    Number of shells: 300
    Number of basis function: 940
    Number of Cartesian functions: 1135
    Spherical Harmonics?: true
    Max angular momentum: 4


  -Total Gradient:
     Atom            X                  Y                   Z
    ------   -----------------  -----------------  -----------------
       1       -0.000116863153     0.000074908255     0.000099440924
       2        0.000514055237    -0.000361793407    -0.000267317398
       3       -0.000740271580    -0.000211698969    -0.000347943446
       4        0.000006975209    -0.000146413833     0.000004722752
       5        0.001938735806     0.000229528238     0.001740721106
       6        0.000076416758     0.000001790459    -0.000065152396
       7       -0.000258444810     0.000546832517     0.000535959523
       8        0.000135239097     0.001040170135     0.000307843176
       9       -0.000745863329    -0.000327903333    -0.000263167873
      10       -0.000053845547     0.000154152945     0.000307262830
      11        0.001361552650     0.000478446887    -0.001929795789
      12        0.000619354706     0.000402633825     0.000081739051
      13        0.000685145108    -0.000708822137    -0.000195017472
      14       -0.002172847492     0.000666516367    -0.001806464592
      15       -0.001249338663    -0.001838347955     0.001797169603


*** tstop() called on cx1-27-4-1 at Sat Sep 10 16:37:22 2016
Module time:
	user time   =      39.96 seconds =       0.67 minutes
	system time =       0.77 seconds =       0.01 minutes
	total time  =         11 seconds =       0.18 minutes
Total time:
	user time   =      86.96 seconds =       1.45 minutes
	system time =       1.91 seconds =       0.03 minutes
	total time  =         24 seconds =       0.40 minutes

			-----------------------------------------
			 OPTKING 2.0: for geometry optimizations 
			  - R.A. King,  Bethel University        
			-----------------------------------------

	Internal coordinates to be generated automatically.
	Detected frag 1 with atoms:  1 2 3 4 5 6 7 8 9 10 11 12 13 14 15
	---Fragment 1 Bond Connectivity---
	 1 : 2
	 2 : 1 3
	 3 : 2 4 5
	 4 : 3 6 7
	 5 : 3 8 9
	 6 : 4
	 7 : 4 10 11
	 8 : 5
	 9 : 5 11 12
	 10 : 7
	 11 : 7 9 13
	 12 : 9 14 15
	 13 : 11
	 14 : 12
	 15 : 12

	Assuming in current code that numbering for constraints corresponds to unified fragment.
	Frozen dihedral atom list: 
	    11     9    12    14
	---Fragment 1 Geometry and Gradient---
	 H           4.4467601086       -3.5027418242        2.6765828679
	 O           5.0972945504       -2.0116515293        1.9604446937
	 C           3.2637821008       -0.6185624317        0.8852226494
	 C           3.9665844777        1.6397982471       -0.2464133891
	 C           0.7658948552       -1.3580292750        0.8784819963
	 H           5.9190721949        2.1790486067       -0.2197153383
	 C           2.1715997645        3.1438237174       -1.3765565440
	 H           0.1708049781       -3.0897724135        1.7368900922
	 C          -0.9843335843        0.1977350070       -0.2728204221
	 H           2.7322437136        4.8859055475       -2.2464126007
	 C          -0.3492741098        2.4414446391       -1.4076274210
	 N          -3.6394120291       -0.6012298636       -0.2728204221
	 H          -1.7630746058        3.5894872799       -2.2775458388
	 O          -4.0598779834       -2.8030385982       -0.2728204221
	 O          -5.2039862144        0.9991546319       -0.2728204221
	            -0.0001168632        0.0000749083        0.0000994409
	             0.0005140552       -0.0003617934       -0.0002673174
	            -0.0007402716       -0.0002116990       -0.0003479434
	             0.0000069752       -0.0001464138        0.0000047228
	             0.0019387358        0.0002295282        0.0017407211
	             0.0000764168        0.0000017905       -0.0000651524
	            -0.0002584448        0.0005468325        0.0005359595
	             0.0001352391        0.0010401701        0.0003078432
	            -0.0007458633       -0.0003279033       -0.0002631679
	            -0.0000538455        0.0001541529        0.0003072628
	             0.0013615527        0.0004784469       -0.0019297958
	             0.0006193547        0.0004026338        0.0000817391
	             0.0006851451       -0.0007088221       -0.0001950175
	            -0.0021728475        0.0006665164       -0.0018064646
	            -0.0012493387       -0.0018383480        0.0017971696

	Previous optimization step data not found.  Starting new optimization.

	---Fragment 1 Intrafragment Coordinates---
	 - Coordinate -           - BOHR/RAD -       - ANG/DEG -
	 R(1,2)           =         1.777470	       0.940597
	 R(2,3)           =         2.541371	       1.344836
	 R(3,4)           =         2.621970	       1.387487
	 R(3,5)           =         2.605052	       1.378534
	 R(4,6)           =         2.025762	       1.071987
	 R(4,7)           =         2.600247	       1.375992
	 R(5,8)           =         2.022358	       1.070186
	 R(5,9)           =         2.609444	       1.380858
	 R(7,10)          =         2.026282	       1.072262
	 R(7,11)          =         2.617080	       1.384899
	 R(9,11)          =         2.593322	       1.372327
	 R(9,12)          =         2.772686	       1.467242
	 R(11,13)         =         2.018314	       1.068046
	 R(12,14)         =         2.241596	       1.186202
	 R(12,15)         =         2.238107	       1.184355
	 B(1,2,3)         =         1.945781	     111.485044
	 B(2,3,4)         =         2.050330	     117.475245
	 B(2,3,5)         =         2.138005	     122.498676
	 B(3,4,6)         =         2.073665	     118.812239
	 B(3,4,7)         =         2.095266	     120.049877
	 B(3,5,8)         =         2.122478	     121.609040
	 B(3,5,9)         =         2.065806	     118.361954
	 B(4,3,5)         =         2.094850	     120.026079
	 B(4,7,10)        =         2.086181	     119.529382
	 B(4,7,11)        =         2.111640	     120.988078
	 B(5,9,11)        =         2.146763	     123.000475
	 B(5,9,12)        =         2.060630	     118.065374
	 B(6,4,7)         =         2.114255	     121.137884
	 B(7,11,9)        =         2.052045	     117.573537
	 B(7,11,13)       =         2.126090	     121.815997
	 B(8,5,9)         =         2.094901	     120.029006
	 B(9,11,13)       =         2.105050	     120.610467
	 B(9,12,14)       =         2.051789	     117.558825
	 B(9,12,15)       =         2.052580	     117.604182
	 B(10,7,11)       =         2.085364	     119.482540
	 B(11,9,12)       =         2.075793	     118.934151
	 B(14,12,15)      =         2.178817	     124.836992
	 D(1,2,3,4)       =         3.141593	     180.000000
	 D(1,2,3,5)       =         0.000000	       0.000000
	 D(2,3,4,6)       =         0.000000	       0.000000
	 D(2,3,4,7)       =         3.141593	     180.000000
	 D(2,3,5,8)       =        -0.000000	      -0.000000
	 D(2,3,5,9)       =         3.141593	     180.000000
	 D(3,4,7,10)      =         3.141593	     180.000000
	 D(3,4,7,11)      =         0.000000	       0.000000
	 D(3,5,9,11)      =        -0.000000	      -0.000000
	 D(3,5,9,12)      =         3.141593	     180.000000
	 D(4,3,5,8)       =         3.141593	     180.000000
	 D(4,3,5,9)       =         0.000000	       0.000000
	 D(4,7,11,9)      =        -0.000000	      -0.000000
	 D(4,7,11,13)     =         3.141593	     180.000000
	 D(5,3,4,6)       =         3.141593	     180.000000
	 D(5,3,4,7)       =        -0.000000	      -0.000000
	 D(5,9,11,7)      =         0.000000	       0.000000
	 D(5,9,11,13)     =         3.141593	     180.000000
	 D(5,9,12,14)     =        -0.523599	     -30.000023
	 D(5,9,12,15)     =         2.617993	     149.999977
	 D(6,4,7,10)      =        -0.000000	      -0.000000
	 D(6,4,7,11)      =         3.141593	     180.000000
	 D(7,11,9,12)     =         3.141593	     180.000000
	 D(8,5,9,11)      =         3.141593	     180.000000
	 D(8,5,9,12)      =         0.000000	       0.000000
	 D(9,11,7,10)     =         3.141593	     180.000000
	 D(10,7,11,13)    =         0.000000	       0.000000
	*D(11,9,12,14)    =         2.617994	     150.000003
	 D(11,9,12,15)    =        -0.523599	     -29.999997
	 D(12,9,11,13)    =        -0.000000	      -0.000000

	Current energy   :      -509.2174277742

	Generating empirical Hessian (Schlegel '84) for each fragment.
	Taking RFO optimization step.
	Going to follow RFO solution 1.
	Using RFO vector 1.

	Determining step-restricting scale parameter for RS-RFO.
	Maximum step size allowed    0.50000

	 Iter      |step|        alpha        rfo_root  
	------------------------------------------------
	    0     0.58140       1.00000           1
	    1     0.51485       1.48596           1
	    2     0.50066       1.61772           1
	    3     0.50000       1.62409           1
	------------------------------------------------
	Norm of target step-size    0.50000
	Projected energy change by RFO approximation:        -0.0008414526

	Back-transformation to cartesian coordinates...
	Successfully converged to displaced geometry.

	Back-transformation to cartesian coordinates to adjust frozen coordinates...
	Successfully converged to displaced geometry.

	--- Internal Coordinate Step in ANG or DEG, aJ/ANG or AJ/DEG ---
	 ---------------------------------------------------------------------------
	   Coordinate                Previous        Force       Change         New 
	   ----------                --------       ------       ------       ------
	    1 R(1,2)          =      0.940597    -0.000165    -0.000018     0.940579
	    2 R(2,3)          =      1.344836    -0.003071    -0.000350     1.344486
	    3 R(3,4)          =      1.387487     0.001260     0.000246     1.387732
	    4 R(3,5)          =      1.378534     0.003509     0.000463     1.378998
	    5 R(4,6)          =      1.071987    -0.000604    -0.000104     1.071883
	    6 R(4,7)          =      1.375992     0.000693     0.000154     1.376146
	    7 R(5,8)          =      1.070186     0.006590     0.001130     1.071316
	    8 R(5,9)          =      1.380858    -0.013002    -0.001766     1.379093
	    9 R(7,10)         =      1.072262     0.000118     0.000020     1.072283
	   10 R(7,11)         =      1.384899     0.000919     0.000114     1.385013
	   11 R(9,11)         =      1.372327    -0.012117    -0.001607     1.370720
	   12 R(9,12)         =      1.467242    -0.023938    -0.004234     1.463009
	   13 R(11,13)        =      1.068046     0.006583     0.001121     1.069167
	   14 R(12,14)        =      1.186202     0.002036     0.000116     1.186318
	   15 R(12,15)        =      1.184355     0.003635     0.000206     1.184561
	   16 B(1,2,3)        =    111.485044     0.000013     0.055660   111.540705
	   17 B(2,3,4)        =    117.475245     0.000013     0.027330   117.502574
	   18 B(2,3,5)        =    122.498676     0.000003    -0.002438   122.496238
	   19 B(3,4,6)        =    118.812239    -0.000001    -0.023524   118.788715
	   20 B(3,4,7)        =    120.049877    -0.000001     0.034813   120.084689
	   21 B(3,5,8)        =    121.609040     0.000025     0.091893   121.700933
	   22 B(3,5,9)        =    118.361954    -0.000049    -0.181390   118.180564
	   23 B(4,3,5)        =    120.026079    -0.000016    -0.026448   119.999631
	   24 B(4,7,10)       =    119.529382     0.000004     0.004525   119.533907
	   25 B(4,7,11)       =    120.988078    -0.000008    -0.010592   120.977486
	   26 B(5,9,11)       =    123.000475     0.000123     0.341083   123.341558
	   27 B(5,9,12)       =    118.065374    -0.000070    -0.221913   117.843460
	   28 B(6,4,7)        =    121.137884     0.000002    -0.011971   121.125913
	   29 B(7,11,9)       =    117.573537    -0.000048    -0.179257   117.394280
	   30 B(7,11,13)      =    121.815997     0.000028     0.109947   121.925944
	   31 B(8,5,9)        =    120.029006     0.000024     0.089497   120.118503
	   32 B(9,11,13)      =    120.610467     0.000020     0.069273   120.679739
	   33 B(9,12,14)      =    117.558825    -0.000133     0.625598   118.184423
	   34 B(9,12,15)      =    117.604182    -0.000119    -2.140743   115.463439
	   35 B(10,7,11)      =    119.482540     0.000004     0.004355   119.486895
	   36 B(11,9,12)      =    118.934151    -0.000052    -0.147375   118.786776
	   37 B(14,12,15)     =    124.836992     0.000252    -1.508078   123.328915
	   38 D(1,2,3,4)      =    180.000000     0.000003     0.674409   180.674409
	   39 D(1,2,3,5)      =      0.000000     0.000001     0.220043     0.220043
	   40 D(2,3,4,6)      =      0.000000     0.000001     0.086034     0.086034
	   41 D(2,3,4,7)      =    180.000000    -0.000001    -0.211021   179.788979
	   42 D(2,3,5,8)      =      0.000000    -0.000006    -0.905577    -0.905577
	   43 D(2,3,5,9)      =    180.000000    -0.000006    -0.911300   179.088700
	   44 D(3,4,7,10)     =    180.000000     0.000003     0.484875   180.484875
	   45 D(3,4,7,11)     =      0.000000     0.000007     0.963220     0.963220
	   46 D(3,5,9,11)     =      0.000000     0.000008     1.425491     1.425491
	   47 D(3,5,9,12)     =    180.000000    -0.000002    -0.532690   179.467310
	   48 D(4,3,5,8)      =    180.000000    -0.000009    -1.370941   178.629059
	   49 D(4,3,5,9)      =      0.000000    -0.000009    -1.376664    -1.376664
	   50 D(4,7,11,9)     =      0.000000    -0.000007    -0.938665    -0.938665
	   51 D(4,7,11,13)    =    180.000000    -0.000007    -0.869623   179.130377
	   52 D(5,3,4,6)      =    180.000000     0.000003     0.528542   180.528542
	   53 D(5,3,4,7)      =      0.000000     0.000002     0.231487     0.231487
	   54 D(5,9,11,7)     =      0.000000     0.000000    -0.271423    -0.271423
	   55 D(5,9,11,13)    =    180.000000    -0.000001    -0.339558   179.660442
	   56 D(5,9,12,14)    =    -30.000023     0.000010     1.866547   -28.133475
	   57 D(5,9,12,15)    =    149.999977     0.000036    20.854366   170.854343
	   58 D(6,4,7,10)     =      0.000000     0.000001     0.180752     0.180752
	   59 D(6,4,7,11)     =    180.000000     0.000005     0.659097   180.659097
	   60 D(7,11,9,12)    =    180.000000     0.000010     1.704213   181.704213
	   61 D(8,5,9,11)     =    180.000000     0.000008     1.419862   181.419862
	   62 D(8,5,9,12)     =      0.000000    -0.000002    -0.538319    -0.538319
	   63 D(9,11,7,10)    =    180.000000    -0.000004    -0.460542   179.539458
	   64 D(10,7,11,13)   =      0.000000    -0.000003    -0.391500    -0.391500
	   65 *D(11,9,12,14)  =    150.000003     0.000000     0.000000   150.000003
	   66 D(11,9,12,15)   =    -29.999997     0.000026    18.987819   -11.012178
	   67 D(12,9,11,13)   =      0.000000     0.000009     1.636077     1.636077
	 ---------------------------------------------------------------------------
	Successfully symmetrized geometry.

  ==> Convergence Check <==

  Measures of convergence in internal coordinates in au.
  Criteria marked as inactive (o), active & met (*), and active & unmet ( ).
  --------------------------------------------------------------------------------------------- ~
   Step     Total Energy     Delta E     MAX Force     RMS Force      MAX Disp      RMS Disp    ~
  --------------------------------------------------------------------------------------------- ~
    Convergence Criteria    1.00e-06 *    3.00e-04 *             o    1.20e-03 *             o  ~
  --------------------------------------------------------------------------------------------- ~
      1    -509.21742777   -5.09e+02      3.31e-03      8.30e-04 o    3.64e-01      6.13e-02 o  ~
  ---------------------------------------------------------------------------------------------

	Writing optimization data to binary file.
	Structure for next step:
	Cartesian Geometry (in Angstrom)
	    H     2.3634725474  -1.8423232004   1.4355948805
	    O     2.7003697077  -1.0465299852   1.0642429920
	    C     1.7255925369  -0.3158254582   0.4954526172
	    C     2.0894092143   0.8811423159  -0.1051362634
	    C     0.4070388303  -0.7194942518   0.4853605315
	    H     3.1210210083   1.1719546672  -0.0933726435
	    C     1.1350657985   1.6689385759  -0.7071186811
	    H     0.0992811767  -1.6482989067   0.9216224502
	    C    -0.5231616483   0.1088617446  -0.1066281021
	    H     1.4271544255   2.5883012014  -1.1753567772
	    C    -0.1990245060   1.2968335172  -0.7087349539
	    N    -1.9180277338  -0.3321036137  -0.1237194441
	    H    -0.9547690367   1.9038518063  -1.1598407703
	    O    -2.1371635875  -1.4980034881  -0.1209976182
	    O    -2.7035102101   0.4769329614  -0.4865724589
			--------------------------
			 OPTKING Finished Execution 
			--------------------------

    Structure for next step:
    Molecular point group: c1
    Full point group: C1

    Geometry (in Angstrom), charge = 0, multiplicity = 1:

    H            2.358938699574    -1.838830390696     1.451862070271
    O            2.695835859905    -1.043037175527     1.080510181785
    C            1.721058689141    -0.312332648535     0.511719807023
    C            2.084875366500     0.884635125554    -0.088869073631
    C            0.402504982514    -0.716001442112     0.501627721306
    H            3.116487160460     1.175447476878    -0.077105453762
    C            1.130531950716     1.672431385604    -0.690851491282
    H            0.094747328878    -1.644806097005     0.937889640017
    C           -0.527695496070     0.112354554259    -0.090360912293
    H            1.422620577649     2.591794011120    -1.159089587442
    C           -0.203558353808     1.300326326832    -0.692467764143
    N           -1.922561581644    -0.328610804057    -0.107452254291
    H           -0.959302884469     1.907344616015    -1.143573580519
    O           -2.141697435347    -1.494510678466    -0.104730428393
    O           -2.708044057854     0.480425771057    -0.470305269107

gradient() will perform analytic gradient computation.

*** tstart() called on cx1-27-4-1
*** at Sat Sep 10 16:37:23 2016


         ---------------------------------------------------------
                                   SCF
            by Justin Turney, Rob Parrish, and Andy Simmonett
                              RHF Reference
                        4 Threads,   2000 MiB Core
         ---------------------------------------------------------

  ==> Geometry <==

    Molecular point group: c1
    Full point group: C1

    Geometry (in Angstrom), charge = 0, multiplicity = 1:

       Center              X                  Y                   Z               Mass       
    ------------   -----------------  -----------------  -----------------  -----------------
           H          2.358938699574    -1.838830390696     1.451862070271     1.007825032070
           O          2.695835859905    -1.043037175527     1.080510181785    15.994914619560
           C          1.721058689141    -0.312332648535     0.511719807023    12.000000000000
           C          2.084875366500     0.884635125554    -0.088869073631    12.000000000000
           C          0.402504982514    -0.716001442112     0.501627721306    12.000000000000
           H          3.116487160460     1.175447476878    -0.077105453762     1.007825032070
           C          1.130531950716     1.672431385604    -0.690851491282    12.000000000000
           H          0.094747328878    -1.644806097005     0.937889640017     1.007825032070
           C         -0.527695496070     0.112354554259    -0.090360912293    12.000000000000
           H          1.422620577649     2.591794011120    -1.159089587442     1.007825032070
           C         -0.203558353808     1.300326326832    -0.692467764143    12.000000000000
           N         -1.922561581644    -0.328610804057    -0.107452254291    14.003074004780
           H         -0.959302884469     1.907344616015    -1.143573580519     1.007825032070
           O         -2.141697435347    -1.494510678466    -0.104730428393    15.994914619560
           O         -2.708044057854     0.480425771057    -0.470305269107    15.994914619560

  Running in c1 symmetry.

  Rotational constants: A =      0.09452  B =      0.03344  C =      0.02496 [cm^-1]
  Rotational constants: A =   2833.72956  B =   1002.43361  C =    748.25525 [MHz]
  Nuclear repulsion =  505.340219943427314

  Charge       = 0
  Multiplicity = 1
  Electrons    = 72
  Nalpha       = 36
  Nbeta        = 36

  ==> Algorithm <==

  SCF Algorithm Type is DF.
  DIIS enabled.
  MOM disabled.
  Fractional occupation disabled.
  Guess Type is READ.
  Energy threshold   = 1.00e-08
  Density threshold  = 1.00e-08
  Integral threshold = 0.00e+00

  ==> Primary Basis <==

  Basis Set: CC-PVTZ
    Number of shells: 130
    Number of basis function: 370
    Number of Cartesian functions: 425
    Spherical Harmonics?: true
    Max angular momentum: 3

  ==> Pre-Iterations <==

   -------------------------------------------------------
    Irrep   Nso     Nmo     Nalpha   Nbeta   Ndocc  Nsocc
   -------------------------------------------------------
     A        370     370       0       0       0       0
   -------------------------------------------------------
    Total     370     370      36      36      36       0
   -------------------------------------------------------

  ==> Integral Setup <==

  ==> DFJK: Density-Fitted J/K Matrices <==

    J tasked:                  Yes
    K tasked:                  Yes
    wK tasked:                  No
    OpenMP threads:              4
    Integrals threads:           4
    Memory (MB):              1430
    Algorithm:                Core
    Integral Cache:           NONE
    Schwarz Cutoff:          1E-12
    Fitting Condition:       1E-12

   => Auxiliary Basis Set <=

  Basis Set: 
    Number of shells: 300
    Number of basis function: 940
    Number of Cartesian functions: 1135
    Spherical Harmonics?: true
    Max angular momentum: 4

  Minimum eigenvalue in the overlap matrix is 3.7779962354E-05.
  Using Symmetric Orthogonalization.
  SCF Guess: Reading in previously saved MOs, projecting if necessary.

  Using orbitals from previous SCF, no projection.
  Recomputing DOCC and SOCC from number of alpha and beta electrons from previous calculation.
              A 
    DOCC [    36 ]

  ==> Iterations <==

                           Total Energy        Delta E     RMS |[F,P]|

   @DF-RHF iter   0:  -509.04823921768116   -5.09048e+02   1.87626e-03 
   @DF-RHF iter   1:  -509.19045664483235   -1.42217e-01   4.77990e-04 
   @DF-RHF iter   2:  -509.20260883527123   -1.21522e-02   3.43895e-04 DIIS
   @DF-RHF iter   3:  -509.20860206968962   -5.99323e-03   7.93817e-05 DIIS
   @DF-RHF iter   4:  -509.20945107195882   -8.49002e-04   3.67364e-05 DIIS
   @DF-RHF iter   5:  -509.20969650590916   -2.45434e-04   1.52799e-05 DIIS
   @DF-RHF iter   6:  -509.20978157074103   -8.50648e-05   9.28525e-06 DIIS
   @DF-RHF iter   7:  -509.20981068122649   -2.91105e-05   3.87866e-06 DIIS
   @DF-RHF iter   8:  -509.20981500624600   -4.32502e-06   9.41909e-07 DIIS
   @DF-RHF iter   9:  -509.20981514698963   -1.40744e-07   3.71469e-07 DIIS
   @DF-RHF iter  10:  -509.20981517295161   -2.59620e-08   1.43804e-07 DIIS
   @DF-RHF iter  11:  -509.20981517895018   -5.99857e-09   7.25418e-08 DIIS
   @DF-RHF iter  12:  -509.20981518044721   -1.49703e-09   3.30357e-08 DIIS
   @DF-RHF iter  13:  -509.20981518084591   -3.98700e-10   1.36820e-08 DIIS
   @DF-RHF iter  14:  -509.20981518091446   -6.85532e-11   6.70176e-09 DIIS

  ==> Post-Iterations <==

    Orbital Energies (a.u.)
    -----------------------

    Doubly Occupied:                                                      

       1A    -20.608580     2A    -20.595495     3A    -20.592865  
       4A    -15.848467     5A    -11.328001     6A    -11.309880  
       7A    -11.263148     8A    -11.262883     9A    -11.257803  
      10A    -11.255468    11A     -1.646010    12A     -1.441288  
      13A     -1.423891    14A     -1.203081    15A     -1.095988  
      16A     -1.048037    17A     -0.966940    18A     -0.882612  
      19A     -0.831576    20A     -0.794483    21A     -0.758114  
      22A     -0.742732    23A     -0.728108    24A     -0.709764  
      25A     -0.675725    26A     -0.635982    27A     -0.621841  
      28A     -0.598464    29A     -0.560805    30A     -0.547005  
      31A     -0.522524    32A     -0.494164    33A     -0.492248  
      34A     -0.457304    35A     -0.379096    36A     -0.346065  

    Virtual:                                                              

      37A      0.054430    38A      0.113422    39A      0.128097  
      40A      0.143263    41A      0.161444    42A      0.181613  
      43A      0.197930    44A      0.210399    45A      0.285810  
      46A      0.315261    47A      0.322750    48A      0.356186  
      49A      0.368378    50A      0.399980    51A      0.405320  
      52A      0.410395    53A      0.443238    54A      0.447272  
      55A      0.456366    56A      0.462853    57A      0.473218  
      58A      0.500216    59A      0.518129    60A      0.527543  
      61A      0.537065    62A      0.543032    63A      0.549410  
      64A      0.552573    65A      0.572743    66A      0.584829  
      67A      0.588656    68A      0.593909    69A      0.606968  
      70A      0.618816    71A      0.650660    72A      0.652312  
      73A      0.668320    74A      0.679497    75A      0.693593  
      76A      0.700010    77A      0.722440    78A      0.729781  
      79A      0.735512    80A      0.753947    81A      0.785844  
      82A      0.799005    83A      0.820650    84A      0.823682  
      85A      0.840015    86A      0.861930    87A      0.869447  
      88A      0.878946    89A      0.884482    90A      0.900472  
      91A      0.922260    92A      0.928421    93A      0.938952  
      94A      0.943199    95A      0.959585    96A      0.975536  
      97A      0.979458    98A      0.999376    99A      1.005147  
     100A      1.012746   101A      1.050532   102A      1.064630  
     103A      1.072977   104A      1.086431   105A      1.127428  
     106A      1.136030   107A      1.162698   108A      1.182960  
     109A      1.198744   110A      1.209688   111A      1.228970  
     112A      1.250788   113A      1.283482   114A      1.309383  
     115A      1.325604   116A      1.342004   117A      1.370095  
     118A      1.384173   119A      1.403597   120A      1.447714  
     121A      1.466892   122A      1.478098   123A      1.493397  
     124A      1.508350   125A      1.531138   126A      1.545952  
     127A      1.559722   128A      1.580169   129A      1.591111  
     130A      1.606448   131A      1.620598   132A      1.646891  
     133A      1.670681   134A      1.680720   135A      1.688519  
     136A      1.718326   137A      1.725923   138A      1.732776  
     139A      1.783721   140A      1.791358   141A      1.818474  
     142A      1.889722   143A      1.904774   144A      1.937700  
     145A      1.959991   146A      1.993740   147A      2.053250  
     148A      2.065796   149A      2.124302   150A      2.145746  
     151A      2.171212   152A      2.196370   153A      2.200060  
     154A      2.204085   155A      2.265631   156A      2.307970  
     157A      2.336811   158A      2.358467   159A      2.374900  
     160A      2.405484   161A      2.419942   162A      2.437130  
     163A      2.467353   164A      2.469738   165A      2.514745  
     166A      2.529735   167A      2.553635   168A      2.557618  
     169A      2.580103   170A      2.605036   171A      2.656777  
     172A      2.675756   173A      2.687930   174A      2.700177  
     175A      2.719577   176A      2.722720   177A      2.767917  
     178A      2.809829   179A      2.830110   180A      2.833533  
     181A      2.867615   182A      2.908785   183A      2.933868  
     184A      2.936946   185A      2.947289   186A      2.980657  
     187A      2.983201   188A      3.014724   189A      3.025705  
     190A      3.037661   191A      3.054959   192A      3.086348  
     193A      3.113969   194A      3.121569   195A      3.135170  
     196A      3.151413   197A      3.177981   198A      3.195719  
     199A      3.216604   200A      3.243789   201A      3.253733  
     202A      3.279851   203A      3.309499   204A      3.332243  
     205A      3.351358   206A      3.355301   207A      3.356668  
     208A      3.372162   209A      3.379383   210A      3.397149  
     211A      3.403333   212A      3.416693   213A      3.422092  
     214A      3.434211   215A      3.446854   216A      3.462034  
     217A      3.486173   218A      3.491656   219A      3.555713  
     220A      3.576514   221A      3.599393   222A      3.609459  
     223A      3.635983   224A      3.642783   225A      3.663440  
     226A      3.676591   227A      3.686880   228A      3.700757  
     229A      3.718211   230A      3.736472   231A      3.740454  
     232A      3.764856   233A      3.792457   234A      3.853717  
     235A      3.891749   236A      3.906249   237A      3.956542  
     238A      3.967496   239A      3.971913   240A      4.005124  
     241A      4.013794   242A      4.041771   243A      4.090183  
     244A      4.091326   245A      4.110366   246A      4.123436  
     247A      4.132615   248A      4.140189   249A      4.150312  
     250A      4.161515   251A      4.169320   252A      4.175762  
     253A      4.199794   254A      4.205070   255A      4.210180  
     256A      4.257917   257A      4.273420   258A      4.285424  
     259A      4.320073   260A      4.325756   261A      4.362106  
     262A      4.384150   263A      4.424165   264A      4.454553  
     265A      4.459151   266A      4.471198   267A      4.477032  
     268A      4.491160   269A      4.527659   270A      4.567033  
     271A      4.571994   272A      4.583861   273A      4.590584  
     274A      4.600608   275A      4.629606   276A      4.641452  
     277A      4.661979   278A      4.676847   279A      4.689841  
     280A      4.697922   281A      4.722624   282A      4.735915  
     283A      4.748434   284A      4.796078   285A      4.847916  
     286A      4.916822   287A      4.920965   288A      4.984959  
     289A      5.002460   290A      5.027536   291A      5.043361  
     292A      5.063308   293A      5.082339   294A      5.085417  
     295A      5.104798   296A      5.135132   297A      5.161295  
     298A      5.176700   299A      5.215101   300A      5.257071  
     301A      5.278254   302A      5.282371   303A      5.308151  
     304A      5.330197   305A      5.382238   306A      5.399475  
     307A      5.419588   308A      5.485927   309A      5.510972  
     310A      5.537421   311A      5.557211   312A      5.578131  
     313A      5.603287   314A      5.626048   315A      5.664804  
     316A      5.675875   317A      5.694591   318A      5.763766  
     319A      5.819422   320A      5.877934   321A      5.892099  
     322A      5.954361   323A      5.975058   324A      6.050953  
     325A      6.090612   326A      6.101300   327A      6.221757  
     328A      6.235930   329A      6.289090   330A      6.412710  
     331A      6.425145   332A      6.472630   333A      6.499444  
     334A      6.605721   335A      6.657279   336A      6.801979  
     337A      6.841424   338A      6.906273   339A      6.932661  
     340A      6.964597   341A      6.986429   342A      7.035878  
     343A      7.082191   344A      7.103896   345A      7.148983  
     346A      7.191697   347A      7.253053   348A      7.276816  
     349A      7.304116   350A      7.370920   351A      7.405382  
     352A      7.430458   353A      7.473695   354A      7.601717  
     355A      7.633675   356A      7.698046   357A      7.815544  
     358A      7.833199   359A      8.041859   360A      8.142363  
     361A      9.128328   362A     10.169506   363A     12.821595  
     364A     13.177311   365A     13.497013   366A     13.717271  
     367A     14.101505   368A     14.536730   369A     15.357738  
     370A     16.493563  

    Final Occupation by Irrep:
              A 
    DOCC [    36 ]

  Energy converged.

  @DF-RHF Final Energy:  -509.20981518091446

   => Energetics <=

    Nuclear Repulsion Energy =            505.3402199434273143
    One-Electron Energy =               -1697.2471903945613576
    Two-Electron Energy =                 682.6971552702190138
    DFT Exchange-Correlation Energy =       0.0000000000000000
    Empirical Dispersion Energy =           0.0000000000000000
    PCM Polarization Energy =               0.0000000000000000
    EFP Energy =                            0.0000000000000000
    Total Energy =                       -509.2098151809149158


  Saving occupied orbitals to File 180.

*** tstop() called on cx1-27-4-1 at Sat Sep 10 16:37:34 2016
Module time:
	user time   =      39.70 seconds =       0.66 minutes
	system time =       0.85 seconds =       0.01 minutes
	total time  =         11 seconds =       0.18 minutes
Total time:
	user time   =     128.58 seconds =       2.14 minutes
	system time =       2.84 seconds =       0.05 minutes
	total time  =         36 seconds =       0.60 minutes


Properties will be evaluated at   0.000000,   0.000000,   0.000000 Bohr

Properties computed using the SCF density matrix

  Nuclear Dipole Moment: (a.u.)
     X:     5.6514      Y:     2.0450      Z:     0.0121

  Electronic Dipole Moment: (a.u.)
     X:    -4.2442      Y:    -1.8077      Z:     0.3090

  Dipole Moment: (a.u.)
     X:     1.4072      Y:     0.2373      Z:     0.3211     Total:     1.4627

  Dipole Moment: (Debye)
     X:     3.5768      Y:     0.6031      Z:     0.8162     Total:     3.7179


*** tstart() called on cx1-27-4-1
*** at Sat Sep 10 16:37:34 2016


         ------------------------------------------------------------
                                   SCF GRAD                          
                          Rob Parrish, Justin Turney,                
                       Andy Simmonett, and Alex Sokolov              
         ------------------------------------------------------------

  ==> Geometry <==

    Molecular point group: c1
    Full point group: C1

    Geometry (in Angstrom), charge = 0, multiplicity = 1:

       Center              X                  Y                   Z               Mass       
    ------------   -----------------  -----------------  -----------------  -----------------
           H          2.358938699574    -1.838830390696     1.451862070271     1.007825032070
           O          2.695835859905    -1.043037175527     1.080510181785    15.994914619560
           C          1.721058689141    -0.312332648535     0.511719807023    12.000000000000
           C          2.084875366500     0.884635125554    -0.088869073631    12.000000000000
           C          0.402504982514    -0.716001442112     0.501627721306    12.000000000000
           H          3.116487160460     1.175447476878    -0.077105453762     1.007825032070
           C          1.130531950716     1.672431385604    -0.690851491282    12.000000000000
           H          0.094747328878    -1.644806097005     0.937889640017     1.007825032070
           C         -0.527695496070     0.112354554259    -0.090360912293    12.000000000000
           H          1.422620577649     2.591794011120    -1.159089587442     1.007825032070
           C         -0.203558353808     1.300326326832    -0.692467764143    12.000000000000
           N         -1.922561581644    -0.328610804057    -0.107452254291    14.003074004780
           H         -0.959302884469     1.907344616015    -1.143573580519     1.007825032070
           O         -2.141697435347    -1.494510678466    -0.104730428393    15.994914619560
           O         -2.708044057854     0.480425771057    -0.470305269107    15.994914619560

  Nuclear repulsion =  505.340219943427314

  ==> Basis Set <==

  Basis Set: CC-PVTZ
    Number of shells: 130
    Number of basis function: 370
    Number of Cartesian functions: 425
    Spherical Harmonics?: true
    Max angular momentum: 3

  ==> DFJKGrad: Density-Fitted SCF Gradients <==

    Gradient:                    1
    J tasked:                  Yes
    K tasked:                  Yes
    wK tasked:                  No
    OpenMP threads:              4
    Integrals threads:           4
    Memory (MB):              1430
    Schwarz Cutoff:          0E+00
    Fitting Condition:       1E-12

   => Auxiliary Basis Set <=

  Basis Set: 
    Number of shells: 300
    Number of basis function: 940
    Number of Cartesian functions: 1135
    Spherical Harmonics?: true
    Max angular momentum: 4


  -Total Gradient:
     Atom            X                  Y                   Z
    ------   -----------------  -----------------  -----------------
       1        0.000006761417    -0.000070342525     0.000051189575
       2       -0.000334077073     0.000008716736    -0.000104578789
       3       -0.000169604016     0.001128506126     0.000597239099
       4       -0.000038128005     0.000069623424     0.000234196151
       5       -0.001340989938    -0.001351418169    -0.001210036477
       6       -0.000069317267     0.000075051281     0.000062091181
       7       -0.000311783135     0.000446845949    -0.000911571856
       8        0.000164417167    -0.000189241848    -0.000063581792
       9       -0.003735464225     0.002902135640    -0.016490526594
      10        0.000034272911     0.000084152641     0.000124584547
      11        0.000591510099    -0.002681673499    -0.000942576031
      12       -0.003222300738     0.003403024349     0.067753521019
      13       -0.001237212623     0.000556983481    -0.000539370948
      14       -0.002214811755     0.004499546639    -0.027004634898
      15        0.011876727174    -0.008881910228    -0.021555944185


*** tstop() called on cx1-27-4-1 at Sat Sep 10 16:37:45 2016
Module time:
	user time   =      39.04 seconds =       0.65 minutes
	system time =       0.74 seconds =       0.01 minutes
	total time  =         11 seconds =       0.18 minutes
Total time:
	user time   =     167.73 seconds =       2.80 minutes
	system time =       3.58 seconds =       0.06 minutes
	total time  =         47 seconds =       0.78 minutes

			-----------------------------------------
			 OPTKING 2.0: for geometry optimizations 
			  - R.A. King,  Bethel University        
			-----------------------------------------

	Previous internal coordinate definitions found.
	---Fragment 1 Geometry and Gradient---
	 H           4.4577481065       -3.4748858432        2.7436216955
	 O           5.0943914744       -1.9710546082        2.0418683274
	 C           3.2523295811       -0.5902231681        0.9670102920
	 C           3.9398434639        1.6717181148       -0.1679382108
	 C           0.7606241841       -1.3530466363        0.9479390139
	 H           5.8893072299        2.2212738149       -0.1457081910
	 C           2.1363957713        3.1604372948       -1.3055201170
	 H           0.1790465034       -3.1082330650        1.7723545625
	 C          -0.9971999691        0.2123193373       -0.1707573774
	 H           2.6883632828        4.8977808739       -2.1903618837
	 C          -0.3846695408        2.4572606411       -1.3085744301
	 N          -3.6331148629       -0.6209844240       -0.2030553330
	 H          -1.8128197301        3.6043589653       -2.1610408800
	 O          -4.0472216123       -2.8242158850       -0.1979118274
	 O          -5.1174616251        0.9078731345       -0.8887481575
	             0.0000067614       -0.0000703425        0.0000511896
	            -0.0003340771        0.0000087167       -0.0001045788
	            -0.0001696040        0.0011285061        0.0005972391
	            -0.0000381280        0.0000696234        0.0002341962
	            -0.0013409899       -0.0013514182       -0.0012100365
	            -0.0000693173        0.0000750513        0.0000620912
	            -0.0003117831        0.0004468459       -0.0009115719
	             0.0001644172       -0.0001892418       -0.0000635818
	            -0.0037354642        0.0029021356       -0.0164905266
	             0.0000342729        0.0000841526        0.0001245845
	             0.0005915101       -0.0026816735       -0.0009425760
	            -0.0032223007        0.0034030243        0.0677535210
	            -0.0012372126        0.0005569835       -0.0005393709
	            -0.0022148118        0.0044995466       -0.0270046349
	             0.0118767272       -0.0088819102       -0.0215559442

	---Fragment 1 Intrafragment Coordinates---
	 - Coordinate -           - BOHR/RAD -       - ANG/DEG -
	 R(1,2)           =         1.777437	       0.940579
	 R(2,3)           =         2.540710	       1.344486
	 R(3,4)           =         2.622434	       1.387732
	 R(3,5)           =         2.605928	       1.378998
	 R(4,6)           =         2.025565	       1.071883
	 R(4,7)           =         2.600539	       1.376146
	 R(5,8)           =         2.024493	       1.071316
	 R(5,9)           =         2.606108	       1.379093
	 R(7,10)          =         2.026321	       1.072283
	 R(7,11)          =         2.617296	       1.385013
	 R(9,11)          =         2.590286	       1.370720
	 R(9,12)          =         2.764685	       1.463009
	 R(11,13)         =         2.020432	       1.069167
	 R(12,14)         =         2.241816	       1.186318
	 R(12,15)         =         2.238496	       1.184561
	 B(1,2,3)         =         1.946753	     111.540705
	 B(2,3,4)         =         2.050807	     117.502574
	 B(2,3,5)         =         2.137963	     122.496238
	 B(3,4,6)         =         2.073254	     118.788715
	 B(3,4,7)         =         2.095873	     120.084689
	 B(3,5,8)         =         2.124082	     121.700933
	 B(3,5,9)         =         2.062640	     118.180564
	 B(4,3,5)         =         2.094389	     119.999631
	 B(4,7,10)        =         2.086260	     119.533907
	 B(4,7,11)        =         2.111455	     120.977486
	 B(5,9,11)        =         2.152716	     123.341558
	 B(5,9,12)        =         2.056756	     117.843460
	 B(6,4,7)         =         2.114046	     121.125913
	 B(7,11,9)        =         2.048917	     117.394280
	 B(7,11,13)       =         2.128009	     121.925944
	 B(8,5,9)         =         2.096463	     120.118503
	 B(9,11,13)       =         2.106259	     120.679739
	 B(9,12,14)       =         2.062707	     118.184423
	 B(9,12,15)       =         2.015217	     115.463439
	 B(10,7,11)       =         2.085440	     119.486895
	 B(11,9,12)       =         2.073220	     118.786776
	 B(14,12,15)      =         2.152496	     123.328915
	 D(1,2,3,4)       =        -3.129822	    -179.325591
	 D(1,2,3,5)       =         0.003840	       0.220043
	 D(2,3,4,6)       =         0.001502	       0.086034
	 D(2,3,4,7)       =         3.137910	     179.788979
	 D(2,3,5,8)       =        -0.015805	      -0.905577
	 D(2,3,5,9)       =         3.125687	     179.088700
	 D(3,4,7,10)      =        -3.133130	    -179.515125
	 D(3,4,7,11)      =         0.016811	       0.963220
	 D(3,5,9,11)      =         0.024880	       1.425491
	 D(3,5,9,12)      =         3.132295	     179.467310
	 D(4,3,5,8)       =         3.117665	     178.629059
	 D(4,3,5,9)       =        -0.024027	      -1.376664
	 D(4,7,11,9)      =        -0.016383	      -0.938665
	 D(4,7,11,13)     =         3.126415	     179.130377
	 D(5,3,4,6)       =        -3.132368	    -179.471458
	 D(5,3,4,7)       =         0.004040	       0.231487
	 D(5,9,11,7)      =        -0.004737	      -0.271423
	 D(5,9,11,13)     =         3.135666	     179.660442
	 D(5,9,12,14)     =        -0.491022	     -28.133475
	 D(5,9,12,15)     =         2.981971	     170.854343
	 D(6,4,7,10)      =         0.003155	       0.180752
	 D(6,4,7,11)      =        -3.130089	    -179.340903
	 D(7,11,9,12)     =        -3.111849	    -178.295787
	 D(8,5,9,11)      =        -3.116811	    -178.580138
	 D(8,5,9,12)      =        -0.009395	      -0.538319
	 D(9,11,7,10)     =         3.133555	     179.539458
	 D(10,7,11,13)    =        -0.006833	      -0.391500
	*D(11,9,12,14)    =         2.617994	     150.000003
	 D(11,9,12,15)    =        -0.192199	     -11.012178
	 D(12,9,11,13)    =         0.028555	       1.636077

	Current energy   :      -509.2098151809

	Energy change for the previous step:
		Projected    :        -0.0008414526
		Actual       :         0.0076125933

	Performing BFGS update.
	Previous computed or guess Hessian on step 1.
	Steps to be used in Hessian update: 1
	Taking RFO optimization step.
	Going to follow RFO solution 1.
	Using RFO vector 1.
	Norm of target step-size    0.36458
	Projected energy change by RFO approximation:        -0.0130384866

	Back-transformation to cartesian coordinates...
	Could not converge backtransformation.
	Using first guess instead.

	Back-transformation to cartesian coordinates to adjust frozen coordinates...
	Successfully converged to displaced geometry.

	--- Internal Coordinate Step in ANG or DEG, aJ/ANG or AJ/DEG ---
	 ---------------------------------------------------------------------------
	   Coordinate                Previous        Force       Change         New 
	   ----------                --------       ------       ------       ------
	    1 R(1,2)          =      0.940579    -0.000637    -0.000003     0.940576
	    2 R(2,3)          =      1.344486     0.001865     0.000011     1.344497
	    3 R(3,4)          =      1.387732    -0.004321    -0.000095     1.387637
	    4 R(3,5)          =      1.378998    -0.001557     0.000145     1.379142
	    5 R(4,6)          =      1.071883     0.000376     0.000034     1.071917
	    6 R(4,7)          =      1.376146    -0.001230     0.000110     1.376255
	    7 R(5,8)          =      1.071316    -0.000749     0.000303     1.071618
	    8 R(5,9)          =      1.379093     0.011099    -0.000097     1.378996
	    9 R(7,10)         =      1.072283    -0.000223     0.000038     1.072321
	   10 R(7,11)         =      1.385013     0.004387     0.000230     1.385243
	   11 R(9,11)         =      1.370720     0.009513    -0.000011     1.370710
	   12 R(9,12)         =      1.463009     0.049998     0.001728     1.464737
	   13 R(11,13)        =      1.069167    -0.011685     0.000057     1.069224
	   14 R(12,14)        =      1.186318     0.033572     0.000642     1.186960
	   15 R(12,15)        =      1.184561     0.060461     0.024882     1.209443
	   16 B(1,2,3)        =    111.540705    -0.000005     0.009838   111.550543
	   17 B(2,3,4)        =    117.502574    -0.000005     0.007328   117.509903
	   18 B(2,3,5)        =    122.496238     0.000039     0.029652   122.525890
	   19 B(3,4,6)        =    118.788715     0.000001    -0.000943   118.787772
	   20 B(3,4,7)        =    120.084689    -0.000009    -0.014323   120.070366
	   21 B(3,5,8)        =    121.700933    -0.000043    -0.002093   121.698840
	   22 B(3,5,9)        =    118.180564     0.000113     0.035477   118.216041
	   23 B(4,3,5)        =    119.999631    -0.000034    -0.038551   119.961080
	   24 B(4,7,10)       =    119.533907    -0.000030    -0.014084   119.519823
	   25 B(4,7,11)       =    120.977486     0.000068     0.045602   121.023088
	   26 B(5,9,11)       =    123.341558    -0.000127    -0.012355   123.329204
	   27 B(5,9,12)       =    117.843460    -0.000113    -0.155261   117.688200
	   28 B(6,4,7)        =    121.125913     0.000008     0.012684   121.138597
	   29 B(7,11,9)       =    117.394280    -0.000013    -0.048875   117.345405
	   30 B(7,11,13)      =    121.925944    -0.000020     0.004511   121.930455
	   31 B(8,5,9)        =    120.118503    -0.000070    -0.033387   120.085116
	   32 B(9,11,13)      =    120.679739     0.000033     0.044399   120.724138
	   33 B(9,12,14)      =    118.184423    -0.000490     0.025116   118.209539
	   34 B(9,12,15)      =    115.463439     0.001079     1.397381   116.860821
	   35 B(10,7,11)      =    119.486895    -0.000038    -0.030523   119.456372
	   36 B(11,9,12)      =    118.786776     0.000226     0.009616   118.796393
	   37 B(14,12,15)     =    123.328915     0.000096     1.500476   124.829390
	   38 D(1,2,3,4)      =   -179.325591     0.000002     0.183900  -179.141691
	   39 D(1,2,3,5)      =      0.220043    -0.000002    -0.006043     0.214000
	   40 D(2,3,4,6)      =      0.086034    -0.000002    -0.032895     0.053139
	   41 D(2,3,4,7)      =    179.788979    -0.000014    -0.385601   179.403378
	   42 D(2,3,5,8)      =     -0.905577    -0.000009    -0.385585    -1.291162
	   43 D(2,3,5,9)      =    179.088700    -0.000008    -0.400345   178.688355
	   44 D(3,4,7,10)     =   -179.515125     0.000017     0.500877  -179.014248
	   45 D(3,4,7,11)     =      0.963220     0.000005     0.332102     1.295322
	   46 D(3,5,9,11)     =      1.425491     0.000042     1.334717     2.760208
	   47 D(3,5,9,12)     =    179.467310    -0.000071    -1.733754   177.733556
	   48 D(4,3,5,8)      =    178.629059    -0.000013    -0.579826   178.049233
	   49 D(4,3,5,9)      =     -1.376664    -0.000012    -0.594586    -1.971249
	   50 D(4,7,11,9)     =     -0.938665     0.000023     0.342023    -0.596642
	   51 D(4,7,11,13)    =    179.130377     0.000020     0.258503   179.388880
	   52 D(5,3,4,6)      =   -179.471458     0.000002     0.151640  -179.319818
	   53 D(5,3,4,7)      =      0.231487    -0.000011    -0.201066     0.030421
	   54 D(5,9,11,7)     =     -0.271423    -0.000047    -1.200406    -1.471829
	   55 D(5,9,11,13)    =    179.660442    -0.000044    -1.117977   178.542464
	   56 D(5,9,12,14)    =    -28.133475     0.000109     2.925486   -25.207989
	   57 D(5,9,12,15)    =    170.854343    -0.000373   -12.599471   158.254872
	   58 D(6,4,7,10)     =      0.180752     0.000005     0.139683     0.320435
	   59 D(6,4,7,11)     =   -179.340903    -0.000008    -0.029091  -179.369995
	   60 D(7,11,9,12)    =   -178.295787     0.000068     1.903245  -176.392543
	   61 D(8,5,9,11)     =   -178.580138     0.000043     1.320206  -177.259932
	   62 D(8,5,9,12)     =     -0.538319    -0.000070    -1.748265    -2.286584
	   63 D(9,11,7,10)    =    179.539458     0.000011     0.173277   179.712735
	   64 D(10,7,11,13)   =     -0.391500     0.000007     0.089757    -0.301743
	   65 *D(11,9,12,14)  =    150.000003    -0.000000    -0.000000   150.000003
	   66 D(11,9,12,15)   =    -11.012178    -0.000482   -15.524958   -26.537136
	   67 D(12,9,11,13)   =      1.636077     0.000072     1.985674     3.621751
	 ---------------------------------------------------------------------------
	Successfully symmetrized geometry.

  ==> Convergence Check <==

  Measures of convergence in internal coordinates in au.
  Criteria marked as inactive (o), active & met (*), and active & unmet ( ).
  ---------------------------------------------------------------------------------------------
   Step     Total Energy     Delta E     MAX Force     RMS Force      MAX Disp      RMS Disp   
  ---------------------------------------------------------------------------------------------
    Convergence Criteria    1.00e-06 *    3.00e-04 *             o    1.20e-03 *             o
  ---------------------------------------------------------------------------------------------
      2    -509.20981518    7.61e-03      2.76e-02      5.09e-03 o    2.71e-01      4.48e-02 o  ~
  ---------------------------------------------------------------------------------------------

	Writing optimization data to binary file.
	Structure for next step:
	Cartesian Geometry (in Angstrom)
	    H     2.3473594798  -1.8337426764   1.4651743742
	    O     2.6872244528  -1.0371926856   1.0981816598
	    C     1.7180118052  -0.3075012554   0.5186558222
	    C     2.0874317726   0.8884253507  -0.0803642645
	    C     0.3999464147  -0.7125464189   0.4926544297
	    H     3.1187885201   1.1796907172  -0.0585982525
	    C     1.1398323022   1.6710062617  -0.6998006205
	    H     0.0889229732  -1.6450845430   0.9192723645
	    C    -0.5259331314   0.1185938933  -0.1019746987
	    H     1.4376253116   2.5856797468  -1.1736817512
	    C    -0.1943592584   1.2987279816  -0.7153158712
	    N    -1.9136122318  -0.3455128031  -0.1683430204
	    H    -0.9439097201   1.9003109923  -1.1838363971
	    O    -2.1155951751  -1.5150130055  -0.1497185274
	    O    -2.7669927093   0.5007884753  -0.3035016414
			--------------------------
			 OPTKING Finished Execution 
			--------------------------

    Structure for next step:
    Molecular point group: c1
    Full point group: C1

    Geometry (in Angstrom), charge = 0, multiplicity = 1:

    H            2.349631175919    -1.833986885380     1.458750264760
    O            2.689496148928    -1.037436894577     1.091757550386
    C            1.720283501409    -0.307745464428     0.512231712830
    C            2.089703468740     0.888181141710    -0.086788373913
    C            0.402218110887    -0.712790627898     0.486230320294
    H            3.121060216242     1.179446508211    -0.065022361905
    C            1.142103998391     1.670762052705    -0.706224729946
    H            0.091194669324    -1.645328751972     0.912848255131
    C           -0.523661435237     0.118349684288    -0.108398808129
    H            1.439897007812     2.585435537842    -1.180105860636
    C           -0.192087562200     1.298483772576    -0.721739980600
    N           -1.911340535621    -0.345757012070    -0.174767129866
    H           -0.941638023902     1.900066783273    -1.190260506477
    O           -2.113323478937    -1.515257214484    -0.156142636815
    O           -2.764721013173     0.500544266297    -0.309925750841

gradient() will perform analytic gradient computation.

*** tstart() called on cx1-27-4-1
*** at Sat Sep 10 16:37:45 2016


         ---------------------------------------------------------
                                   SCF
            by Justin Turney, Rob Parrish, and Andy Simmonett
                              RHF Reference
                        4 Threads,   2000 MiB Core
         ---------------------------------------------------------

  ==> Geometry <==

    Molecular point group: c1
    Full point group: C1

    Geometry (in Angstrom), charge = 0, multiplicity = 1:

       Center              X                  Y                   Z               Mass       
    ------------   -----------------  -----------------  -----------------  -----------------
           H          2.349631175919    -1.833986885380     1.458750264760     1.007825032070
           O          2.689496148928    -1.037436894577     1.091757550386    15.994914619560
           C          1.720283501409    -0.307745464428     0.512231712830    12.000000000000
           C          2.089703468740     0.888181141710    -0.086788373913    12.000000000000
           C          0.402218110887    -0.712790627898     0.486230320294    12.000000000000
           H          3.121060216242     1.179446508211    -0.065022361905     1.007825032070
           C          1.142103998391     1.670762052705    -0.706224729946    12.000000000000
           H          0.091194669324    -1.645328751972     0.912848255131     1.007825032070
           C         -0.523661435237     0.118349684288    -0.108398808129    12.000000000000
           H          1.439897007812     2.585435537842    -1.180105860636     1.007825032070
           C         -0.192087562200     1.298483772576    -0.721739980600    12.000000000000
           N         -1.911340535621    -0.345757012070    -0.174767129866    14.003074004780
           H         -0.941638023902     1.900066783273    -1.190260506477     1.007825032070
           O         -2.113323478937    -1.515257214484    -0.156142636815    15.994914619560
           O         -2.764721013173     0.500544266297    -0.309925750841    15.994914619560

  Running in c1 symmetry.

  Rotational constants: A =      0.09362  B =      0.03320  C =      0.02493 [cm^-1]
  Rotational constants: A =   2806.51881  B =    995.34432  C =    747.46416 [MHz]
  Nuclear repulsion =  503.778789157872893

  Charge       = 0
  Multiplicity = 1
  Electrons    = 72
  Nalpha       = 36
  Nbeta        = 36

  ==> Algorithm <==

  SCF Algorithm Type is DF.
  DIIS enabled.
  MOM disabled.
  Fractional occupation disabled.
  Guess Type is READ.
  Energy threshold   = 1.00e-08
  Density threshold  = 1.00e-08
  Integral threshold = 0.00e+00

  ==> Primary Basis <==

  Basis Set: CC-PVTZ
    Number of shells: 130
    Number of basis function: 370
    Number of Cartesian functions: 425
    Spherical Harmonics?: true
    Max angular momentum: 3

  ==> Pre-Iterations <==

   -------------------------------------------------------
    Irrep   Nso     Nmo     Nalpha   Nbeta   Ndocc  Nsocc
   -------------------------------------------------------
     A        370     370       0       0       0       0
   -------------------------------------------------------
    Total     370     370      36      36      36       0
   -------------------------------------------------------

  ==> Integral Setup <==

  ==> DFJK: Density-Fitted J/K Matrices <==

    J tasked:                  Yes
    K tasked:                  Yes
    wK tasked:                  No
    OpenMP threads:              4
    Integrals threads:           4
    Memory (MB):              1430
    Algorithm:                Core
    Integral Cache:           NONE
    Schwarz Cutoff:          1E-12
    Fitting Condition:       1E-12

   => Auxiliary Basis Set <=

  Basis Set: 
    Number of shells: 300
    Number of basis function: 940
    Number of Cartesian functions: 1135
    Spherical Harmonics?: true
    Max angular momentum: 4

  Minimum eigenvalue in the overlap matrix is 3.7759265962E-05.
  Using Symmetric Orthogonalization.
  SCF Guess: Reading in previously saved MOs, projecting if necessary.

  Using orbitals from previous SCF, no projection.
  Recomputing DOCC and SOCC from number of alpha and beta electrons from previous calculation.
              A 
    DOCC [    36 ]

  ==> Iterations <==

                           Total Energy        Delta E     RMS |[F,P]|

   @DF-RHF iter   0:  -509.12401333236903   -5.09124e+02   1.19256e-03 
   @DF-RHF iter   1:  -509.21022230081724   -8.62090e-02   2.48884e-04 
   @DF-RHF iter   2:  -509.21449018796670   -4.26789e-03   1.71697e-04 DIIS
   @DF-RHF iter   3:  -509.21607670830929   -1.58652e-03   5.10912e-05 DIIS
   @DF-RHF iter   4:  -509.21642828978622   -3.51581e-04   1.89100e-05 DIIS
   @DF-RHF iter   5:  -509.21649223109523   -6.39413e-05   8.96665e-06 DIIS
   @DF-RHF iter   6:  -509.21651700835935   -2.47773e-05   5.27345e-06 DIIS
   @DF-RHF iter   7:  -509.21652663837563   -9.63002e-06   2.35013e-06 DIIS
   @DF-RHF iter   8:  -509.21652842293452   -1.78456e-06   5.90520e-07 DIIS
   @DF-RHF iter   9:  -509.21652848128122   -5.83467e-08   2.14771e-07 DIIS
   @DF-RHF iter  10:  -509.21652849029635   -9.01514e-09   8.97224e-08 DIIS
   @DF-RHF iter  11:  -509.21652849217060   -1.87424e-09   4.41050e-08 DIIS
   @DF-RHF iter  12:  -509.21652849266491   -4.94310e-10   2.06140e-08 DIIS
[...]
       5       -0.000019353462     0.000003790661     0.000008102830
       6       -0.000000223509    -0.000003787984    -0.000007265750
       7       -0.000019538618     0.000019302265     0.000027267238
       8       -0.000003908778    -0.000002930077     0.000000659336
       9       -0.000702945479     0.001846368599     0.002231467707
      10       -0.000004565037    -0.000000896537     0.000002379304
      11        0.000518474573    -0.001336621469    -0.002408380949
      12       -0.000143811877    -0.000600389424     0.003306601368
      13        0.000006281641    -0.000004360385     0.000004445096
      14        0.000355457086    -0.000078785551    -0.003148481947
      15        0.000020870331     0.000174626667    -0.000015673955


*** tstop() called on cx1-27-4-1 at Sat Sep 10 16:39:27 2016
Module time:
	user time   =      38.83 seconds =       0.65 minutes
	system time =       0.72 seconds =       0.01 minutes
	total time  =         10 seconds =       0.17 minutes
Total time:
	user time   =     538.70 seconds =       8.98 minutes
	system time =      10.94 seconds =       0.18 minutes
	total time  =        149 seconds =       2.48 minutes

			-----------------------------------------
			 OPTKING 2.0: for geometry optimizations 
			  - R.A. King,  Bethel University        
			-----------------------------------------

	Previous internal coordinate definitions found.
	---Fragment 1 Geometry and Gradient---
	 H           4.4292084260       -3.4580934826        2.7663170485
	 O           5.0723404155       -1.9511760649        2.0772800845
	 C           3.2456876951       -0.5807793439        0.9640902866
	 C           3.9461835596        1.6814291704       -0.1625860530
	 C           0.7569251894       -1.3508852933        0.9023181487
	 H           5.8935590696        2.2363039175       -0.1080958937
	 C           2.1581049124        3.1648420874       -1.3300365731
	 H           0.1679429435       -3.1083503156        1.7150549955
	 C          -0.9877388424        0.2055332830       -0.2511787739
	 H           2.7213486080        4.9012148109       -2.2097020468
	 C          -0.3592757772        2.4489666354       -1.3850372891
	 N          -3.6196567932       -0.6438027185       -0.3497066960
	 H          -1.7746202160        3.5893031162       -2.2658996995
	 O          -3.9887297377       -2.8548264287       -0.3425503076
	 O          -5.2073748630        0.9293331916       -0.4750007589
	             0.0000000522        0.0000037199        0.0000125457
	            -0.0000009019       -0.0000105026       -0.0000033615
	            -0.0000015092       -0.0000091830       -0.0000306967
	            -0.0000043780       -0.0000003512        0.0000203922
	            -0.0000193535        0.0000037907        0.0000081028
	            -0.0000002235       -0.0000037880       -0.0000072658
	            -0.0000195386        0.0000193023        0.0000272672
	            -0.0000039088       -0.0000029301        0.0000006593
	            -0.0007029455        0.0018463686        0.0022314677
	            -0.0000045650       -0.0000008965        0.0000023793
	             0.0005184746       -0.0013366215       -0.0024083809
	            -0.0001438119       -0.0006003894        0.0033066014
	             0.0000062816       -0.0000043604        0.0000044451
	             0.0003554571       -0.0000787856       -0.0031484819
	             0.0000208703        0.0001746267       -0.0000156740

	---Fragment 1 Intrafragment Coordinates---
	 - Coordinate -           - BOHR/RAD -       - ANG/DEG -
	 R(1,2)           =         1.777411	       0.940566
	 R(2,3)           =         2.540441	       1.344343
	 R(3,4)           =         2.622533	       1.387785
	 R(3,5)           =         2.605920	       1.378993
	 R(4,6)           =         2.025618	       1.071911
	 R(4,7)           =         2.600131	       1.375930
	 R(5,8)           =         2.023888	       1.070996
	 R(5,9)           =         2.607076	       1.379605
	 R(7,10)          =         2.026338	       1.072292
	 R(7,11)          =         2.617768	       1.385263
	 R(9,11)          =         2.591060	       1.371130
	 R(9,12)          =         2.767322	       1.464404
	 R(11,13)         =         2.019774	       1.068818
	 R(12,14)         =         2.241627	       1.186218
	 R(12,15)         =         2.238594	       1.184613
	 B(1,2,3)         =         1.946619	     111.533039
	 B(2,3,4)         =         2.050494	     117.484639
	 B(2,3,5)         =         2.138475	     122.525614
	 B(3,4,6)         =         2.073190	     118.785013
	 B(3,4,7)         =         2.095940	     120.088541
	 B(3,5,8)         =         2.123549	     121.670400
	 B(3,5,9)         =         2.063693	     118.240878
	 B(4,3,5)         =         2.094202	     119.988917
	 B(4,7,10)        =         2.085918	     119.514323
	 B(4,7,11)        =         2.111492	     120.979574
	 B(5,9,11)        =         2.151011	     123.243869
	 B(5,9,12)        =         2.058937	     117.968373
	 B(6,4,7)         =         2.114049	     121.126081
	 B(7,11,9)        =         2.049730	     117.440882
	 B(7,11,13)       =         2.127792	     121.913514
	 B(8,5,9)         =         2.095938	     120.088421
	 B(9,11,13)       =         2.105657	     120.645238
	 B(9,12,14)       =         2.047892	     117.335595
	 B(9,12,15)       =         2.049757	     117.442417
	 B(10,7,11)       =         2.085775	     119.506097
	 B(11,9,12)       =         2.072410	     118.740358
	 B(14,12,15)      =         2.185289	     125.207861
	 D(1,2,3,4)       =        -3.127157	    -179.172916
	 D(1,2,3,5)       =         0.008641	       0.495069
	 D(2,3,4,6)       =         0.004304	       0.246594
	 D(2,3,4,7)       =        -3.141079	    -179.970565
	 D(2,3,5,8)       =        -0.020877	      -1.196148
	 D(2,3,5,9)       =         3.124199	     179.003407
	 D(3,4,7,10)      =        -3.131939	    -179.446871
	 D(3,4,7,11)      =         0.010106	       0.579020
	 D(3,5,9,11)      =         0.025875	       1.482536
	 D(3,5,9,12)      =         3.123152	     178.943424
	 D(4,3,5,8)       =         3.114781	     178.463782
	 D(4,3,5,9)       =        -0.023329	      -1.336663
	 D(4,7,11,9)      =        -0.008238	      -0.472020
	 D(4,7,11,13)     =         3.129539	     179.309350
	 D(5,3,4,6)       =        -3.131648	    -179.430197
	 D(5,3,4,7)       =         0.006155	       0.352645
	 D(5,9,11,7)      =        -0.010079	      -0.577483
	 D(5,9,11,13)     =         3.135279	     179.638227
	 D(5,9,12,14)     =        -0.481329	     -27.578131
	 D(5,9,12,15)     =         2.682870	     153.717133
	 D(6,4,7,10)      =         0.005773	       0.330795
	 D(6,4,7,11)      =        -3.135367	    -179.643313
	 D(7,11,9,12)     =        -3.107032	    -178.019829
	 D(8,5,9,11)      =        -3.112292	    -178.321177
	 D(8,5,9,12)      =        -0.015015	      -0.860289
	 D(9,11,7,10)     =         3.133806	     179.553870
	 D(10,7,11,13)    =        -0.011602	      -0.664761
	*D(11,9,12,14)    =         2.617994	     150.000003
	 D(11,9,12,15)    =        -0.500992	     -28.704733
	 D(12,9,11,13)    =         0.038325	       2.195881

	Current energy   :      -509.2176278679

	Energy change for the previous step:
		Projected    :        -0.0000033335
		Actual       :        -0.0000011242

	Performing BFGS update.
	Previous computed or guess Hessian on step 1.
	Steps to be used in Hessian update: 6 5
	Taking RFO optimization step.
	Going to follow RFO solution 1.
	Using RFO vector 1.
	Norm of target step-size    0.00209
	Projected energy change by RFO approximation:        -0.0000003385

	Back-transformation to cartesian coordinates...
	Successfully converged to displaced geometry.

	Back-transformation to cartesian coordinates to adjust frozen coordinates...
	Successfully converged to displaced geometry.

	--- Internal Coordinate Step in ANG or DEG, aJ/ANG or AJ/DEG ---
	 ---------------------------------------------------------------------------
	   Coordinate                Previous        Force       Change         New 
	   ----------                --------       ------       ------       ------
	    1 R(1,2)          =      0.940566    -0.000014    -0.000001     0.940564
	    2 R(2,3)          =      1.344343    -0.000058    -0.000006     1.344338
	    3 R(3,4)          =      1.387785    -0.000019    -0.000004     1.387780
	    4 R(3,5)          =      1.378993     0.000116     0.000015     1.379009
	    5 R(4,6)          =      1.071911     0.000012     0.000002     1.071912
	    6 R(4,7)          =      1.375930    -0.000115    -0.000007     1.375923
	    7 R(5,8)          =      1.070996    -0.000033     0.000003     1.070998
	    8 R(5,9)          =      1.379605     0.000189     0.000015     1.379621
	    9 R(7,10)         =      1.072292     0.000025     0.000003     1.072295
	   10 R(7,11)         =      1.385263     0.000131     0.000014     1.385277
	   11 R(9,11)         =      1.371130    -0.000020    -0.000003     1.371127
	   12 R(9,12)         =      1.464404     0.000588     0.000044     1.464448
	   13 R(11,13)        =      1.068818     0.000073     0.000007     1.068825
	   14 R(12,14)        =      1.186218    -0.000075    -0.000007     1.186211
	   15 R(12,15)        =      1.184613    -0.000896    -0.000037     1.184576
	   16 B(1,2,3)        =    111.533039    -0.000000    -0.001167   111.531871
	   17 B(2,3,4)        =    117.484639    -0.000001    -0.001592   117.483047
	   18 B(2,3,5)        =    122.525614     0.000000     0.001626   122.527240
	   19 B(3,4,6)        =    118.785013     0.000000    -0.000035   118.784978
	   20 B(3,4,7)        =    120.088541    -0.000000    -0.001100   120.087441
	   21 B(3,5,8)        =    121.670400    -0.000001    -0.000936   121.669463
	   22 B(3,5,9)        =    118.240878     0.000001     0.001651   118.242529
	   23 B(4,3,5)        =    119.988917     0.000000    -0.000146   119.988771
	   24 B(4,7,10)       =    119.514323    -0.000000    -0.001190   119.513133
	   25 B(4,7,11)       =    120.979574     0.000000     0.000810   120.980384
	   26 B(5,9,11)       =    123.243869    -0.000002    -0.003270   123.240599
	   27 B(5,9,12)       =    117.968373     0.000003     0.002147   117.970519
	   28 B(6,4,7)        =    121.126081     0.000000     0.001151   121.127233
	   29 B(7,11,9)       =    117.440882     0.000001     0.001476   117.442359
	   30 B(7,11,13)      =    121.913514    -0.000001    -0.000650   121.912864
	   31 B(8,5,9)        =    120.088421    -0.000000    -0.000697   120.087724
	   32 B(9,11,13)      =    120.645238    -0.000001    -0.000754   120.644484
	   33 B(9,12,14)      =    117.335595     0.000019     0.032922   117.368517
	   34 B(9,12,15)      =    117.442417     0.000003     0.006427   117.448844
	   35 B(10,7,11)      =    119.506097     0.000000     0.000376   119.506473
	   36 B(11,9,12)      =    118.740358    -0.000001    -0.000075   118.740283
	   37 B(14,12,15)     =    125.207861    -0.000021    -0.039212   125.168649
	   38 D(1,2,3,4)      =   -179.172916     0.000000     0.052490  -179.120426
	   39 D(1,2,3,5)      =      0.495069     0.000000     0.030902     0.525971
	   40 D(2,3,4,6)      =      0.246594    -0.000000    -0.012203     0.234391
	   41 D(2,3,4,7)      =   -179.970565    -0.000000    -0.007229  -179.977794
	   42 D(2,3,5,8)      =     -1.196148     0.000000     0.000876    -1.195272
	   43 D(2,3,5,9)      =    179.003407     0.000000    -0.004873   178.998534
	   44 D(3,4,7,10)     =   -179.446871    -0.000000     0.002653  -179.444218
	   45 D(3,4,7,11)     =      0.579020     0.000000     0.011698     0.590718
	   46 D(3,5,9,11)     =      1.482536     0.000000     0.015886     1.498422
	   47 D(3,5,9,12)     =    178.943424    -0.000000    -0.015984   178.927440
	   48 D(4,3,5,8)      =    178.463782    -0.000000    -0.021241   178.442541
	   49 D(4,3,5,9)      =     -1.336663    -0.000000    -0.026990    -1.363653
	   50 D(4,7,11,9)     =     -0.472020    -0.000000    -0.022544    -0.494564
	   51 D(4,7,11,13)    =    179.309350    -0.000000     0.000236   179.309586
	   52 D(5,3,4,6)      =   -179.430197     0.000000     0.008806  -179.421391
	   53 D(5,3,4,7)      =      0.352645     0.000000     0.013780     0.366425
	   54 D(5,9,11,7)     =     -0.577483     0.000000     0.008732    -0.568751
	   55 D(5,9,11,13)    =    179.638227    -0.000000    -0.013744   179.624483
	   56 D(5,9,12,14)    =    -27.578131     0.000000     0.030487   -27.547645
	   57 D(5,9,12,15)    =    153.717133    -0.000000     0.024729   153.741861
	   58 D(6,4,7,10)     =      0.330795     0.000000     0.007743     0.338538
	   59 D(6,4,7,11)     =   -179.643313     0.000000     0.016788  -179.626526
	   60 D(7,11,9,12)    =   -178.019829     0.000000     0.040782  -177.979047
	   61 D(8,5,9,11)     =   -178.321177     0.000000     0.010232  -178.310946
	   62 D(8,5,9,12)     =     -0.860289    -0.000000    -0.021639    -0.881928
	   63 D(9,11,7,10)    =    179.553870    -0.000000    -0.013500   179.540370
	   64 D(10,7,11,13)   =     -0.664761     0.000000     0.009280    -0.655480
	   65 *D(11,9,12,14)  =    150.000003     0.000000    -0.000000   150.000003
	   66 D(11,9,12,15)   =    -28.704733    -0.000000    -0.005758   -28.710491
	   67 D(12,9,11,13)   =      2.195881     0.000000     0.018306     2.214187
	 ---------------------------------------------------------------------------
	Successfully symmetrized geometry.

  ==> Convergence Check <==

  Measures of convergence in internal coordinates in au.
  Criteria marked as inactive (o), active & met (*), and active & unmet ( ).
  ---------------------------------------------------------------------------------------------
   Step     Total Energy     Delta E     MAX Force     RMS Force      MAX Disp      RMS Disp   
  ---------------------------------------------------------------------------------------------
    Convergence Criteria    1.00e-06 *    3.00e-04 *             o    1.20e-03 *             o
  ---------------------------------------------------------------------------------------------
      7    -509.21762787   -1.12e-06      2.77e-04 *    4.90e-05 o    9.16e-04 *    2.55e-04 o  ~
  ---------------------------------------------------------------------------------------------


  **** Optimization is complete! (in 7 steps) ****

  ==> Optimization Summary <==

  Measures of convergence in internal coordinates in au.
  --------------------------------------------------------------------------------------------------------------- ~
   Step         Total Energy             Delta E       MAX Force       RMS Force        MAX Disp        RMS Disp  ~
  --------------------------------------------------------------------------------------------------------------- ~
      1    -509.217427774186   -509.217427774186      0.00331337      0.00083032      0.36397735      0.06132300  ~
      2    -509.209815180914      0.007612593272      0.02763152      0.00508680      0.27096163      0.04480603  ~
      3    -509.216528492804     -0.006713311890      0.03576215      0.00456172      0.06667618      0.01252369  ~
      4    -509.217588942243     -0.001060449439      0.00156892      0.00041166      0.03648439      0.00993690  ~
      5    -509.217591974006     -0.000003031763      0.00232940      0.00048915      0.01412369      0.00438204  ~
      6    -509.217626743712     -0.000034769706      0.00063909      0.00012450      0.00216071      0.00064670  ~
      7    -509.217627867864     -0.000001124152      0.00027659      0.00004896      0.00091613      0.00025506  ~
  --------------------------------------------------------------------------------------------------------------- ~

	Writing optimization data to binary file.
	Final energy is   -509.2176278678641
	Final (previous) structure:
	Cartesian Geometry (in Angstrom)
	    H     2.3438361511  -1.8299442562   1.4638719338
	    O     2.6841669421  -1.0325179035   1.0992492766
	    C     1.7175439545  -0.3073351920   0.5101746067
	    C     2.0882304007   0.8897739948  -0.0860368337
	    C     0.4005475588  -0.7148577086   0.4774861992
	    H     3.1187371371   1.1834010646  -0.0572018833
	    C     1.1420199334   1.6747623015  -0.7038250411
	    H     0.0888715780  -1.6448681433   0.9075680151
	    C    -0.5226888834   0.1087635290  -0.1329180825
	    H     1.4400756600   2.5936111723  -1.1693239610
	    C    -0.1901205529   1.2959373281  -0.7329301664
	    N    -1.9154398779  -0.3406857254  -0.1850568132
	    H    -0.9390885722   1.8993774038  -1.1990624779
	    O    -2.1107448684  -1.5107090805  -0.1812698156
	    O    -2.7556240941   0.4917819442  -0.2513595756
	Saving final (previous) structure.
			--------------------------
			 OPTKING Finished Execution 
			--------------------------

    Final optimized geometry and variables:
    Molecular point group: c1
    Full point group: C1

    Geometry (in Angstrom), charge = 0, multiplicity = 1:

    H            2.343836151124    -1.829944256188     1.463871933823
    O            2.684166942106    -1.032517903510     1.099249276557
    C            1.717543954452    -0.307335191995     0.510174606709
    C            2.088230400655     0.889773994813    -0.086036833656
    C            0.400547558818    -0.714857708644     0.477486199202
    H            3.118737137122     1.183401064641    -0.057201883274
    C            1.142019933374     1.674762301456    -0.703825041084
    H            0.088871578041    -1.644868143310     0.907568015085
    C           -0.522688883423     0.108763528952    -0.132918082450
    H            1.440075659980     2.593611172314    -1.169323960958
    C           -0.190120552897     1.295937328052    -0.732930166434
    N           -1.915439877871    -0.340685725448    -0.185056813233
    H           -0.939088572230     1.899377403789    -1.199062477941
    O           -2.110744868402    -1.510709080524    -0.181269815590
    O           -2.755624094070     0.491781944157    -0.251359575649

	Cleaning optimization helper files.


Properties will be evaluated at   0.000000,   0.000000,   0.000000 Bohr

Properties computed using the  density matrix

  Nuclear Dipole Moment: (a.u.)
     X:     5.6690      Y:     2.0550      Z:    -0.0470

  Electronic Dipole Moment: (a.u.)
     X:    -4.2449      Y:    -1.8338      Z:     0.2238

  Dipole Moment: (a.u.)
     X:     1.4241      Y:     0.2212      Z:     0.1768     Total:     1.4520

  Dipole Moment: (Debye)
     X:     3.6197      Y:     0.5622      Z:     0.4493     Total:     3.6906

  Quadrupole Moment: (Debye Ang)
    XX:   -68.1800     YY:   -51.8421     ZZ:   -54.8540
    XY:    -1.7451     XZ:    -0.4974     YZ:    -6.5125

  Traceless Quadrupole Moment: (Debye Ang)
    XX:    -9.8880     YY:     6.4499     ZZ:     3.4381
    XY:    -1.7451     XZ:    -0.4974     YZ:    -6.5125

  Mulliken Charges: (a.u.)
   Center  Symbol    Alpha    Beta     Spin     Total
       1     H     0.38428  0.38428  0.00000  0.23143
       2     O     4.16810  4.16810  0.00000 -0.33621
       3     C     2.84471  2.84471  0.00000  0.31059
       4     C     3.09877  3.09877  0.00000 -0.19753
       5     C     3.13726  3.13726  0.00000 -0.27451
       6     H     0.41336  0.41336  0.00000  0.17328
       7     C     3.05581  3.05581  0.00000 -0.11162
       8     H     0.41215  0.41215  0.00000  0.17569
       9     C     2.95707  2.95707  0.00000  0.08587
      10     H     0.41603  0.41603  0.00000  0.16793
      11     C     3.10160  3.10160  0.00000 -0.20320
      12     N     3.26225  3.26225  0.00000  0.47550
      13     H     0.40325  0.40325  0.00000  0.19349
      14     O     4.17394  4.17394  0.00000 -0.34787
      15     O     4.17142  4.17142  0.00000 -0.34283

   Total alpha = 36.00000, Total beta = 36.00000, Total charge =  0.00000


*** Psi4 exiting successfully. Buy a developer a beer!
