    -----------------------------------------------------------------------
          Psi4: An Open-Source Ab Initio Electronic Structure Package
                              Psi4 (no tag) Driver

                          Git: Rev {detached?}  

    J. M. Turney, A. C. Simmonett, R. M. Parrish, E. G. Hohenstein,
    F. A. Evangelista, J. T. Fermann, B. J. Mintz, L. A. Burns, J. J. Wilke,
    M. L. Abrams, N. J. Russ, M. L. Leininger, C. L. Janssen, E. T. Seidl,
    W. D. Allen, H. F. Schaefer, R. A. King, E. F. Valeev, C. D. Sherrill,
    and T. D. Crawford, WIREs Comput. Mol. Sci. 2, 556-565 (2012)
    (doi: 10.1002/wcms.93)

                         Additional Contributions by
    A. E. DePrince, M. Saitow, U. Bozkaya, A. Yu. Sokolov
    -----------------------------------------------------------------------


    Psi4 started on: Fri Sep  2 16:20:04 2016

    Process ID:  20216
    PSI4DATADIR: /export131/home/mjharvey/miniconda3/share
    Memory level set to 256.000 MB

  ==> Input File <==

--------------------------------------------------------------------------
set {
	reference rhf
	basis 6-31G*
}


set_num_threads( 4 )
memory 2 gb

molecule MOL {
0 1

H	 3.120532	 -1.441901	 -0.738033
O	 2.826016	 -1.159218	 0.122261
C	 2.077727	 -0.067559	 -0.035091
C	 0.624473	 -0.343591	 0.253101
O	 2.542965	 0.974826	 -0.363729
C	 -0.265902	 0.883932	 0.072916
H	 0.324016	 -1.163849	 -0.390541
H	 0.565024	 -0.726111	 1.268924
C	 -1.728698	 0.646073	 0.462102
H	 -0.209144	 1.219470	 -0.958188
H	 0.135059	 1.692851	 0.673903
C	 -2.482460	 -0.343073	 -0.431425
H	 -2.245265	 1.602650	 0.432430
H	 -1.779332	 0.308348	 1.496285
C	 -3.960546	 -0.461025	 -0.060175
H	 -2.395034	 -0.026811	 -1.468912
H	 -2.024850	 -1.327147	 -0.371646
H	 -4.472726	 -1.168004	 -0.705284
H	 -4.465146	 0.496508	 -0.151489
H	 -4.081218	 -0.800940	 0.964585

	symmetry c1
}
set optking {
	frozen_dihedral = ("
		1 2 3 5
	")
}

ee = optimize('scf')
oeprop('DIPOLE', 'QUADRUPOLE', 'MULLIKEN_CHARGES')
f=open( 'psi4out.xyz', 'w' )
f.write( "20  " )
f.write( str(ee) + "\n" )
f.write( MOL.save_string_xyz() )
f.close()
--------------------------------------------------------------------------

  Memory set to   2.000 GiB by Python script.
gradient() will perform analytic gradient computation.

*** tstart() called on cx1-1-2-3.cx1.hpc.ic.ac.uk
*** at Fri Sep  2 16:20:05 2016


         ---------------------------------------------------------
                                   SCF
            by Justin Turney, Rob Parrish, and Andy Simmonett
                              RHF Reference
                        4 Threads,   2000 MiB Core
         ---------------------------------------------------------

  ==> Geometry <==

    Molecular point group: c1
    Full point group: C1

    Geometry (in Angstrom), charge = 0, multiplicity = 1:

       Center              X                  Y                   Z               Mass       
    ------------   -----------------  -----------------  -----------------  -----------------
           H          3.125818883290    -1.437441871962    -0.732238192426     1.007825032070
           O          2.831302883290    -1.154758871962     0.128055807574    15.994914619560
           C          2.083013883290    -0.063099871962    -0.029296192426    12.000000000000
           C          0.629759883290    -0.339131871962     0.258895807574    12.000000000000
           O          2.548251883290     0.979285128038    -0.357934192426    15.994914619560
           C         -0.260615116710     0.888391128038     0.078710807574    12.000000000000
           H          0.329302883290    -1.159389871962    -0.384746192426     1.007825032070
           H          0.570310883290    -0.721651871962     1.274718807574     1.007825032070
           C         -1.723411116710     0.650532128038     0.467896807574    12.000000000000
           H         -0.203857116710     1.223929128038    -0.952393192426     1.007825032070
           H          0.140345883290     1.697310128038     0.679697807574     1.007825032070
           C         -2.477173116710    -0.338613871962    -0.425630192426    12.000000000000
           H         -2.239978116710     1.607109128038     0.438224807574     1.007825032070
           H         -1.774045116710     0.312807128038     1.502079807574     1.007825032070
           C         -3.955259116710    -0.456565871962    -0.054380192426    12.000000000000
           H         -2.389747116710    -0.022351871962    -1.463117192426     1.007825032070
           H         -2.019563116710    -1.322687871962    -0.365851192426     1.007825032070
           H         -4.467439116710    -1.163544871962    -0.699489192426     1.007825032070
           H         -4.459859116710     0.500967128038    -0.145694192426     1.007825032070
           H         -4.075931116710    -0.796480871962     0.970379807574     1.007825032070

  Running in c1 symmetry.

  Rotational constants: A =      0.18821  B =      0.02443  C =      0.02267 [cm^-1]
  Rotational constants: A =   5642.49926  B =    732.38334  C =    679.53430 [MHz]
  Nuclear repulsion =  376.048884328923918

  Charge       = 0
  Multiplicity = 1
  Electrons    = 64
  Nalpha       = 32
  Nbeta        = 32

  ==> Algorithm <==

  SCF Algorithm Type is DF.
  DIIS enabled.
  MOM disabled.
  Fractional occupation disabled.
  Guess Type is CORE.
  Energy threshold   = 1.00e-08
  Density threshold  = 1.00e-08
  Integral threshold = 0.00e+00

  ==> Primary Basis <==

  Basis Set: 6-31G*
    Number of shells: 72
    Number of basis function: 144
    Number of Cartesian functions: 144
    Spherical Harmonics?: false
    Max angular momentum: 2

  ==> Pre-Iterations <==

   -------------------------------------------------------
    Irrep   Nso     Nmo     Nalpha   Nbeta   Ndocc  Nsocc
   -------------------------------------------------------
     A        144     144       0       0       0       0
   -------------------------------------------------------
    Total     144     144      32      32      32       0
   -------------------------------------------------------

 OEINTS: Overlap, kinetic, potential, dipole, and quadrupole integrals
         stored in file 35.

  ==> Integral Setup <==

  ==> DFJK: Density-Fitted J/K Matrices <==

    J tasked:                  Yes
    K tasked:                  Yes
    wK tasked:                  No
    OpenMP threads:              4
    Integrals threads:           4
    Memory (MB):              1430
    Algorithm:                Core
    Integral Cache:           NONE
    Schwarz Cutoff:          1E-12
    Fitting Condition:       1E-12

   => Auxiliary Basis Set <=

  Basis Set: 
    Number of shells: 300
    Number of basis function: 948
    Number of Cartesian functions: 948
    Spherical Harmonics?: false
    Max angular momentum: 3

  Minimum eigenvalue in the overlap matrix is 2.9179171351E-03.
  Using Symmetric Orthogonalization.
  SCF Guess: Core (One-Electron) Hamiltonian.

  ==> Iterations <==

                           Total Energy        Delta E     RMS |[F,P]|

   @DF-RHF iter   1:  -291.10373245298445   -2.91104e+02   6.25327e-02 
   @DF-RHF iter   2:   -91.43814651884998    1.99666e+02   9.54532e-02 DIIS
   @DF-RHF iter   3:  -361.62771881370725   -2.70190e+02   3.11651e-02 DIIS
   @DF-RHF iter   4:  -316.37152554611021    4.52562e+01   5.81745e-02 DIIS
   @DF-RHF iter   5:  -377.52752128688428   -6.11560e+01   2.10499e-02 DIIS
   @DF-RHF iter   6:  -383.52803613820947   -6.00051e+00   5.60666e-03 DIIS
   @DF-RHF iter   7:  -383.88131003265869   -3.53274e-01   2.02746e-03 DIIS
   @DF-RHF iter   8:  -383.92482035205717   -4.35103e-02   4.41535e-04 DIIS
   @DF-RHF iter   9:  -383.92862513197008   -3.80478e-03   1.56646e-04 DIIS
   @DF-RHF iter  10:  -383.92907407578446   -4.48944e-04   6.26706e-05 DIIS
   @DF-RHF iter  11:  -383.92913064957941   -5.65738e-05   1.87868e-05 DIIS
   @DF-RHF iter  12:  -383.92913785040025   -7.20082e-06   8.35775e-06 DIIS
   @DF-RHF iter  13:  -383.92913888945350   -1.03905e-06   2.31139e-06 DIIS
   @DF-RHF iter  14:  -383.92913903016404   -1.40711e-07   9.78973e-07 DIIS
   @DF-RHF iter  15:  -383.92913905321234   -2.30483e-08   3.07960e-07 DIIS
   @DF-RHF iter  16:  -383.92913905582179   -2.60945e-09   1.08780e-07 DIIS
   @DF-RHF iter  17:  -383.92913905612227   -3.00474e-10   2.54997e-08 DIIS
   @DF-RHF iter  18:  -383.92913905614239   -2.01226e-11   9.59104e-09 DIIS

  ==> Post-Iterations <==

    Orbital Energies (a.u.)
    -----------------------

    Doubly Occupied:                                                      

       1A    -20.599272     2A    -20.558503     3A    -11.379922  
       4A    -11.240097     5A    -11.222695     6A    -11.221809  
       7A    -11.220656     8A    -11.213452     9A     -1.469703  
      10A     -1.367499    11A     -1.096348    12A     -1.040556  
      13A     -0.959314    14A     -0.866404    15A     -0.817975  
      16A     -0.780578    17A     -0.709363    18A     -0.682710  
      19A     -0.665924    20A     -0.633107    21A     -0.618905  
      22A     -0.587590    23A     -0.560569    24A     -0.551946  
      25A     -0.535391    26A     -0.506871    27A     -0.502726  
      28A     -0.487583    29A     -0.470195    30A     -0.464868  
      31A     -0.458183    32A     -0.443127  

    Virtual:                                                              

      33A      0.172097    34A      0.214778    35A      0.231241  
      36A      0.253925    37A      0.264038    38A      0.273009  
      39A      0.312146    40A      0.316894    41A      0.329425  
      42A      0.332449    43A      0.338751    44A      0.351725  
      45A      0.357638    46A      0.408083    47A      0.419398  
      48A      0.429861    49A      0.435984    50A      0.472109  
      51A      0.531864    52A      0.566180    53A      0.701003  
      54A      0.725408    55A      0.745086    56A      0.749919  
      57A      0.756612    58A      0.780977    59A      0.796595  
      60A      0.832123    61A      0.855039    62A      0.916919  
      63A      0.941050    64A      0.955221    65A      0.967113  
      66A      0.985811    67A      0.998932    68A      1.035183  
      69A      1.062406    70A      1.105305    71A      1.111872  
      72A      1.122724    73A      1.135020    74A      1.152503  
      75A      1.160996    76A      1.181014    77A      1.191385  
      78A      1.192559    79A      1.205843    80A      1.214146  
      81A      1.234289    82A      1.238239    83A      1.243871  
      84A      1.260737    85A      1.280142    86A      1.306096  
      87A      1.331297    88A      1.366511    89A      1.410659  
      90A      1.435948    91A      1.509879    92A      1.637604  
      93A      1.680405    94A      1.690656    95A      1.738113  
      96A      1.815050    97A      1.831259    98A      1.907632  
      99A      1.935427   100A      1.957077   101A      2.010223  
     102A      2.036325   103A      2.057090   104A      2.090724  
     105A      2.112112   106A      2.146555   107A      2.178016  
     108A      2.202278   109A      2.235205   110A      2.265630  
     111A      2.268923   112A      2.295209   113A      2.307602  
     114A      2.328207   115A      2.375083   116A      2.400810  
     117A      2.489661   118A      2.510058   119A      2.596696  
     120A      2.623153   121A      2.669202   122A      2.705777  
     123A      2.742436   124A      2.746527   125A      2.765559  
     126A      2.807766   127A      2.818995   128A      2.915042  
     129A      2.943820   130A      3.036831   131A      3.054655  
     132A      3.124459   133A      3.159961   134A      3.280011  
     135A      3.387336   136A      3.502966   137A      4.247242  
     138A      4.519795   139A      4.557142   140A      4.646625  
     141A      4.755846   142A      4.821930   143A      4.911182  
     144A      5.006220  

    Final Occupation by Irrep:
              A 
    DOCC [    32 ]

  Energy converged.

  @DF-RHF Final Energy:  -383.92913905614239

   => Energetics <=

    Nuclear Repulsion Energy =            376.0488843289239185
    One-Electron Energy =               -1268.0883639968728858
    Two-Electron Energy =                 508.1103406118068051
    DFT Exchange-Correlation Energy =       0.0000000000000000
    Empirical Dispersion Energy =           0.0000000000000000
    PCM Polarization Energy =               0.0000000000000000
    EFP Energy =                            0.0000000000000000
    Total Energy =                       -383.9291390561421622

    Alert: EFP and PCM quantities not currently incorporated into SCF psivars.

Properties will be evaluated at   0.000000,   0.000000,   0.000000 Bohr
  ==> Properties <==


Properties computed using the SCF density matrix

  Nuclear Dipole Moment: (a.u.)
     X:   -16.3467      Y:    -1.2021      Z:     0.1129

  Electronic Dipole Moment: (a.u.)
     X:    15.6577      Y:     0.3629      Z:    -0.4444

  Dipole Moment: (a.u.)
     X:    -0.6891      Y:    -0.8393      Z:    -0.3316     Total:     1.1354

  Dipole Moment: (Debye)
     X:    -1.7514      Y:    -2.1332      Z:    -0.8427     Total:     2.8858


  Saving occupied orbitals to File 180.

*** tstop() called on cx1-1-2-3.cx1.hpc.ic.ac.uk at Fri Sep  2 16:20:11 2016
Module time:
	user time   =      19.24 seconds =       0.32 minutes
	system time =       0.26 seconds =       0.00 minutes
	total time  =          6 seconds =       0.10 minutes
Total time:
	user time   =      19.24 seconds =       0.32 minutes
	system time =       0.26 seconds =       0.00 minutes
	total time  =          6 seconds =       0.10 minutes

*** tstart() called on cx1-1-2-3.cx1.hpc.ic.ac.uk
*** at Fri Sep  2 16:20:11 2016


         ------------------------------------------------------------
                                   SCF GRAD                          
                          Rob Parrish, Justin Turney,                
                       Andy Simmonett, and Alex Sokolov              
         ------------------------------------------------------------

  ==> Geometry <==

    Molecular point group: c1
    Full point group: C1

    Geometry (in Angstrom), charge = 0, multiplicity = 1:

       Center              X                  Y                   Z               Mass       
    ------------   -----------------  -----------------  -----------------  -----------------
           H          3.125818883290    -1.437441871962    -0.732238192426     1.007825032070
           O          2.831302883290    -1.154758871962     0.128055807574    15.994914619560
           C          2.083013883290    -0.063099871962    -0.029296192426    12.000000000000
           C          0.629759883290    -0.339131871962     0.258895807574    12.000000000000
           O          2.548251883290     0.979285128038    -0.357934192426    15.994914619560
           C         -0.260615116710     0.888391128038     0.078710807574    12.000000000000
           H          0.329302883290    -1.159389871962    -0.384746192426     1.007825032070
           H          0.570310883290    -0.721651871962     1.274718807574     1.007825032070
           C         -1.723411116710     0.650532128038     0.467896807574    12.000000000000
           H         -0.203857116710     1.223929128038    -0.952393192426     1.007825032070
           H          0.140345883290     1.697310128038     0.679697807574     1.007825032070
           C         -2.477173116710    -0.338613871962    -0.425630192426    12.000000000000
           H         -2.239978116710     1.607109128038     0.438224807574     1.007825032070
           H         -1.774045116710     0.312807128038     1.502079807574     1.007825032070
           C         -3.955259116710    -0.456565871962    -0.054380192426    12.000000000000
           H         -2.389747116710    -0.022351871962    -1.463117192426     1.007825032070
           H         -2.019563116710    -1.322687871962    -0.365851192426     1.007825032070
           H         -4.467439116710    -1.163544871962    -0.699489192426     1.007825032070
           H         -4.459859116710     0.500967128038    -0.145694192426     1.007825032070
           H         -4.075931116710    -0.796480871962     0.970379807574     1.007825032070

  Nuclear repulsion =  376.048884328923918

  ==> Basis Set <==

  Basis Set: 6-31G*
    Number of shells: 72
    Number of basis function: 144
    Number of Cartesian functions: 144
    Spherical Harmonics?: false
    Max angular momentum: 2

  ==> DFJKGrad: Density-Fitted SCF Gradients <==

    Gradient:                    1
    J tasked:                  Yes
    K tasked:                  Yes
    wK tasked:                  No
    OpenMP threads:              4
    Integrals threads:           4
    Memory (MB):              1430
    Schwarz Cutoff:          0E+00
    Fitting Condition:       1E-12

   => Auxiliary Basis Set <=

  Basis Set: 
    Number of shells: 300
    Number of basis function: 948
    Number of Cartesian functions: 948
    Spherical Harmonics?: false
    Max angular momentum: 3


  -Total Gradient:
     Atom            X                  Y                   Z
    ------   -----------------  -----------------  -----------------
       1       -0.010010039280    -0.001002844036    -0.004746402708
       2       -0.006868607133     0.023021518037     0.006108823118
       3        0.007443025618    -0.024010436697     0.001766267580
       4        0.001381708419    -0.008402083857    -0.002670636395
       5        0.006766495612     0.008707680380    -0.000005138927
       6        0.001479688521     0.001126744726    -0.000842199240
       7       -0.000477609113     0.000410635763     0.000211889953
       8        0.000000363947     0.000720977151    -0.000091880750
       9        0.000170053829    -0.000606113223     0.000120776686
      10        0.000038174604    -0.000111743078     0.000170740482
      11       -0.000130861541     0.000101642731    -0.000021455503
      12        0.000035195055    -0.000136476435    -0.000114936689
      13        0.000209548977     0.000056263778    -0.000029517604
      14       -0.000045776235    -0.000004170890     0.000046997692
      15        0.000018630430     0.000052138671     0.000033454217
      16        0.000027221084    -0.000036796996     0.000075268912
      17       -0.000019374924     0.000097709272    -0.000040172537
      18        0.000037904864     0.000012312535     0.000002565031
      19       -0.000034538274     0.000017553652     0.000001320329
      20       -0.000021204474    -0.000014511482     0.000024236355


*** tstop() called on cx1-1-2-3.cx1.hpc.ic.ac.uk at Fri Sep  2 16:20:18 2016
Module time:
	user time   =      24.25 seconds =       0.40 minutes
	system time =       0.21 seconds =       0.00 minutes
	total time  =          7 seconds =       0.12 minutes
Total time:
	user time   =      43.51 seconds =       0.73 minutes
	system time =       0.47 seconds =       0.01 minutes
	total time  =         13 seconds =       0.22 minutes
CURRENT ENERGY: -383.9291390561

			-----------------------------------------
			 OPTKING 2.0: for geometry optimizations 
			  - R.A. King,  Bethel University        
			-----------------------------------------

	Internal coordinates to be generated automatically.
	Detected frag with atoms:  1 2 3 4 5 6 7 8 9 10 11 12 13 14 15 16 17 18 19 20
	---Fragment 1 Bond Connectivity---
	 1 : 2
	 2 : 1 3
	 3 : 2 4 5
	 4 : 3 6 7 8
	 5 : 3
	 6 : 4 9 10 11
	 7 : 4
	 8 : 4
	 9 : 6 12 13 14
	 10 : 6
	 11 : 6
	 12 : 9 15 16 17
	 13 : 9
	 14 : 9
	 15 : 12 18 19 20
	 16 : 12
	 17 : 12
	 18 : 15
	 19 : 15
	 20 : 15

	Assuming in current code that numbering for constraints corresponds to unified fragment.
	Frozen dihedral atom list: 
	     1     2     3     5
	---Fragment 1 Geometry and Gradient---
	 H           5.9069416304       -2.7163714700       -1.3837296477
	 O           5.3503870487       -2.1821780175        0.2419904060
	 C           3.9363257704       -0.1192414770       -0.0553617804
	 C           1.1900737089       -0.6408663609        0.4892421733
	 O           4.8154981770        1.8505806980       -0.6763975973
	 C          -0.4924911967        1.6788159309        0.1487418700
	 H           0.6222922642       -2.1909293392       -0.7270649344
	 H           1.0777313800       -1.3637244013        2.4088694428
	 C          -3.2567750250        1.2293275626        0.8841968248
	 H          -0.3852341208        2.3128908581       -1.7997623045
	 H           0.2652152833        3.2074513046        1.2844427094
	 C          -4.6811787743       -0.6398874828       -0.8043244976
	 H          -4.2329451842        3.0369961177        0.8281248710
	 H          -3.3524594180        0.5911198044        2.8385194661
	 C          -7.4743565152       -0.8627844596       -0.1027636707
	 H          -4.5159675774       -0.0422389166       -2.7648907940
	 H          -3.8164211987       -2.4995178373       -0.6913585591
	 H          -8.4422364459       -2.1987811513       -1.3218430066
	 H          -8.4279123218        0.9466906736       -0.2753221228
	 H          -7.7023935471       -1.5051307181        1.8337520812
	            -0.0100100393       -0.0010028440       -0.0047464027
	            -0.0068686071        0.0230215180        0.0061088231
	             0.0074430256       -0.0240104367        0.0017662676
	             0.0013817084       -0.0084020839       -0.0026706364
	             0.0067664956        0.0087076804       -0.0000051389
	             0.0014796885        0.0011267447       -0.0008421992
	            -0.0004776091        0.0004106358        0.0002118900
	             0.0000003639        0.0007209772       -0.0000918808
	             0.0001700538       -0.0006061132        0.0001207767
	             0.0000381746       -0.0001117431        0.0001707405
	            -0.0001308615        0.0001016427       -0.0000214555
	             0.0000351951       -0.0001364764       -0.0001149367
	             0.0002095490        0.0000562638       -0.0000295176
	            -0.0000457762       -0.0000041709        0.0000469977
	             0.0000186304        0.0000521387        0.0000334542
	             0.0000272211       -0.0000367970        0.0000752689
	            -0.0000193749        0.0000977093       -0.0000401725
	             0.0000379049        0.0000123125        0.0000025650
	            -0.0000345383        0.0000175537        0.0000013203
	            -0.0000212045       -0.0000145115        0.0000242364

	Previous optimization step data not found.  Starting new optimization.

	---Fragment 1 Intrafragment Coordinates---
	 - Coordinate -           - BOHR/RAD -       - ANG/DEG -
	 R(1,2)           =         1.799467	       0.952237
	 R(2,3)           =         2.518669	       1.332822
	 R(3,4)           =         2.847909	       1.507049
	 R(3,5)           =         2.244734	       1.187862
	 R(4,6)           =         2.885809	       1.527104
	 R(4,7)           =         2.050481	       1.085068
	 R(4,8)           =         2.054291	       1.087084
	 R(6,9)           =         2.895548	       1.532258
	 R(6,10)          =         2.051883	       1.085810
	 R(6,11)          =         2.049552	       1.084576
	 R(9,12)          =         2.893786	       1.531326
	 R(9,13)          =         2.055169	       1.087548
	 R(9,14)          =         2.058116	       1.089108
	 R(12,15)         =         2.888549	       1.528554
	 R(12,16)         =         2.056283	       1.088138
	 R(12,17)         =         2.053970	       1.086914
	 R(15,18)         =         2.051300	       1.085501
	 R(15,19)         =         2.052619	       1.086199
	 R(15,20)         =         2.052974	       1.086387
	 B(1,2,3)         =         1.886128	     108.067166
	 B(2,3,4)         =         1.948509	     111.641370
	 B(2,3,5)         =         2.131191	     122.108262
	 B(3,4,6)         =         1.974083	     113.106631
	 B(3,4,7)         =         1.867160	     106.980378
	 B(3,4,8)         =         1.871171	     107.210220
	 B(4,3,5)         =         2.203485	     126.250368
	 B(4,6,9)         =         1.984350	     113.694904
	 B(4,6,10)        =         1.907066	     109.266818
	 B(4,6,11)        =         1.895041	     108.577828
	 B(6,4,7)         =         1.956503	     112.099383
	 B(6,4,8)         =         1.940371	     111.175075
	 B(6,9,12)        =         2.006425	     114.959691
	 B(6,9,13)        =         1.885969	     108.058084
	 B(6,9,14)        =         1.911029	     109.493902
	 B(7,4,8)         =         1.847465	     105.851922
	 B(9,6,10)        =         1.916726	     109.820326
	 B(9,6,11)        =         1.904950	     109.145611
	 B(9,12,15)       =         1.965032	     112.588059
	 B(9,12,16)       =         1.906094	     109.211166
	 B(9,12,17)       =         1.923563	     110.212060
	 B(10,6,11)       =         1.850841	     106.045399
	 B(12,9,13)       =         1.894871	     108.568104
	 B(12,9,14)       =         1.908039	     109.322577
	 B(12,15,18)      =         1.941397	     111.233867
	 B(12,15,19)      =         1.939894	     111.147764
	 B(12,15,20)      =         1.939763	     111.140249
	 B(13,9,14)       =         1.851024	     106.055845
	 B(15,12,16)      =         1.908892	     109.371433
	 B(15,12,17)      =         1.900639	     108.898610
	 B(16,12,17)      =         1.856422	     106.365128
	 B(18,15,19)      =         1.880722	     107.757430
	 B(18,15,20)      =         1.880098	     107.721668
	 B(19,15,20)      =         1.879181	     107.669150
	 D(1,2,3,4)       =         1.919897	     110.001987
	*D(1,2,3,5)       =        -1.221730	     -69.999995
	 D(2,3,4,6)       =        -3.134308	    -179.582646
	 D(2,3,4,7)       =        -0.971587	     -55.667823
	 D(2,3,4,8)       =         1.003725	      57.509205
	 D(3,4,6,9)       =        -3.066819	    -175.715766
	 D(3,4,6,10)      =         1.068394	      61.214495
	 D(3,4,6,11)      =        -0.942887	     -54.023430
	 D(4,6,9,12)      =        -1.158108	     -66.354675
	 D(4,6,9,13)      =         3.006038	     172.233304
	 D(4,6,9,14)      =         0.997373	      57.145240
	 D(5,3,4,6)       =         0.007321	       0.419436
	 D(5,3,4,7)       =         2.170042	     124.334259
	 D(5,3,4,8)       =        -2.137831	    -122.488714
	 D(6,9,12,15)     =        -3.066987	    -175.725421
	 D(6,9,12,16)     =        -0.943009	     -54.030450
	 D(6,9,12,17)     =         1.090349	      62.472417
	 D(7,4,6,9)       =         1.103463	      63.223798
	 D(7,4,6,10)      =        -1.044509	     -59.845940
	 D(7,4,6,11)      =        -3.055790	    -175.083865
	 D(8,4,6,9)       =        -0.960535	     -55.034625
	 D(8,4,6,10)      =        -3.108508	    -178.104363
	 D(8,4,6,11)      =         1.163397	      66.657712
	 D(9,12,15,18)    =        -3.139916	    -179.903948
	 D(9,12,15,19)    =         1.047567	      60.021145
	 D(9,12,15,20)    =        -1.045092	     -59.879360
	 D(10,6,9,12)     =         0.984567	      56.411557
	 D(10,6,9,13)     =        -1.134472	     -65.000464
	 D(10,6,9,14)     =         3.140048	     179.911472
	 D(11,6,9,12)     =         3.006663	     172.269099
	 D(11,6,9,13)     =         0.887623	      50.857078
	 D(11,6,9,14)     =        -1.121042	     -64.230986
	 D(13,9,12,15)    =        -0.952798	     -54.591326
	 D(13,9,12,16)    =         1.171180	      67.103645
	 D(13,9,12,17)    =        -3.078647	    -176.393488
	 D(14,9,12,15)    =         1.059129	      60.683626
	 D(14,9,12,16)    =        -3.100078	    -177.621403
	 D(14,9,12,17)    =        -1.066720	     -61.118536
	 D(16,12,15,18)   =         1.020880	      58.492089
	 D(16,12,15,19)   =        -1.074823	     -61.582817
	 D(16,12,15,20)   =         3.115704	     178.516677
	 D(17,12,15,18)   =        -1.001123	     -57.360128
	 D(17,12,15,19)   =        -3.096826	    -177.435035
	 D(17,12,15,20)   =         1.093701	      62.664460

	Current energy   :      -383.9291390561

	Generating empirical Hessian (Schlegel '84) for each fragment.
	Taking RFO optimization step.
	Going to follow RFO solution 1.
	Using RFO vector 1.
	Norm of target step-size    0.49713
	Projected energy change by RFO approximation:        -0.0065166175

	Back-transformation to cartesian coordinates...
	Successfully converged to displaced geometry.

	Back-transformation to cartesian coordinates to adjust frozen coordinates...
	Successfully converged to displaced geometry.

	--- Internal Coordinate Step in ANG or DEG, aJ/ANG or AJ/DEG ---
	 ---------------------------------------------------------------------------
	   Coordinate                Previous        Force       Change         New 
	   ----------                --------       ------       ------       ------
	    1 R(1,2)          =      0.952237    -0.012274    -0.001365     0.950872
	    2 R(2,3)          =      1.332822     0.225328     0.024358     1.357181
	    3 R(3,4)          =      1.507049     0.015992     0.003188     1.510237
	    4 R(3,5)          =      1.187862    -0.084800    -0.004875     1.182987
	    5 R(4,6)          =      1.527104     0.004247     0.000901     1.528006
	    6 R(4,7)          =      1.085068     0.002503     0.000447     1.085515
	    7 R(4,8)          =      1.087084     0.002798     0.000503     1.087587
	    8 R(6,9)          =      1.532258     0.002000     0.000431     1.532690
	    9 R(6,10)         =      1.085810     0.001604     0.000287     1.086097
	   10 R(6,11)         =      1.084576    -0.000128    -0.000023     1.084553
	   11 R(9,12)         =      1.531326     0.000047     0.000010     1.531336
	   12 R(9,13)         =      1.087548     0.000406     0.000073     1.087621
	   13 R(9,14)         =      1.089108    -0.000396    -0.000072     1.089037
	   14 R(12,15)        =      1.528554    -0.000074    -0.000016     1.528538
	   15 R(12,16)        =      1.088138     0.000661     0.000119     1.088257
	   16 R(12,17)        =      1.086914     0.000814     0.000146     1.087060
	   17 R(15,18)        =      1.085501     0.000226     0.000040     1.085542
	   18 R(15,19)        =      1.086199    -0.000259    -0.000046     1.086153
	   19 R(15,20)        =      1.086387    -0.000245    -0.000044     1.086343
	   20 B(1,2,3)        =    108.067166     0.000838     3.809166   111.876333
	   21 B(2,3,4)        =    111.641370     0.000529     0.744408   112.385777
	   22 B(2,3,5)        =    122.108262    -0.000049    -1.006230   121.102032
	   23 B(3,4,6)        =    113.106631     0.000227     0.848077   113.954708
	   24 B(3,4,7)        =    106.980378    -0.000117    -0.492581   106.487797
	   25 B(3,4,8)        =    107.210220    -0.000071    -0.144844   107.065375
	   26 B(4,3,5)        =    126.250368    -0.000480    -2.200737   124.049631
	   27 B(4,6,9)        =    113.694904     0.000075     0.274018   113.968922
	   28 B(4,6,10)       =    109.266818    -0.000017    -0.015714   109.251104
	   29 B(4,6,11)       =    108.577828    -0.000033    -0.148436   108.429391
	   30 B(6,4,7)        =    112.099383    -0.000018     0.038620   112.138002
	   31 B(6,4,8)        =    111.175075    -0.000049    -0.053221   111.121854
	   32 B(6,9,12)       =    114.959691    -0.000004    -0.011730   114.947962
	   33 B(6,9,13)       =    108.058084     0.000015     0.122825   108.180909
	   34 B(6,9,14)       =    109.493902    -0.000004    -0.046398   109.447504
	   35 B(7,4,8)        =    105.851922     0.000011    -0.293387   105.558535
	   36 B(9,6,10)       =    109.820326    -0.000027    -0.064309   109.756018
	   37 B(9,6,11)       =    109.145611    -0.000014    -0.029567   109.116043
	   38 B(9,12,15)      =    112.588059     0.000007     0.022660   112.610719
	   39 B(9,12,16)      =    109.211166    -0.000001     0.004560   109.215727
	   40 B(9,12,17)      =    110.212060    -0.000002    -0.007862   110.204198
	   41 B(10,6,11)      =    106.045399     0.000012    -0.038490   106.006908
	   42 B(12,9,13)      =    108.568104    -0.000008    -0.032003   108.536101
	   43 B(12,9,14)      =    109.322577     0.000003    -0.022335   109.300241
	   44 B(12,15,18)     =    111.233867     0.000004     0.022846   111.256712
	   45 B(12,15,19)     =    111.147764    -0.000003    -0.015294   111.132470
	   46 B(12,15,20)     =    111.140249    -0.000002    -0.011425   111.128824
	   47 B(13,9,14)      =    106.055845    -0.000001    -0.008378   106.047467
	   48 B(15,12,16)     =    109.371433    -0.000003    -0.013868   109.357565
	   49 B(15,12,17)     =    108.898610    -0.000003    -0.020221   108.878389
	   50 B(16,12,17)     =    106.365128     0.000002     0.014152   106.379280
	   51 B(18,15,19)     =    107.757430    -0.000000     0.001536   107.758965
	   52 B(18,15,20)     =    107.721668    -0.000000     0.002734   107.724402
	   53 B(19,15,20)     =    107.669150     0.000002    -0.000205   107.668945
	   54 D(1,2,3,4)      =    110.001987     0.000070    17.118512   127.120499
	   55 *D(1,2,3,5)     =    -69.999995    -0.000000    -0.000000   -69.999995
	   56 D(2,3,4,6)      =   -179.582646    -0.000041   -10.179046  -189.761692
	   57 D(2,3,4,7)      =    -55.667823    -0.000032    -9.931585   -65.599408
	   58 D(2,3,4,8)      =     57.509205    -0.000049   -10.559918    46.949286
	   59 D(3,4,6,9)      =   -175.715766    -0.000003    -0.077366  -175.793132
	   60 D(3,4,6,10)     =     61.214495    -0.000004    -0.175102    61.039393
	   61 D(3,4,6,11)     =    -54.023430    -0.000001    -0.040403   -54.063833
	   62 D(4,6,9,12)     =    -66.354675    -0.000001     0.034706   -66.319969
	   63 D(4,6,9,13)     =    172.233304    -0.000000    -0.007744   172.225560
	   64 D(4,6,9,14)     =     57.145240    -0.000001    -0.040153    57.105087
	   65 D(5,3,4,6)      =      0.419436     0.000032     7.530263     7.949698
	   66 D(5,3,4,7)      =    124.334259     0.000042     7.777724   132.111982
	   67 D(5,3,4,8)      =   -122.488714     0.000024     7.149390  -115.339324
	   68 D(6,9,12,15)    =   -175.725421    -0.000001    -0.082451  -175.807873
	   69 D(6,9,12,16)    =    -54.030450    -0.000001    -0.081771   -54.112221
	   70 D(6,9,12,17)    =     62.472417    -0.000001    -0.066486    62.405932
	   71 D(7,4,6,9)      =     63.223798    -0.000003    -0.082942    63.140856
	   72 D(7,4,6,10)     =    -59.845940    -0.000004    -0.180678   -60.026618
	   73 D(7,4,6,11)     =   -175.083865    -0.000001    -0.045980  -175.129845
	   74 D(8,4,6,9)      =    -55.034625     0.000005     0.297707   -54.736918
	   75 D(8,4,6,10)     =   -178.104363     0.000003     0.199971  -177.904392
	   76 D(8,4,6,11)     =     66.657712     0.000006     0.334670    66.992381
	   77 D(9,12,15,18)   =   -179.903948     0.000000     0.010009  -179.893939
	   78 D(9,12,15,19)   =     60.021145    -0.000000     0.003009    60.024155
	   79 D(9,12,15,20)   =    -59.879360     0.000000     0.021121   -59.858239
	   80 D(10,6,9,12)    =     56.411557     0.000002     0.160880    56.572438
	   81 D(10,6,9,13)    =    -65.000464     0.000002     0.118431   -64.882033
	   82 D(10,6,9,14)    =    179.911472     0.000001     0.086022   179.997493
	   83 D(11,6,9,12)    =    172.269099    -0.000000     0.061911   172.331010
	   84 D(11,6,9,13)    =     50.857078     0.000000     0.019462    50.876540
	   85 D(11,6,9,14)    =    -64.230986    -0.000001    -0.012948   -64.243934
	   86 D(13,9,12,15)   =    -54.591326     0.000001     0.044500   -54.546827
	   87 D(13,9,12,16)   =     67.103645     0.000001     0.045180    67.148825
	   88 D(13,9,12,17)   =   -176.393488     0.000001     0.060465  -176.333023
	   89 D(14,9,12,15)   =     60.683626     0.000000     0.005103    60.688728
	   90 D(14,9,12,16)   =   -177.621403    -0.000000     0.005783  -177.615620
	   91 D(14,9,12,17)   =    -61.118536     0.000000     0.021069   -61.097467
	   92 D(16,12,15,18)  =     58.492089    -0.000000    -0.001175    58.490915
	   93 D(16,12,15,19)  =    -61.582817    -0.000000    -0.008175   -61.590992
	   94 D(16,12,15,20)  =    178.516677     0.000000     0.009937   178.526614
	   95 D(17,12,15,18)  =    -57.360128     0.000000     0.000806   -57.359322
	   96 D(17,12,15,19)  =   -177.435035    -0.000000    -0.006194  -177.441229
	   97 D(17,12,15,20)  =     62.664460     0.000000     0.011918    62.676377
	 ---------------------------------------------------------------------------

  ==> Convergence Check <==

  Measures of convergence in internal coordinates in au.
  Criteria marked as inactive (o), active & met (*), and active & unmet ( ).
  --------------------------------------------------------------------------------------------- ~
   Step     Total Energy     Delta E     MAX Force     RMS Force      MAX Disp      RMS Disp    ~
  --------------------------------------------------------------------------------------------- ~
    Convergence Criteria    1.00e-06 *    3.00e-04 *             o    1.20e-03 *             o  ~
  --------------------------------------------------------------------------------------------- ~
      1    -383.92913906   -3.84e+02      2.73e-02      3.41e-03 o    2.99e-01      5.03e-02 o  ~
  ---------------------------------------------------------------------------------------------

	Writing optimization data to binary file.
	Structure for next step:
	Cartesian Geometry (in Angstrom)
	    H     3.4086584436  -1.4236775592  -0.5317954798
	    O     2.8664783685  -1.1456731268   0.1982124587
	    C     2.0721380750  -0.0961781789  -0.1327315066
	    C     0.6178692005  -0.3535421884   0.1829903207
	    O     2.5279888260   0.9782921628  -0.3255342698
	    C    -0.2740684989   0.8796985768   0.0474709438
	    H     0.2997181911  -1.1619956351  -0.4677986669
	    H     0.5769840974  -0.7578433863   1.1918089797
	    C    -1.7297715227   0.6442498434   0.4653582427
	    H    -0.2395079431   1.2356881489  -0.9780452847
	    H     0.1455114570   1.6746593155   0.6543035298
	    C    -2.5097257589  -0.3242842570  -0.4282869690
	    H    -2.2422317033   1.6035751678   0.4653878470
	    H    -1.7585717349   0.2875263722   1.4939103827
	    C    -3.9795605127  -0.4414889712  -0.0254489490
	    H    -2.4445307105   0.0104481222  -1.4617316623
	    H    -2.0565613238  -1.3118820997  -0.3967777432
	    H    -4.5105969780  -1.1339130270  -0.6711659160
	    H    -4.4805466185   0.5202072746  -0.0877507547
	    H    -4.0784460466  -0.7992550790   0.9955146627
			--------------------------
			 OPTKING Finished Execution 
			--------------------------

    Structure for next step:
    Molecular point group: c1
    Full point group: C1

    Geometry (in Angstrom), charge = 0, multiplicity = 1:

    H            3.416148525189    -1.421592054357    -0.527343430967
    O            2.873968491502    -1.143587643168     0.202664451719
    C            2.079628258687    -0.094092775491    -0.128279488290
    C            0.625359495170    -0.351456765278     0.187442314922
    O            2.535478974886     0.980377484195    -0.321082236804
    C           -0.266578136058     0.881783905685     0.051922948387
    H            0.307208510143    -1.159910150255    -0.463346623006
    H            0.584474395214    -0.755757932358     1.196260896890
    C           -1.722281048721     0.646335190294     0.469810215309
    H           -0.232017582879     1.237773450624    -0.973593201823
    H            0.153001787762     1.676744583731     0.658755488033
    C           -2.502235225337    -0.322198836117    -0.423834928117
    H           -2.234741190138     1.605660441456     0.469839819671
    H           -1.751081258688     0.289611746335     1.498362276768
    C           -3.972069866864    -0.439403541432    -0.020996938911
    H           -2.437040181961     0.012533517513    -1.457279542509
    H           -2.049070824885    -1.309796603437    -0.392325704719
    H           -4.503106291613    -1.131827544287    -0.666713856546
    H           -4.473055934417     0.522292630979    -0.083298739846
    H           -4.070955393303    -0.797169621846     0.999966594883

gradient() will perform analytic gradient computation.

*** tstart() called on cx1-1-2-3.cx1.hpc.ic.ac.uk
*** at Fri Sep  2 16:20:19 2016


         ---------------------------------------------------------
                                   SCF
            by Justin Turney, Rob Parrish, and Andy Simmonett
                              RHF Reference
                        4 Threads,   2000 MiB Core
         ---------------------------------------------------------

  ==> Geometry <==

    Molecular point group: c1
    Full point group: C1

    Geometry (in Angstrom), charge = 0, multiplicity = 1:

       Center              X                  Y                   Z               Mass       
    ------------   -----------------  -----------------  -----------------  -----------------
           H          3.416148525189    -1.421592054357    -0.527343430967     1.007825032070
           O          2.873968491502    -1.143587643168     0.202664451719    15.994914619560
           C          2.079628258687    -0.094092775491    -0.128279488290    12.000000000000
           C          0.625359495170    -0.351456765278     0.187442314922    12.000000000000
           O          2.535478974886     0.980377484195    -0.321082236804    15.994914619560
           C         -0.266578136058     0.881783905685     0.051922948387    12.000000000000
           H          0.307208510143    -1.159910150255    -0.463346623006     1.007825032070
           H          0.584474395214    -0.755757932358     1.196260896890     1.007825032070
           C         -1.722281048721     0.646335190294     0.469810215309    12.000000000000
           H         -0.232017582879     1.237773450624    -0.973593201823     1.007825032070
           H          0.153001787762     1.676744583731     0.658755488033     1.007825032070
           C         -2.502235225337    -0.322198836117    -0.423834928117    12.000000000000
           H         -2.234741190138     1.605660441456     0.469839819671     1.007825032070
           H         -1.751081258688     0.289611746335     1.498362276768     1.007825032070
           C         -3.972069866864    -0.439403541432    -0.020996938911    12.000000000000
           H         -2.437040181961     0.012533517513    -1.457279542509     1.007825032070
           H         -2.049070824885    -1.309796603437    -0.392325704719     1.007825032070
           H         -4.503106291613    -1.131827544287    -0.666713856546     1.007825032070
           H         -4.473055934417     0.522292630979    -0.083298739846     1.007825032070
           H         -4.070955393303    -0.797169621846     0.999966594883     1.007825032070

  Running in c1 symmetry.

  Rotational constants: A =      0.19146  B =      0.02416  C =      0.02244 [cm^-1]
  Rotational constants: A =   5739.74392  B =    724.35852  C =    672.78958 [MHz]
  Nuclear repulsion =  375.035914912661724

  Charge       = 0
  Multiplicity = 1
  Electrons    = 64
  Nalpha       = 32
  Nbeta        = 32

  ==> Algorithm <==

  SCF Algorithm Type is DF.
  DIIS enabled.
  MOM disabled.
  Fractional occupation disabled.
  Guess Type is READ.
  Energy threshold   = 1.00e-08
  Density threshold  = 1.00e-08
  Integral threshold = 0.00e+00

  ==> Primary Basis <==

  Basis Set: 6-31G*
    Number of shells: 72
    Number of basis function: 144
    Number of Cartesian functions: 144
    Spherical Harmonics?: false
    Max angular momentum: 2

  ==> Pre-Iterations <==

   -------------------------------------------------------
    Irrep   Nso     Nmo     Nalpha   Nbeta   Ndocc  Nsocc
   -------------------------------------------------------
     A        144     144       0       0       0       0
   -------------------------------------------------------
    Total     144     144      32      32      32       0
   -------------------------------------------------------

 OEINTS: Overlap, kinetic, potential, dipole, and quadrupole integrals
         stored in file 35.

  ==> Integral Setup <==

  ==> DFJK: Density-Fitted J/K Matrices <==

    J tasked:                  Yes
    K tasked:                  Yes
    wK tasked:                  No
    OpenMP threads:              4
    Integrals threads:           4
    Memory (MB):              1430
    Algorithm:                Core
    Integral Cache:           NONE
    Schwarz Cutoff:          1E-12
    Fitting Condition:       1E-12

   => Auxiliary Basis Set <=

  Basis Set: 
    Number of shells: 300
    Number of basis function: 948
    Number of Cartesian functions: 948
    Spherical Harmonics?: false
    Max angular momentum: 3

  Minimum eigenvalue in the overlap matrix is 2.9402232279E-03.
  Using Symmetric Orthogonalization.
  SCF Guess: Reading in previously saved MOs, projecting if necessary.

  Using orbitals from previous SCF, no projection.
  Recomputing DOCC and SOCC from number of alpha and beta electrons from previous calculation.
              A 
    DOCC [    32 ]

  ==> Iterations <==

                           Total Energy        Delta E     RMS |[F,P]|

   @DF-RHF iter   0:  -383.87260233914822   -3.83873e+02   2.28560e-03 
   @DF-RHF iter   1:  -383.92419663233011   -5.15943e-02   4.02890e-04 
   @DF-RHF iter   2:  -383.92711277399690   -2.91614e-03   1.59542e-04 DIIS
   @DF-RHF iter   3:  -383.92763430690115   -5.21533e-04   8.19905e-05 DIIS
   @DF-RHF iter   4:  -383.92776141350078   -1.27107e-04   2.46155e-05 DIIS
   @DF-RHF iter   5:  -383.92778015867691   -1.87452e-05   1.31353e-05 DIIS
   @DF-RHF iter   6:  -383.92778712476229   -6.96609e-06   4.64299e-06 DIIS
   @DF-RHF iter   7:  -383.92778797630649   -8.51544e-07   2.24476e-06 DIIS
   @DF-RHF iter   8:  -383.92778820391072   -2.27604e-07   7.73423e-07 DIIS
   @DF-RHF iter   9:  -383.92778823448100   -3.05703e-08   1.94762e-07 DIIS
   @DF-RHF iter  10:  -383.92778823594347   -1.46247e-09   6.42291e-08 DIIS
   @DF-RHF iter  11:  -383.92778823606227   -1.18803e-10   2.27937e-08 DIIS
   @DF-RHF iter  12:  -383.92778823608057   -1.83036e-11   8.00345e-09 DIIS

  ==> Post-Iterations <==

    Orbital Energies (a.u.)
    -----------------------

    Doubly Occupied:                                                      

       1A    -20.598446     2A    -20.558835     3A    -11.380440  
       4A    -11.239712     5A    -11.222531     6A    -11.220978  
       7A    -11.220308     8A    -11.212749     9A     -1.461519  
      10A     -1.364906    11A     -1.094846    12A     -1.039045  
      13A     -0.958618    14A     -0.866205    15A     -0.815937  
      16A     -0.778170    17A     -0.705134    18A     -0.679114  
      19A     -0.662070    20A     -0.631077    21A     -0.614288  
      22A     -0.586902    23A     -0.560057    24A     -0.548868  
      25A     -0.538958    26A     -0.509003    27A     -0.499816  
      28A     -0.484043    29A     -0.469519    30A     -0.465734  
      31A     -0.457035    32A     -0.441998  

    Virtual:                                                              

      33A      0.173180    34A      0.213363    35A      0.231182  
      36A      0.253884    37A      0.265331    38A      0.273307  
      39A      0.313473    40A      0.317326    41A      0.328144  
      42A      0.332087    43A      0.339449    44A      0.352564  
      45A      0.356755    46A      0.408442    47A      0.419134  
      48A      0.432968    49A      0.436574    50A      0.475352  
      51A      0.528783    52A      0.554662    53A      0.702973  
      54A      0.724404    55A      0.744952    56A      0.747803  
      57A      0.753633    58A      0.780501    59A      0.795284  
      60A      0.827667    61A      0.861140    62A      0.916926  
      63A      0.943345    64A      0.953392    65A      0.970643  
      66A      0.991774    67A      0.998480    68A      1.029329  
      69A      1.061543    70A      1.109086    71A      1.110275  
      72A      1.130530    73A      1.134944    74A      1.152405  
      75A      1.161708    76A      1.180419    77A      1.190082  
      78A      1.192507    79A      1.209340    80A      1.213661  
      81A      1.226812    82A      1.237251    83A      1.249538  
      84A      1.262189    85A      1.280067    86A      1.289412  
      87A      1.312036    88A      1.388079    89A      1.409980  
      90A      1.455810    91A      1.514489    92A      1.628076  
      93A      1.680844    94A      1.691711    95A      1.758817  
      96A      1.788632    97A      1.833345    98A      1.886547  
      99A      1.927121   100A      1.958418   101A      2.017823  
     102A      2.027371   103A      2.051964   104A      2.090089  
     105A      2.108602   106A      2.163979   107A      2.176302  
     108A      2.205835   109A      2.239865   110A      2.266680  
     111A      2.270905   112A      2.291679   113A      2.296793  
     114A      2.312083   115A      2.369894   116A      2.405518  
     117A      2.496589   118A      2.506903   119A      2.591711  
     120A      2.609833   121A      2.672383   122A      2.703183  
     123A      2.721506   124A      2.740364   125A      2.771260  
     126A      2.786870   127A      2.847169   128A      2.916496  
     129A      2.940798   130A      3.043225   131A      3.059298  
     132A      3.117912   133A      3.125784   134A      3.269176  
     135A      3.385860   136A      3.474734   137A      4.236040  
     138A      4.475554   139A      4.540144   140A      4.626532  
     141A      4.742657   142A      4.812827   143A      4.908789  
     144A      4.999536  

    Final Occupation by Irrep:
              A 
    DOCC [    32 ]

  Energy converged.

  @DF-RHF Final Energy:  -383.92778823608057

   => Energetics <=

    Nuclear Repulsion Energy =            375.0359149126617240
    One-Electron Energy =               -1266.1536912906299222
    Two-Electron Energy =                 507.1899881418876248
    DFT Exchange-Correlation Energy =       0.0000000000000000
    Empirical Dispersion Energy =           0.0000000000000000
    PCM Polarization Energy =               0.0000000000000000
    EFP Energy =                            0.0000000000000000
    Total Energy =                       -383.9277882360805734

    Alert: EFP and PCM quantities not currently incorporated into SCF psivars.

Properties will be evaluated at   0.000000,   0.000000,   0.000000 Bohr
  ==> Properties <==


Properties computed using the SCF density matrix

  Nuclear Dipole Moment: (a.u.)
     X:   -16.1831      Y:    -1.1552      Z:     0.2425

  Electronic Dipole Moment: (a.u.)
     X:    15.6654      Y:     0.3158      Z:    -0.6321

  Dipole Moment: (a.u.)
     X:    -0.5176      Y:    -0.8394      Z:    -0.3896     Total:     1.0603

  Dipole Moment: (Debye)
     X:    -1.3157      Y:    -2.1335      Z:    -0.9901     Total:     2.6951


  Saving occupied orbitals to File 180.

*** tstop() called on cx1-1-2-3.cx1.hpc.ic.ac.uk at Fri Sep  2 16:20:25 2016
Module time:
	user time   =      18.41 seconds =       0.31 minutes
	system time =       0.27 seconds =       0.00 minutes
	total time  =          6 seconds =       0.10 minutes
Total time:
	user time   =      63.29 seconds =       1.05 minutes
	system time =       0.80 seconds =       0.01 minutes
	total time  =         20 seconds =       0.33 minutes

*** tstart() called on cx1-1-2-3.cx1.hpc.ic.ac.uk
*** at Fri Sep  2 16:20:25 2016


         ------------------------------------------------------------
                                   SCF GRAD                          
                          Rob Parrish, Justin Turney,                
                       Andy Simmonett, and Alex Sokolov              
         ------------------------------------------------------------

  ==> Geometry <==

    Molecular point group: c1
    Full point group: C1

    Geometry (in Angstrom), charge = 0, multiplicity = 1:

       Center              X                  Y                   Z               Mass       
    ------------   -----------------  -----------------  -----------------  -----------------
           H          3.416148525189    -1.421592054357    -0.527343430967     1.007825032070
           O          2.873968491502    -1.143587643168     0.202664451719    15.994914619560
           C          2.079628258687    -0.094092775491    -0.128279488290    12.000000000000
           C          0.625359495170    -0.351456765278     0.187442314922    12.000000000000
           O          2.535478974886     0.980377484195    -0.321082236804    15.994914619560
           C         -0.266578136058     0.881783905685     0.051922948387    12.000000000000
           H          0.307208510143    -1.159910150255    -0.463346623006     1.007825032070
           H          0.584474395214    -0.755757932358     1.196260896890     1.007825032070
           C         -1.722281048721     0.646335190294     0.469810215309    12.000000000000
           H         -0.232017582879     1.237773450624    -0.973593201823     1.007825032070
           H          0.153001787762     1.676744583731     0.658755488033     1.007825032070
           C         -2.502235225337    -0.322198836117    -0.423834928117    12.000000000000
           H         -2.234741190138     1.605660441456     0.469839819671     1.007825032070
           H         -1.751081258688     0.289611746335     1.498362276768     1.007825032070
           C         -3.972069866864    -0.439403541432    -0.020996938911    12.000000000000
           H         -2.437040181961     0.012533517513    -1.457279542509     1.007825032070
           H         -2.049070824885    -1.309796603437    -0.392325704719     1.007825032070
           H         -4.503106291613    -1.131827544287    -0.666713856546     1.007825032070
           H         -4.473055934417     0.522292630979    -0.083298739846     1.007825032070
           H         -4.070955393303    -0.797169621846     0.999966594883     1.007825032070

  Nuclear repulsion =  375.035914912661724

  ==> Basis Set <==

  Basis Set: 6-31G*
    Number of shells: 72
    Number of basis function: 144
    Number of Cartesian functions: 144
    Spherical Harmonics?: false
    Max angular momentum: 2

  ==> DFJKGrad: Density-Fitted SCF Gradients <==

    Gradient:                    1
    J tasked:                  Yes
    K tasked:                  Yes
    wK tasked:                  No
    OpenMP threads:              4
    Integrals threads:           4
    Memory (MB):              1430
    Schwarz Cutoff:          0E+00
    Fitting Condition:       1E-12

   => Auxiliary Basis Set <=

  Basis Set: 
    Number of shells: 300
    Number of basis function: 948
    Number of Cartesian functions: 948
    Spherical Harmonics?: false
    Max angular momentum: 3


  -Total Gradient:
     Atom            X                  Y                   Z
    ------   -----------------  -----------------  -----------------
       1       -0.006226914384    -0.006228414667    -0.003573768890
       2        0.010295539416     0.014699121803     0.017530642992
       3       -0.004084852621    -0.018413050180    -0.048117315224
       4        0.001715365278     0.006131762098     0.011108503814
       5       -0.000486544766     0.002812616476     0.022206138423
       6       -0.001500387264    -0.000387194540     0.000694476089
       7        0.003299729924     0.000987764347    -0.000644558923
       8       -0.002556396119    -0.000396978699     0.000620510417
       9       -0.000304226114     0.000894897613     0.000040059736
      10        0.000173099549    -0.000179940483     0.000102131518
      11       -0.000032279861     0.000165200325     0.000041180655
      12        0.000038025464     0.000170884187     0.000017247469
      13       -0.000368206516    -0.000058976853     0.000042880840
      14        0.000040783939    -0.000000500975    -0.000047814435
      15       -0.000010063989    -0.000057366507    -0.000008057994
      16       -0.000011925504     0.000003920900    -0.000007927028
      17       -0.000027729451    -0.000122684286     0.000012255225
      18       -0.000015447304    -0.000007670223     0.000002414067
      19        0.000051853197    -0.000018807774    -0.000007304836
      20        0.000010577125     0.000005417436    -0.000011693914


*** tstop() called on cx1-1-2-3.cx1.hpc.ic.ac.uk at Fri Sep  2 16:20:32 2016
Module time:
	user time   =      24.64 seconds =       0.41 minutes
	system time =       0.24 seconds =       0.00 minutes
	total time  =          7 seconds =       0.12 minutes
Total time:
	user time   =      87.95 seconds =       1.47 minutes
	system time =       1.04 seconds =       0.02 minutes
	total time  =         27 seconds =       0.45 minutes
CURRENT ENERGY: -383.9277882361

			-----------------------------------------
			 OPTKING 2.0: for geometry optimizations 
			  - R.A. King,  Bethel University        
			-----------------------------------------

	Previous internal coordinate definitions found.
	---Fragment 1 Geometry and Gradient---
	 H           6.4555851419       -2.6864196554       -0.9965346625
	 O           5.4310133635       -2.1610674545        0.3829803106
	 C           3.9299278671       -0.1778095768       -0.2424131013
	 C           1.1817581805       -0.6641570339        0.3542146409
	 O           4.7913608782        1.8526449520       -0.6067574937
	 C          -0.5037596702        1.6663300901        0.0981201525
	 H           0.5805399499       -2.1919125227       -0.8755982221
	 H           1.1044965386       -1.4281755149        2.2606054786
	 C          -3.2546395059        1.2213964997        0.8878126414
	 H          -0.4384496897        2.3390528362       -1.8398245163
	 H           0.2891314767        3.1685880581        1.2448674609
	 C          -4.7285392959       -0.6088675606       -0.8009319397
	 H          -4.2230488272        3.0342584968        0.8878685855
	 H          -3.3090640153        0.5472868854        2.8314943509
	 C          -7.5061242291       -0.8303523551       -0.0396784642
	 H          -4.6053385187        0.0236849156       -2.7538592344
	 H          -3.8721826859       -2.4751568703       -0.7413881368
	 H          -8.5096376384       -2.1388440884       -1.2599065979
	 H          -8.4528506931        0.9869900338       -0.1574118055
	 H          -7.6929907925       -1.5064322667        1.8896630064
	            -0.0062269144       -0.0062284147       -0.0035737689
	             0.0102955394        0.0146991218        0.0175306430
	            -0.0040848526       -0.0184130502       -0.0481173152
	             0.0017153653        0.0061317621        0.0111085038
	            -0.0004865448        0.0028126165        0.0222061384
	            -0.0015003873       -0.0003871945        0.0006944761
	             0.0032997299        0.0009877643       -0.0006445589
	            -0.0025563961       -0.0003969787        0.0006205104
	            -0.0003042261        0.0008948976        0.0000400597
	             0.0001730995       -0.0001799405        0.0001021315
	            -0.0000322799        0.0001652003        0.0000411807
	             0.0000380255        0.0001708842        0.0000172475
	            -0.0003682065       -0.0000589769        0.0000428808
	             0.0000407839       -0.0000005010       -0.0000478144
	            -0.0000100640       -0.0000573665       -0.0000080580
	            -0.0000119255        0.0000039209       -0.0000079270
	            -0.0000277295       -0.0001226843        0.0000122552
	            -0.0000154473       -0.0000076702        0.0000024141
	             0.0000518532       -0.0000188078       -0.0000073048
	             0.0000105771        0.0000054174       -0.0000116939

	---Fragment 1 Intrafragment Coordinates---
	 - Coordinate -           - BOHR/RAD -       - ANG/DEG -
	 R(1,2)           =         1.796887	       0.950872
	 R(2,3)           =         2.564700	       1.357181
	 R(3,4)           =         2.853933	       1.510237
	 R(3,5)           =         2.235522	       1.182987
	 R(4,6)           =         2.887512	       1.528006
	 R(4,7)           =         2.051326	       1.085515
	 R(4,8)           =         2.055242	       1.087587
	 R(6,9)           =         2.896363	       1.532690
	 R(6,10)          =         2.052426	       1.086097
	 R(6,11)          =         2.049508	       1.084553
	 R(9,12)          =         2.893805	       1.531336
	 R(9,13)          =         2.055307	       1.087621
	 R(9,14)          =         2.057981	       1.089037
	 R(12,15)         =         2.888519	       1.528538
	 R(12,16)         =         2.056508	       1.088257
	 R(12,17)         =         2.054246	       1.087060
	 R(15,18)         =         2.051377	       1.085542
	 R(15,19)         =         2.052531	       1.086153
	 R(15,20)         =         2.052891	       1.086343
	 B(1,2,3)         =         1.952610	     111.876333
	 B(2,3,4)         =         1.961502	     112.385777
	 B(2,3,5)         =         2.113629	     121.102032
	 B(3,4,6)         =         1.988885	     113.954708
	 B(3,4,7)         =         1.858563	     106.487797
	 B(3,4,8)         =         1.868643	     107.065375
	 B(4,3,5)         =         2.165074	     124.049631
	 B(4,6,9)         =         1.989133	     113.968922
	 B(4,6,10)        =         1.906791	     109.251104
	 B(4,6,11)        =         1.892450	     108.429391
	 B(6,4,7)         =         1.957177	     112.138002
	 B(6,4,8)         =         1.939442	     111.121854
	 B(6,9,12)        =         2.006220	     114.947962
	 B(6,9,13)        =         1.888113	     108.180909
	 B(6,9,14)        =         1.910219	     109.447504
	 B(7,4,8)         =         1.842344	     105.558535
	 B(9,6,10)        =         1.915604	     109.756018
	 B(9,6,11)        =         1.904434	     109.116043
	 B(9,12,15)       =         1.965428	     112.610719
	 B(9,12,16)       =         1.906174	     109.215727
	 B(9,12,17)       =         1.923426	     110.204198
	 B(10,6,11)       =         1.850170	     106.006908
	 B(12,9,13)       =         1.894312	     108.536101
	 B(12,9,14)       =         1.907649	     109.300241
	 B(12,15,18)      =         1.941796	     111.256712
	 B(12,15,19)      =         1.939628	     111.132470
	 B(12,15,20)      =         1.939564	     111.128824
	 B(13,9,14)       =         1.850877	     106.047467
	 B(15,12,16)      =         1.908650	     109.357565
	 B(15,12,17)      =         1.900286	     108.878389
	 B(16,12,17)      =         1.856669	     106.379280
	 B(18,15,19)      =         1.880749	     107.758965
	 B(18,15,20)      =         1.880146	     107.724402
	 B(19,15,20)      =         1.879178	     107.668945
	 D(1,2,3,4)       =         2.218671	     127.120499
	*D(1,2,3,5)       =        -1.221730	     -69.999995
	 D(2,3,4,6)       =         2.971219	     170.238308
	 D(2,3,4,7)       =        -1.144926	     -65.599408
	 D(2,3,4,8)       =         0.819420	      46.949286
	 D(3,4,6,9)       =        -3.068169	    -175.793132
	 D(3,4,6,10)      =         1.065338	      61.039393
	 D(3,4,6,11)      =        -0.943592	     -54.063833
	 D(4,6,9,12)      =        -1.157502	     -66.319969
	 D(4,6,9,13)      =         3.005903	     172.225560
	 D(4,6,9,14)      =         0.996672	      57.105087
	 D(5,3,4,6)       =         0.138748	       7.949698
	 D(5,3,4,7)       =         2.305789	     132.111982
	 D(5,3,4,8)       =        -2.013051	    -115.339324
	 D(6,9,12,15)     =        -3.068426	    -175.807873
	 D(6,9,12,16)     =        -0.944436	     -54.112221
	 D(6,9,12,17)     =         1.089189	      62.405932
	 D(7,4,6,9)       =         1.102016	      63.140856
	 D(7,4,6,10)      =        -1.047662	     -60.026618
	 D(7,4,6,11)      =        -3.056592	    -175.129845
	 D(8,4,6,9)       =        -0.955339	     -54.736918
	 D(8,4,6,10)      =        -3.105017	    -177.904392
	 D(8,4,6,11)      =         1.169238	      66.992381
	 D(9,12,15,18)    =        -3.139742	    -179.893939
	 D(9,12,15,19)    =         1.047619	      60.024155
	 D(9,12,15,20)    =        -1.044723	     -59.858239
	 D(10,6,9,12)     =         0.987375	      56.572438
	 D(10,6,9,13)     =        -1.132405	     -64.882033
	 D(10,6,9,14)     =         3.141549	     179.997493
	 D(11,6,9,12)     =         3.007744	     172.331010
	 D(11,6,9,13)     =         0.887963	      50.876540
	 D(11,6,9,14)     =        -1.121268	     -64.243934
	 D(13,9,12,15)    =        -0.952022	     -54.546827
	 D(13,9,12,16)    =         1.171968	      67.148825
	 D(13,9,12,17)    =        -3.077592	    -176.333023
	 D(14,9,12,15)    =         1.059218	      60.688728
	 D(14,9,12,16)    =        -3.099977	    -177.615620
	 D(14,9,12,17)    =        -1.066352	     -61.097467
	 D(16,12,15,18)   =         1.020859	      58.490915
	 D(16,12,15,19)   =        -1.074966	     -61.590992
	 D(16,12,15,20)   =         3.115877	     178.526614
	 D(17,12,15,18)   =        -1.001109	     -57.359322
	 D(17,12,15,19)   =        -3.096934	    -177.441229
	 D(17,12,15,20)   =         1.093909	      62.676377

	Current energy   :      -383.9277882361

	Energy change for the previous step:
		Projected    :        -0.0065166175
		Actual       :         0.0013508201

	Performing BFGS update.
	Previous computed or guess Hessian on step 1.
	Steps to be used in Hessian update: 1
	Taking RFO optimization step.
	Going to follow RFO solution 1.
	Using RFO vector 1.
	Norm of target step-size    0.35911
	Projected energy change by RFO approximation:        -0.0286154356

	Back-transformation to cartesian coordinates...
	Successfully converged to displaced geometry.

	Back-transformation to cartesian coordinates to adjust frozen coordinates...
	Successfully converged to displaced geometry.

	--- Internal Coordinate Step in ANG or DEG, aJ/ANG or AJ/DEG ---
	 ---------------------------------------------------------------------------
	   Coordinate                Previous        Force       Change         New 
	   ----------                --------       ------       ------       ------
	    1 R(1,2)          =      0.950872    -0.008355    -0.001058     0.949814
	    2 R(2,3)          =      1.357181     0.006308     0.011332     1.368513
	    3 R(3,4)          =      1.510237    -0.006591     0.000819     1.511055
	    4 R(3,5)          =      1.182987     0.010315    -0.001921     1.181067
	    5 R(4,6)          =      1.528006    -0.011478    -0.000747     1.527258
	    6 R(4,7)          =      1.085515     0.010845     0.001121     1.086636
	    7 R(4,8)          =      1.087587    -0.006750    -0.000348     1.087239
	    8 R(6,9)          =      1.532690    -0.003714    -0.000185     1.532505
	    9 R(6,10)         =      1.086097     0.001235     0.000235     1.086332
	   10 R(6,11)         =      1.084553    -0.001085    -0.000102     1.084451
	   11 R(9,12)         =      1.531336    -0.000004     0.000004     1.531340
	   12 R(9,13)         =      1.087621    -0.001001    -0.000052     1.087569
	   13 R(9,14)         =      1.089037     0.000380     0.000000     1.089037
	   14 R(12,15)        =      1.528538     0.000296     0.000023     1.528561
	   15 R(12,16)        =      1.088257    -0.000066     0.000048     1.088306
	   16 R(12,17)        =      1.087060    -0.000826    -0.000004     1.087056
	   17 R(15,18)        =      1.085542    -0.000091     0.000011     1.085552
	   18 R(15,19)        =      1.086153     0.000331     0.000007     1.086160
	   19 R(15,20)        =      1.086343     0.000113    -0.000010     1.086333
	   20 B(1,2,3)        =    111.876333     0.000011     1.749692   113.626025
	   21 B(2,3,4)        =    112.385777    -0.000312     0.928914   113.314692
	   22 B(2,3,5)        =    121.102032     0.000255     0.950664   122.052696
	   23 B(3,4,6)        =    113.954708    -0.000165     0.119923   114.074631
	   24 B(3,4,7)        =    106.487797     0.000283     0.751709   107.239505
	   25 B(3,4,8)        =    107.065375    -0.000145    -0.793446   106.271930
	   26 B(4,3,5)        =    124.049631     0.000281     0.410642   124.460273
	   27 B(4,6,9)        =    113.968922    -0.000096    -0.041749   113.927174
	   28 B(4,6,10)       =    109.251104     0.000046     0.093425   109.344528
	   29 B(4,6,11)       =    108.429391     0.000018    -0.070047   108.359344
	   30 B(6,4,7)        =    112.138002    -0.000106    -0.080436   112.057566
	   31 B(6,4,8)        =    111.121854     0.000173     0.132367   111.254221
	   32 B(6,9,12)       =    114.947962     0.000016     0.020149   114.968111
	   33 B(6,9,13)       =    108.180909    -0.000027    -0.042065   108.138844
	   34 B(6,9,14)       =    109.447504     0.000002     0.003128   109.450632
	   35 B(7,4,8)        =    105.558535    -0.000032    -0.165209   105.393326
	   36 B(9,6,10)       =    109.756018     0.000016    -0.016439   109.739578
	   37 B(9,6,11)       =    109.116043     0.000035     0.029071   109.145114
	   38 B(9,12,15)      =    112.610719    -0.000003     0.005784   112.616503
	   39 B(9,12,16)      =    109.215727     0.000001    -0.000904   109.214823
	   40 B(9,12,17)      =    110.204198    -0.000003    -0.012000   110.192199
	   41 B(10,6,11)      =    106.006908    -0.000014     0.008375   106.015283
	   42 B(12,9,13)      =    108.536101     0.000011     0.009273   108.545374
	   43 B(12,9,14)      =    109.300241    -0.000007     0.006576   109.306817
	   44 B(12,15,18)     =    111.256712    -0.000002     0.003855   111.260567
	   45 B(12,15,19)     =    111.132470     0.000004     0.003610   111.136080
	   46 B(12,15,20)     =    111.128824     0.000001    -0.003703   111.125121
	   47 B(13,9,14)      =    106.047467     0.000004     0.001071   106.048538
	   48 B(15,12,16)     =    109.357565     0.000001    -0.005756   109.351809
	   49 B(15,12,17)     =    108.878389     0.000005     0.009503   108.887892
	   50 B(16,12,17)     =    106.379280    -0.000001     0.003237   106.382517
	   51 B(18,15,19)     =    107.758965    -0.000001    -0.001990   107.756975
	   52 B(18,15,20)     =    107.724402     0.000000    -0.000102   107.724301
	   53 B(19,15,20)     =    107.668945    -0.000002    -0.001906   107.667039
	   54 D(1,2,3,4)      =    127.120499    -0.000183   -12.547817   114.572682
	   55 *D(1,2,3,5)     =    -69.999995    -0.000000     0.000000   -69.999995
	   56 D(2,3,4,6)      =    170.238308     0.000100     6.072854   176.311162
	   57 D(2,3,4,7)      =    -65.599408     0.000092     6.612460   -58.986947
	   58 D(2,3,4,8)      =     46.949286     0.000099     6.403828    53.353114
	   59 D(3,4,6,9)      =   -175.793132     0.000026     0.616114  -175.177018
	   60 D(3,4,6,10)     =     61.039393     0.000029     0.596170    61.635564
	   61 D(3,4,6,11)     =    -54.063833     0.000025     0.574605   -53.489228
	   62 D(4,6,9,12)     =    -66.319969    -0.000002    -0.106350   -66.426319
	   63 D(4,6,9,13)     =    172.225560    -0.000003    -0.100408   172.125152
	   64 D(4,6,9,14)     =     57.105087    -0.000001    -0.080457    57.024629
	   65 D(5,3,4,6)      =      7.949698    -0.000087    -6.937790     1.011909
	   66 D(5,3,4,7)      =    132.111982    -0.000095    -6.398183   125.713799
	   67 D(5,3,4,8)      =   -115.339324    -0.000089    -6.606816  -121.946139
	   68 D(6,9,12,15)    =   -175.807873     0.000002     0.023468  -175.784405
	   69 D(6,9,12,16)    =    -54.112221     0.000002     0.019366   -54.092856
	   70 D(6,9,12,17)    =     62.405932     0.000002     0.015876    62.421808
	   71 D(7,4,6,9)      =     63.140856    -0.000013    -0.409483    62.731373
	   72 D(7,4,6,10)     =    -60.026618    -0.000011    -0.429426   -60.456045
	   73 D(7,4,6,11)     =   -175.129845    -0.000015    -0.450992  -175.580837
	   74 D(8,4,6,9)      =    -54.736918    -0.000015    -0.236487   -54.973404
	   75 D(8,4,6,10)     =   -177.904392    -0.000012    -0.256430  -178.160822
	   76 D(8,4,6,11)     =     66.992381    -0.000016    -0.277996    66.714386
	   77 D(9,12,15,18)   =   -179.893939     0.000000     0.001879  -179.892060
	   78 D(9,12,15,19)   =     60.024155     0.000000    -0.000624    60.023531
	   79 D(9,12,15,20)   =    -59.858239    -0.000000     0.001846   -59.856393
	   80 D(10,6,9,12)    =     56.572438    -0.000001    -0.026604    56.545834
	   81 D(10,6,9,13)    =    -64.882033    -0.000002    -0.020662   -64.902695
	   82 D(10,6,9,14)    =    179.997493     0.000000    -0.000711   179.996782
	   83 D(11,6,9,12)    =    172.331010     0.000002    -0.009276   172.321734
	   84 D(11,6,9,13)    =     50.876540     0.000001    -0.003334    50.873205
	   85 D(11,6,9,14)    =    -64.243934     0.000003     0.016616   -64.227318
	   86 D(13,9,12,15)   =    -54.546827    -0.000001    -0.010392   -54.557219
	   87 D(13,9,12,16)   =     67.148825    -0.000002    -0.014494    67.134330
	   88 D(13,9,12,17)   =   -176.333023    -0.000002    -0.017983  -176.351006
	   89 D(14,9,12,15)   =     60.688728     0.000000    -0.000539    60.688190
	   90 D(14,9,12,16)   =   -177.615620    -0.000000    -0.004641  -177.620261
	   91 D(14,9,12,17)   =    -61.097467    -0.000001    -0.008130   -61.105597
	   92 D(16,12,15,18)  =     58.490915     0.000000     0.003220    58.494135
	   93 D(16,12,15,19)  =    -61.590992     0.000000     0.000718   -61.590274
	   94 D(16,12,15,20)  =    178.526614     0.000000     0.003188   178.529802
	   95 D(17,12,15,18)  =    -57.359322    -0.000000    -0.002762   -57.362085
	   96 D(17,12,15,19)  =   -177.441229    -0.000000    -0.005265  -177.446494
	   97 D(17,12,15,20)  =     62.676377    -0.000000    -0.002794    62.673583
	 ---------------------------------------------------------------------------

  ==> Convergence Check <==

  Measures of convergence in internal coordinates in au.
  Criteria marked as inactive (o), active & met (*), and active & unmet ( ).
  ---------------------------------------------------------------------------------------------
   Step     Total Energy     Delta E     MAX Force     RMS Force      MAX Disp      RMS Disp   
  ---------------------------------------------------------------------------------------------
    Convergence Criteria    1.00e-06 *    3.00e-04 *             o    1.20e-03 *             o
  ---------------------------------------------------------------------------------------------
      2    -383.92778824    1.35e-03      1.05e-02      1.97e-03 o    2.19e-01      3.64e-02 o  ~
  ---------------------------------------------------------------------------------------------

	Writing optimization data to binary file.
	Structure for next step:
	Cartesian Geometry (in Angstrom)
	    H     3.2996153338  -1.4935895987  -0.6265134239
	    O     2.8923424595  -1.1542445355   0.1615985000
	    C     2.0913654162  -0.0668801953  -0.0595379859
	    C     0.6313382132  -0.3316268800   0.2259751167
	    O     2.5332679433   0.9863866006  -0.3599878458
	    C    -0.2661364654   0.8943011191   0.0705480102
	    H     0.3203085661  -1.1494032495  -0.4184473162
	    H     0.5856851068  -0.7278214973   1.2374269257
	    C    -1.7248366064   0.6517591365   0.4729638646
	    H    -0.2223234950   1.2444081497  -0.9568866264
	    H     0.1416987712   1.6953205903   0.6772378773
	    C    -2.4886424155  -0.3267135347  -0.4238044413
	    H    -2.2427479551   1.6080226997   0.4613752252
	    H    -1.7632796879   0.3010185802   1.5032571185
	    C    -3.9623325246  -0.4505499156  -0.0372796226
	    H    -2.4136084411   0.0024001366  -1.4584364108
	    H    -2.0297324701  -1.3112319911  -0.3811874318
	    H    -4.4817128065  -1.1499941554  -0.6849261659
	    H    -4.4684299620   0.5076622825  -0.1110261979
	    H    -4.0708048237  -0.8029043414   0.9845811664
			--------------------------
			 OPTKING Finished Execution 
			--------------------------

    Structure for next step:
    Molecular point group: c1
    Full point group: C1

    Geometry (in Angstrom), charge = 0, multiplicity = 1:

    H            3.293841810487    -1.497659868819    -0.626869889423
    O            2.886568967334    -1.158314831470     0.161241974272
    C            2.085591985188    -0.070950574329    -0.059894494757
    C            0.625564893674    -0.335697238813     0.225618586067
    O            2.527494478461     0.982316141115    -0.360344331710
    C           -0.271909716435     0.890230666655     0.070191491439
    H            0.314535270253    -1.153473545872    -0.418803797617
    H            0.579911790765    -0.731891825852     1.237070317771
    C           -1.730609746068     0.647688702601     0.472607315019
    H           -0.228096749401     1.240337670493    -0.957243066743
    H            0.135925489002     1.691250076710     0.676881312120
    C           -2.494415496785    -0.330783893937    -0.424160922325
    H           -2.248521055189     1.603952192787     0.461018676593
    H           -1.769052824554     0.296948173083     1.502900490277
    C           -3.968105493333    -0.454620265317    -0.037636133184
    H           -2.419381528125    -0.001670247777    -1.458792812847
    H           -2.035505586472    -1.315302275082    -0.381543916118
    H           -4.487485735611    -1.154064451732    -0.685282627037
    H           -4.474202892076     0.503591859635    -0.111382702821
    H           -4.076577784214    -0.806974664240     0.984224577795

gradient() will perform analytic gradient computation.

*** tstart() called on cx1-1-2-3.cx1.hpc.ic.ac.uk
*** at Fri Sep  2 16:20:32 2016


         ---------------------------------------------------------
                                   SCF
            by Justin Turney, Rob Parrish, and Andy Simmonett
                              RHF Reference
                        4 Threads,   2000 MiB Core
         ---------------------------------------------------------

  ==> Geometry <==

    Molecular point group: c1
    Full point group: C1

    Geometry (in Angstrom), charge = 0, multiplicity = 1:

       Center              X                  Y                   Z               Mass       
    ------------   -----------------  -----------------  -----------------  -----------------
           H          3.293841810487    -1.497659868819    -0.626869889423     1.007825032070
           O          2.886568967334    -1.158314831470     0.161241974272    15.994914619560
           C          2.085591985188    -0.070950574329    -0.059894494757    12.000000000000
           C          0.625564893674    -0.335697238813     0.225618586067    12.000000000000
           O          2.527494478461     0.982316141115    -0.360344331710    15.994914619560
           C         -0.271909716435     0.890230666655     0.070191491439    12.000000000000
           H          0.314535270253    -1.153473545872    -0.418803797617     1.007825032070
           H          0.579911790765    -0.731891825852     1.237070317771     1.007825032070
           C         -1.730609746068     0.647688702601     0.472607315019    12.000000000000
           H         -0.228096749401     1.240337670493    -0.957243066743     1.007825032070
           H          0.135925489002     1.691250076710     0.676881312120     1.007825032070
           C         -2.494415496785    -0.330783893937    -0.424160922325    12.000000000000
           H         -2.248521055189     1.603952192787     0.461018676593     1.007825032070
           H         -1.769052824554     0.296948173083     1.502900490277     1.007825032070
           C         -3.968105493333    -0.454620265317    -0.037636133184    12.000000000000
           H         -2.419381528125    -0.001670247777    -1.458792812847     1.007825032070
           H         -2.035505586472    -1.315302275082    -0.381543916118     1.007825032070
           H         -4.487485735611    -1.154064451732    -0.685282627037     1.007825032070
[...]
	 B(2,3,4)         =         1.958633	     112.221402
	 B(2,3,5)         =         2.129942	     122.036715
	 B(3,4,6)         =         1.983019	     113.618593
	 B(3,4,7)         =         1.867376	     106.992763
	 B(3,4,8)         =         1.864318	     106.817561
	 B(4,3,5)         =         2.191084	     125.539865
	 B(4,6,9)         =         1.986022	     113.790664
	 B(4,6,10)        =         1.908094	     109.325731
	 B(4,6,11)        =         1.893372	     108.482208
	 B(6,4,7)         =         1.956554	     112.102274
	 B(6,4,8)         =         1.943142	     111.333835
	 B(6,9,12)        =         2.006317	     114.953469
	 B(6,9,13)        =         1.886379	     108.081574
	 B(6,9,14)        =         1.910814	     109.481562
	 B(7,4,8)         =         1.840938	     105.477974
	 B(9,6,10)        =         1.916141	     109.786793
	 B(9,6,11)        =         1.904679	     109.130088
	 B(9,12,15)       =         1.965180	     112.596522
	 B(9,12,16)       =         1.906180	     109.216080
	 B(9,12,17)       =         1.923406	     110.203047
	 B(10,6,11)       =         1.850512	     106.026552
	 B(12,9,13)       =         1.894719	     108.559382
	 B(12,9,14)       =         1.908029	     109.321995
	 B(12,15,18)      =         1.941591	     111.244995
	 B(12,15,19)      =         1.939777	     111.141050
	 B(12,15,20)      =         1.939642	     111.133297
	 B(13,9,14)       =         1.851123	     106.061523
	 B(15,12,16)      =         1.908737	     109.362561
	 B(15,12,17)      =         1.900520	     108.891790
	 B(16,12,17)      =         1.856622	     106.376580
	 B(18,15,19)      =         1.880714	     107.757003
	 B(18,15,20)      =         1.880148	     107.724537
	 B(19,15,20)      =         1.879185	     107.669379
	 D(1,2,3,4)       =         2.005345	     114.897794
	*D(1,2,3,5)       =        -1.221730	     -69.999995
	 D(2,3,4,6)       =         3.056873	     175.145924
	 D(2,3,4,7)       =        -1.057461	     -60.588028
	 D(2,3,4,8)       =         0.907336	      51.986500
	 D(3,4,6,9)       =        -3.066511	    -175.698166
	 D(3,4,6,10)      =         1.067510	      61.163820
	 D(3,4,6,11)      =        -0.943022	     -54.031176
	 D(4,6,9,12)      =        -1.155554	     -66.208357
	 D(4,6,9,13)      =         3.008555	     172.377520
	 D(4,6,9,14)      =         0.999663	      57.276456
	 D(5,3,4,6)       =         0.004344	       0.248876
	 D(5,3,4,7)       =         2.173195	     124.514924
	 D(5,3,4,8)       =        -2.145194	    -122.910548
	 D(6,9,12,15)     =        -3.069405	    -175.863956
	 D(6,9,12,16)     =        -0.945465	     -54.171167
	 D(6,9,12,17)     =         1.088095	      62.343266
	 D(7,4,6,9)       =         1.096861	      62.845493
	 D(7,4,6,10)      =        -1.052303	     -60.292521
	 D(7,4,6,11)      =        -3.062835	    -175.487517
	 D(8,4,6,9)       =        -0.960773	     -55.048249
	 D(8,4,6,10)      =        -3.109937	    -178.186263
	 D(8,4,6,11)      =         1.162716	      66.618742
	 D(9,12,15,18)    =        -3.140171	    -179.918564
	 D(9,12,15,19)    =         1.047269	      60.004110
	 D(9,12,15,20)    =        -1.045235	     -59.887550
	 D(10,6,9,12)     =         0.989210	      56.677572
	 D(10,6,9,13)     =        -1.129866	     -64.736551
	 D(10,6,9,14)     =        -3.138759	    -179.837615
	 D(11,6,9,12)     =         3.010429	     172.484883
	 D(11,6,9,13)     =         0.891353	      51.070759
	 D(11,6,9,14)     =        -1.117540	     -64.030305
	 D(13,9,12,15)    =        -0.954873	     -54.710206
	 D(13,9,12,16)    =         1.169067	      66.982583
	 D(13,9,12,17)    =        -3.080558	    -176.502984
	 D(14,9,12,15)    =         1.057083	      60.566413
	 D(14,9,12,16)    =        -3.102162	    -177.740798
	 D(14,9,12,17)    =        -1.068602	     -61.226364
	 D(16,12,15,18)   =         1.020526	      58.471813
	 D(16,12,15,19)   =        -1.075219	     -61.605513
	 D(16,12,15,20)   =         3.115462	     178.502827
	 D(17,12,15,18)   =        -1.001564	     -57.385404
	 D(17,12,15,19)   =        -3.097309	    -177.462729
	 D(17,12,15,20)   =         1.093372	      62.645610

	Current energy   :      -383.9307617694

	Energy change for the previous step:
		Projected    :         0.0000059660
		Actual       :        -0.0000002636

	Performing BFGS update.
	Previous computed or guess Hessian on step 1.
	Steps to be used in Hessian update: 5 4
	Taking RFO optimization step.
	Going to follow RFO solution 1.
	Using RFO vector 1.
	Norm of target step-size    0.03124
	Projected energy change by RFO approximation:         0.0000015754

	Back-transformation to cartesian coordinates...
	Successfully converged to displaced geometry.

	Back-transformation to cartesian coordinates to adjust frozen coordinates...
	Successfully converged to displaced geometry.

	--- Internal Coordinate Step in ANG or DEG, aJ/ANG or AJ/DEG ---
	 ---------------------------------------------------------------------------
	   Coordinate                Previous        Force       Change         New 
	   ----------                --------       ------       ------       ------
	    1 R(1,2)          =      0.949773    -0.000105     0.000047     0.949820
	    2 R(2,3)          =      1.359303     0.000590     0.000502     1.359804
	    3 R(3,4)          =      1.507470     0.000237    -0.000111     1.507359
	    4 R(3,5)          =      1.181126     0.000608    -0.000104     1.181023
	    5 R(4,6)          =      1.526610     0.000089    -0.000233     1.526377
	    6 R(4,7)          =      1.086285    -0.000024     0.000146     1.086432
	    7 R(4,8)          =      1.087345    -0.000039    -0.000114     1.087230
	    8 R(6,9)          =      1.532339     0.000242    -0.000160     1.532180
	    9 R(6,10)         =      1.086068    -0.000041    -0.000017     1.086051
	   10 R(6,11)         =      1.084678     0.000041     0.000104     1.084782
	   11 R(9,12)         =      1.531324     0.000068     0.000010     1.531334
	   12 R(9,13)         =      1.087528     0.000014    -0.000042     1.087486
	   13 R(9,14)         =      1.089033    -0.000042     0.000017     1.089050
	   14 R(12,15)        =      1.528556    -0.000023     0.000013     1.528568
	   15 R(12,16)        =      1.088226     0.000056     0.000005     1.088231
	   16 R(12,17)        =      1.087013    -0.000230    -0.000003     1.087010
	   17 R(15,18)        =      1.085520     0.000004    -0.000004     1.085517
	   18 R(15,19)        =      1.086175     0.000003     0.000007     1.086182
	   19 R(15,20)        =      1.086350    -0.000016    -0.000002     1.086348
	   20 B(1,2,3)        =    111.298769     0.000000    -0.011782   111.286988
	   21 B(2,3,4)        =    112.221402     0.000002    -0.034542   112.186860
	   22 B(2,3,5)        =    122.036715    -0.000002    -0.022306   122.014408
	   23 B(3,4,6)        =    113.618593    -0.000003    -0.022082   113.596511
	   24 B(3,4,7)        =    106.992763     0.000000    -0.026223   106.966540
	   25 B(3,4,8)        =    106.817561     0.000002     0.042576   106.860137
	   26 B(4,3,5)        =    125.539865     0.000001     0.057823   125.597688
	   27 B(4,6,9)        =    113.790664     0.000006    -0.019560   113.771105
	   28 B(4,6,10)       =    109.325731    -0.000001    -0.008449   109.317282
	   29 B(4,6,11)       =    108.482208    -0.000002     0.004704   108.486912
	   30 B(6,4,7)        =    112.102274     0.000001    -0.016245   112.086029
	   31 B(6,4,8)        =    111.333835     0.000001     0.021427   111.355262
	   32 B(6,9,12)       =    114.953469     0.000007    -0.001377   114.952092
	   33 B(6,9,13)       =    108.081574    -0.000003    -0.041393   108.040180
	   34 B(6,9,14)       =    109.481562    -0.000002     0.015850   109.497412
	   35 B(7,4,8)        =    105.477974    -0.000001     0.003286   105.481260
	   36 B(9,6,10)       =    109.786793    -0.000001     0.018509   109.805302
	   37 B(9,6,11)       =    109.130088    -0.000003    -0.001182   109.128906
	   38 B(9,12,15)      =    112.596522    -0.000000    -0.000891   112.595631
	   39 B(9,12,16)      =    109.216080    -0.000000     0.000805   109.216884
	   40 B(9,12,17)      =    110.203047     0.000001    -0.002314   110.200733
	   41 B(10,6,11)      =    106.026552     0.000001     0.007727   106.034280
	   42 B(12,9,13)      =    108.559382    -0.000003     0.002600   108.561982
	   43 B(12,9,14)      =    109.321995    -0.000002     0.016329   109.338324
	   44 B(12,15,18)     =    111.244995     0.000000    -0.000924   111.244071
	   45 B(12,15,19)     =    111.141050     0.000000     0.003493   111.144543
	   46 B(12,15,20)     =    111.133297    -0.000000    -0.001791   111.131506
	   47 B(13,9,14)      =    106.061523     0.000001     0.007912   106.069434
	   48 B(15,12,16)     =    109.362561     0.000000    -0.002175   109.360387
	   49 B(15,12,17)     =    108.891790    -0.000001     0.004744   108.896534
	   50 B(16,12,17)     =    106.376580     0.000000    -0.000141   106.376440
	   51 B(18,15,19)     =    107.757003    -0.000000    -0.001282   107.755721
	   52 B(18,15,20)     =    107.724537     0.000000     0.000205   107.724743
	   53 B(19,15,20)     =    107.669379     0.000000     0.000253   107.669632
	   54 D(1,2,3,4)      =    114.897794     0.000000    -0.014795   114.882998
	   55 *D(1,2,3,5)     =    -69.999995    -0.000000    -0.000000   -69.999995
	   56 D(2,3,4,6)      =    175.145924    -0.000000    -0.283262   174.862662
	   57 D(2,3,4,7)      =    -60.588028    -0.000000    -0.338074   -60.926102
	   58 D(2,3,4,8)      =     51.986500    -0.000000    -0.326814    51.659686
	   59 D(3,4,6,9)      =   -175.698166     0.000000     0.086851  -175.611315
	   60 D(3,4,6,10)     =     61.163820    -0.000000     0.082965    61.246785
	   61 D(3,4,6,11)     =    -54.031176    -0.000000     0.075747   -53.955429
	   62 D(4,6,9,12)     =    -66.208357    -0.000001    -0.457859   -66.666216
	   63 D(4,6,9,13)     =    172.377520    -0.000001    -0.429488   171.948032
	   64 D(4,6,9,14)     =     57.276456    -0.000000    -0.424690    56.851766
	   65 D(5,3,4,6)      =      0.248876     0.000000    -0.293754    -0.044878
	   66 D(5,3,4,7)      =    124.514924    -0.000000    -0.348567   124.166357
	   67 D(5,3,4,8)      =   -122.910548    -0.000000    -0.337307  -123.247855
	   68 D(6,9,12,15)    =   -175.863956     0.000000     0.304382  -175.559573
	   69 D(6,9,12,16)    =    -54.171167     0.000000     0.301589   -53.869578
	   70 D(6,9,12,17)    =     62.343266     0.000000     0.300564    62.643830
	   71 D(7,4,6,9)      =     62.845493     0.000000     0.150218    62.995711
	   72 D(7,4,6,10)     =    -60.292521     0.000000     0.146332   -60.146189
	   73 D(7,4,6,11)     =   -175.487517     0.000000     0.139114  -175.348403
	   74 D(8,4,6,9)      =    -55.048249     0.000000     0.142465   -54.905784
	   75 D(8,4,6,10)     =   -178.186263    -0.000000     0.138579  -178.047684
	   76 D(8,4,6,11)     =     66.618742     0.000000     0.131361    66.750103
	   77 D(9,12,15,18)   =   -179.918564    -0.000000    -0.039619  -179.958183
	   78 D(9,12,15,19)   =     60.004110    -0.000000    -0.039726    59.964384
	   79 D(9,12,15,20)   =    -59.887550    -0.000000    -0.041183   -59.928734
	   80 D(10,6,9,12)    =     56.677572    -0.000000    -0.468823    56.208750
	   81 D(10,6,9,13)    =    -64.736551    -0.000000    -0.440451   -65.177003
	   82 D(10,6,9,14)    =   -179.837615     0.000000    -0.435654  -180.273269
	   83 D(11,6,9,12)    =    172.484883    -0.000001    -0.449858   172.035025
	   84 D(11,6,9,13)    =     51.070759    -0.000000    -0.421487    50.649273
	   85 D(11,6,9,14)    =    -64.030305    -0.000000    -0.416689   -64.446994
	   86 D(13,9,12,15)   =    -54.710206     0.000000     0.251908   -54.458298
	   87 D(13,9,12,16)   =     66.982583     0.000000     0.249115    67.231698
	   88 D(13,9,12,17)   =   -176.502984     0.000000     0.248090  -176.254894
	   89 D(14,9,12,15)   =     60.566413    -0.000000     0.271499    60.837912
	   90 D(14,9,12,16)   =   -177.740798    -0.000000     0.268706  -177.472092
	   91 D(14,9,12,17)   =    -61.226364     0.000000     0.267680   -60.958684
	   92 D(16,12,15,18)  =     58.471813     0.000000    -0.038514    58.433299
	   93 D(16,12,15,19)  =    -61.605513     0.000000    -0.038622   -61.644134
	   94 D(16,12,15,20)  =    178.502827     0.000000    -0.040079   178.462748
	   95 D(17,12,15,18)  =    -57.385404     0.000000    -0.039788   -57.425192
	   96 D(17,12,15,19)  =   -177.462729     0.000000    -0.039896  -177.502625
	   97 D(17,12,15,20)  =     62.645610     0.000000    -0.041353    62.604257
	 ---------------------------------------------------------------------------

  ==> Convergence Check <==

  Measures of convergence in internal coordinates in au.
  Criteria marked as inactive (o), active & met (*), and active & unmet ( ).
  ---------------------------------------------------------------------------------------------
   Step     Total Energy     Delta E     MAX Force     RMS Force      MAX Disp      RMS Disp   
  ---------------------------------------------------------------------------------------------
    Convergence Criteria    1.00e-06 *    3.00e-04 *             o    1.20e-03 *             o
  ---------------------------------------------------------------------------------------------
      6    -383.93076177   -2.64e-07 *    9.75e-05 *    2.20e-05 o    8.18e-03      3.17e-03 o  ~
  ---------------------------------------------------------------------------------------------


  **** Optimization is complete! (in 6 steps) ****

  ==> Optimization Summary <==

  Measures of convergence in internal coordinates in au.
  --------------------------------------------------------------------------------------------------------------- ~
   Step         Total Energy             Delta E       MAX Force       RMS Force        MAX Disp        RMS Disp  ~
  --------------------------------------------------------------------------------------------------------------- ~
      1    -383.929139056142   -383.929139056142      0.02734994      0.00341117      0.29877439      0.05028027  ~
      2    -383.927788236081      0.001350820062      0.01050685      0.00197101      0.21900072      0.03638237  ~
      3    -383.930346420648     -0.002558184567      0.01108060      0.00170028      0.03638908      0.00580474  ~
      4    -383.930756232620     -0.000409811972      0.00102023      0.00016934      0.00866299      0.00201987  ~
      5    -383.930761505788     -0.000005273168      0.00038666      0.00005522      0.00592060      0.00218721  ~
      6    -383.930761769392     -0.000000263605      0.00009749      0.00002202      0.00818250      0.00317244  ~
  --------------------------------------------------------------------------------------------------------------- ~

	Writing optimization data to binary file.
	Final energy is   -383.9307617693922
	Final (previous) structure:
	Cartesian Geometry (in Angstrom)
	    H     3.2558188367  -1.4821238805  -0.6200745902
	    O     2.8640587901  -1.1509884320   0.1792636272
	    C     2.0800464298  -0.0681951712  -0.0668824537
	    C     0.6266362489  -0.3376364225   0.2288646077
	    O     2.5340377483   0.9747235078  -0.3851148539
	    C    -0.2666176067   0.8908745095   0.0759042761
	    H     0.3163363595  -1.1519170584  -0.4197316568
	    H     0.5799867431  -0.7373494546   1.2389989501
	    C    -1.7257841124   0.6478179103   0.4756798730
	    H    -0.2204000547   1.2433384998  -0.9503401327
	    H     0.1405949958   1.6901729990   0.6856805480
	    C    -2.4873665315  -0.3308029650  -0.4227892988
	    H    -2.2431973038   1.6042831762   0.4624332640
	    H    -1.7665477043   0.2974468100   1.5060055706
	    C    -3.9612260402  -0.4565458935  -0.0375498077
	    H    -2.4116608342  -0.0006944826  -1.4569718193
	    H    -2.0274008384  -1.3148044357  -0.3807103814
	    H    -4.4791772865  -1.1556788519  -0.6866212866
	    H    -4.4683007644   0.5012244190  -0.1105412977
	    H    -4.0702955304  -0.8103972877   0.9837483337
	Saving final (previous) structure.
			--------------------------
			 OPTKING Finished Execution 
			--------------------------

    Final optimized geometry and variables:
    Molecular point group: c1
    Full point group: C1

    Geometry (in Angstrom), charge = 0, multiplicity = 1:

    H            3.255818588027    -1.482123767354    -0.620074542811
    O            2.864058571403    -1.150988344093     0.179263613479
    C            2.080046270939    -0.068195165997    -0.066882448602
    C            0.626636201033    -0.337636396749     0.228864590252
    O            2.534037554769     0.974723433341    -0.385114824444
    C           -0.266617586386     0.890874441479     0.075904270339
    H            0.316336335325    -1.151916970393    -0.419731624746
    H            0.579986698851    -0.737349398258     1.238998855443
    C           -1.725783980617     0.647817860826     0.475679836643
    H           -0.220400037823     1.243338404885    -0.950340060157
    H            0.140594985088     1.690172869967     0.685680495639
    C           -2.487366341546    -0.330802939699    -0.422789266538
    H           -2.243197132489     1.604283053656     0.462433228731
    H           -1.766547569440     0.297446787257     1.506005455640
    C           -3.961225737683    -0.456545858609    -0.037549804807
    H           -2.411660650046    -0.000694482529    -1.456971708021
    H           -2.027400683594    -1.314804335268    -0.380710352318
    H           -4.479176944433    -1.155678763632    -0.686621234154
    H           -4.468300423190     0.501224380713    -0.110541289306
    H           -4.070295219546    -0.810397225767     0.983748258611

	Cleaning optimization helper files.


Properties will be evaluated at   0.000000,   0.000000,   0.000000 Bohr

Properties computed using the  density matrix

  Nuclear Dipole Moment: (a.u.)
     X:   -16.2806      Y:    -1.2350      Z:     0.2351

  Electronic Dipole Moment: (a.u.)
     X:    15.6409      Y:     0.3988      Z:    -0.5672

  Dipole Moment: (a.u.)
     X:    -0.6397      Y:    -0.8362      Z:    -0.3320     Total:     1.1040

  Dipole Moment: (Debye)
     X:    -1.6260      Y:    -2.1255      Z:    -0.8439     Total:     2.8060

  Quadrupole Moment: (Debye Ang)
    XX:   -55.4298     YY:   -51.4955     ZZ:   -48.6469
    XY:    -6.8205     XZ:    -3.3366     YZ:     3.6772

  Traceless Quadrupole Moment: (Debye Ang)
    XX:    -3.5724     YY:     0.3619     ZZ:     3.2105
    XY:    -6.8205     XZ:    -3.3366     YZ:     3.6772

  Mulliken Charges: (a.u.)
   Center  Symbol    Alpha    Beta     Spin     Total
       1     H     0.26587  0.26587  0.00000  0.46827
       2     O     4.36809  4.36809  0.00000 -0.73619
       3     C     2.62983  2.62983  0.00000  0.74034
       4     C     3.21130  3.21130  0.00000 -0.42259
       5     O     4.25094  4.25094  0.00000 -0.50188
       6     C     3.15474  3.15474  0.00000 -0.30948
       7     H     0.40492  0.40492  0.00000  0.19016
       8     H     0.39749  0.39749  0.00000  0.20502
       9     C     3.15537  3.15537  0.00000 -0.31074
      10     H     0.41374  0.41374  0.00000  0.17252
      11     H     0.40744  0.40744  0.00000  0.18512
      12     C     3.15473  3.15473  0.00000 -0.30945
      13     H     0.41777  0.41777  0.00000  0.16447
      14     H     0.42316  0.42316  0.00000  0.15368
      15     C     3.23919  3.23919  0.00000 -0.47837
      16     H     0.42202  0.42202  0.00000  0.15596
      17     H     0.42343  0.42343  0.00000  0.15315
      18     H     0.41854  0.41854  0.00000  0.16292
      19     H     0.42042  0.42042  0.00000  0.15915
      20     H     0.42103  0.42103  0.00000  0.15795

   Total alpha = 32.00000, Total beta = 32.00000, Total charge = -0.00000


*** PSI4 exiting successfully. Buy a developer a beer!
