    -----------------------------------------------------------------------
          Psi4: An Open-Source Ab Initio Electronic Structure Package
                              Psi4 (no tag) Driver

                          Git: Rev {detached?}  

    J. M. Turney, A. C. Simmonett, R. M. Parrish, E. G. Hohenstein,
    F. A. Evangelista, J. T. Fermann, B. J. Mintz, L. A. Burns, J. J. Wilke,
    M. L. Abrams, N. J. Russ, M. L. Leininger, C. L. Janssen, E. T. Seidl,
    W. D. Allen, H. F. Schaefer, R. A. King, E. F. Valeev, C. D. Sherrill,
    and T. D. Crawford, WIREs Comput. Mol. Sci. 2, 556-565 (2012)
    (doi: 10.1002/wcms.93)

                         Additional Contributions by
    A. E. DePrince, M. Saitow, U. Bozkaya, A. Yu. Sokolov
    -----------------------------------------------------------------------


    Psi4 started on: Fri Sep  2 12:28:07 2016

    Process ID:  11192
    PSI4DATADIR: /export131/home/mjharvey/miniconda3/share
    Memory level set to 256.000 MB

  ==> Input File <==

--------------------------------------------------------------------------
set {
	reference rhf
	basis 6-31G*
}


set_num_threads( 4 )
memory 2 gb

molecule MOL {
0 1

H	 -2.527896	 0.213258	 0.865564
O	 -2.035884	 -0.060112	 0.102722
C	 -0.955155	 0.788182	 -0.092531
C	 0.353668	 0.040312	 -0.004810
H	 -0.985057	 1.290372	 -1.054184
H	 -0.974469	 1.533190	 0.688632
F	 0.394464	 -0.937475	 -0.903053
F	 1.368604	 0.853376	 -0.249821
F	 0.546173	 -0.502608	 1.179981

	symmetry c1
}
set optking {
	frozen_dihedral = ("
		1 2 3 5
	")
}

ee = optimize('scf')
oeprop('DIPOLE', 'QUADRUPOLE', 'MULLIKEN_CHARGES')
f=open( 'psi4out.xyz', 'w' )
f.write( "9  " )
f.write( str(ee) + "\n" )
f.write( MOL.save_string_xyz() )
f.close()
--------------------------------------------------------------------------

  Memory set to   2.000 GiB by Python script.
gradient() will perform analytic gradient computation.

*** tstart() called on cx1-1-1-2.cx1.hpc.ic.ac.uk
*** at Fri Sep  2 12:28:08 2016


         ---------------------------------------------------------
                                   SCF
            by Justin Turney, Rob Parrish, and Andy Simmonett
                              RHF Reference
                        4 Threads,   2000 MiB Core
         ---------------------------------------------------------

  ==> Geometry <==

    Molecular point group: c1
    Full point group: C1

    Geometry (in Angstrom), charge = 0, multiplicity = 1:

       Center              X                  Y                   Z               Mass       
    ------------   -----------------  -----------------  -----------------  -----------------
           H         -2.523573794624     0.204313928880     0.850627511814     1.007825032070
           O         -2.031561794623    -0.069056071120     0.087785511814    15.994914619560
           C         -0.950832794624     0.779237928880    -0.107467488186    12.000000000000
           C          0.357990205376     0.031367928880    -0.019746488186    12.000000000000
           H         -0.980734794624     1.281427928880    -1.069120488186     1.007825032070
           H         -0.970146794624     1.524245928880     0.673695511814     1.007825032070
           F          0.398786205376    -0.946419071120    -0.917989488186    18.998403224000
           F          1.372926205376     0.844431928880    -0.264757488186    18.998403224000
           F          0.550495205376    -0.511552071120     1.165044511814    18.998403224000

  Running in c1 symmetry.

  Rotational constants: A =      0.18250  B =      0.09525  C =      0.09435 [cm^-1]
  Rotational constants: A =   5471.07096  B =   2855.55549  C =   2828.62060 [MHz]
  Nuclear repulsion =  276.338987254306062

  Charge       = 0
  Multiplicity = 1
  Electrons    = 50
  Nalpha       = 25
  Nbeta        = 25

  ==> Algorithm <==

  SCF Algorithm Type is DF.
  DIIS enabled.
  MOM disabled.
  Fractional occupation disabled.
  Guess Type is CORE.
  Energy threshold   = 1.00e-08
  Density threshold  = 1.00e-08
  Integral threshold = 0.00e+00

  ==> Primary Basis <==

  Basis Set: 6-31G*
    Number of shells: 42
    Number of basis function: 96
    Number of Cartesian functions: 96
    Spherical Harmonics?: false
    Max angular momentum: 2

  ==> Pre-Iterations <==

   -------------------------------------------------------
    Irrep   Nso     Nmo     Nalpha   Nbeta   Ndocc  Nsocc
   -------------------------------------------------------
     A         96      96       0       0       0       0
   -------------------------------------------------------
    Total      96      96      25      25      25       0
   -------------------------------------------------------

 OEINTS: Overlap, kinetic, potential, dipole, and quadrupole integrals
         stored in file 35.

  ==> Integral Setup <==

  ==> DFJK: Density-Fitted J/K Matrices <==

    J tasked:                  Yes
    K tasked:                  Yes
    wK tasked:                  No
    OpenMP threads:              4
    Integrals threads:           4
    Memory (MB):              1430
    Algorithm:                Core
    Integral Cache:           NONE
    Schwarz Cutoff:          1E-12
    Fitting Condition:       1E-12

   => Auxiliary Basis Set <=

  Basis Set: 
    Number of shells: 171
    Number of basis function: 561
    Number of Cartesian functions: 561
    Spherical Harmonics?: false
    Max angular momentum: 3

  Minimum eigenvalue in the overlap matrix is 1.9741872436E-03.
  Using Symmetric Orthogonalization.
  SCF Guess: Core (One-Electron) Hamiltonian.

  ==> Iterations <==

                           Total Energy        Delta E     RMS |[F,P]|

   @DF-RHF iter   1:  -397.02077000057909   -3.97021e+02   8.86842e-02 
   @DF-RHF iter   2:  -265.00301786806108    1.32018e+02   9.79907e-02 DIIS
   @DF-RHF iter   3:  -398.41996152029049   -1.33417e+02   6.38875e-02 DIIS
   @DF-RHF iter   4:  -445.22068237469853   -4.68007e+01   3.16256e-02 DIIS
   @DF-RHF iter   5:  -450.01734584808207   -4.79666e+00   1.38678e-02 DIIS
   @DF-RHF iter   6:  -450.60347336530151   -5.86128e-01   3.55656e-03 DIIS
   @DF-RHF iter   7:  -450.64676846419081   -4.32951e-02   1.44264e-03 DIIS
   @DF-RHF iter   8:  -450.65652601298257   -9.75755e-03   6.07770e-04 DIIS
   @DF-RHF iter   9:  -450.65829652519301   -1.77051e-03   8.99760e-05 DIIS
   @DF-RHF iter  10:  -450.65835403443373   -5.75092e-05   3.58936e-05 DIIS
   @DF-RHF iter  11:  -450.65836196937107   -7.93494e-06   1.05481e-05 DIIS
   @DF-RHF iter  12:  -450.65836287882519   -9.09454e-07   2.29632e-06 DIIS
   @DF-RHF iter  13:  -450.65836292092047   -4.20953e-08   7.95508e-07 DIIS
   @DF-RHF iter  14:  -450.65836292342340   -2.50293e-09   1.66737e-07 DIIS
   @DF-RHF iter  15:  -450.65836292362167   -1.98270e-10   3.22224e-08 DIIS
   @DF-RHF iter  16:  -450.65836292363088   -9.20863e-12   8.93083e-09 DIIS

  ==> Post-Iterations <==

    Orbital Energies (a.u.)
    -----------------------

    Doubly Occupied:                                                      

       1A    -26.340224     2A    -26.337279     3A    -26.329193  
       4A    -20.589146     5A    -11.496459     6A    -11.310460  
       7A     -1.733948     8A     -1.635237     9A     -1.626867  
      10A     -1.402115    11A     -1.046885    12A     -0.918070  
      13A     -0.824447    14A     -0.823600    15A     -0.788748  
      16A     -0.737343    17A     -0.706805    18A     -0.695219  
      19A     -0.664501    20A     -0.650011    21A     -0.636411  
      22A     -0.634850    23A     -0.599027    24A     -0.528301  
      25A     -0.479058  

    Virtual:                                                              

      26A      0.193490    27A      0.271534    28A      0.296534  
      29A      0.347509    30A      0.418236    31A      0.428409  
      32A      0.482267    33A      0.483810    34A      0.698847  
      35A      0.743557    36A      0.760011    37A      0.781848  
      38A      0.819223    39A      0.883290    40A      0.946383  
      41A      1.058498    42A      1.112364    43A      1.150391  
      44A      1.203581    45A      1.243964    46A      1.321479  
      47A      1.330325    48A      1.349337    49A      1.400163  
      50A      1.450497    51A      1.472487    52A      1.526060  
      53A      1.619199    54A      1.630176    55A      1.651464  
      56A      1.676614    57A      1.678518    58A      1.690028  
      59A      1.755279    60A      1.876673    61A      1.913038  
      62A      1.954220    63A      1.970056    64A      1.975733  
      65A      2.123328    66A      2.146468    67A      2.154756  
      68A      2.170166    69A      2.268040    70A      2.278191  
      71A      2.328638    72A      2.372758    73A      2.400125  
      74A      2.409633    75A      2.424234    76A      2.445560  
      77A      2.501837    78A      2.557322    79A      2.635347  
      80A      2.708829    81A      2.846723    82A      2.859054  
      83A      2.889138    84A      3.128291    85A      3.151241  
      86A      3.183350    87A      3.269787    88A      3.421084  
      89A      3.427905    90A      3.454304    91A      4.137649  
      92A      4.608381    93A      4.764128    94A      4.898925  
      95A      5.098078    96A      5.693246  

    Final Occupation by Irrep:
              A 
    DOCC [    25 ]

  Energy converged.

  @DF-RHF Final Energy:  -450.65836292363088

   => Energetics <=

    Nuclear Repulsion Energy =            276.3389872543060619
    One-Electron Energy =               -1174.9262888158664282
    Two-Electron Energy =                 447.9289386379298890
    DFT Exchange-Correlation Energy =       0.0000000000000000
    Empirical Dispersion Energy =           0.0000000000000000
    PCM Polarization Energy =               0.0000000000000000
    EFP Energy =                            0.0000000000000000
    Total Energy =                       -450.6583629236304773

    Alert: EFP and PCM quantities not currently incorporated into SCF psivars.

Properties will be evaluated at   0.000000,   0.000000,   0.000000 Bohr
  ==> Properties <==


Properties computed using the SCF density matrix

  Nuclear Dipole Moment: (a.u.)
     X:    -6.3951      Y:     3.4002      Z:     0.4439

  Electronic Dipole Moment: (a.u.)
     X:     5.7489      Y:    -2.4504      Z:     0.0185

  Dipole Moment: (a.u.)
     X:    -0.6462      Y:     0.9498      Z:     0.4624     Total:     1.2384

  Dipole Moment: (Debye)
     X:    -1.6424      Y:     2.4143      Z:     1.1753     Total:     3.1476


  Saving occupied orbitals to File 180.

*** tstop() called on cx1-1-1-2.cx1.hpc.ic.ac.uk at Fri Sep  2 12:28:11 2016
Module time:
	user time   =       7.52 seconds =       0.13 minutes
	system time =       0.15 seconds =       0.00 minutes
	total time  =          3 seconds =       0.05 minutes
Total time:
	user time   =       7.52 seconds =       0.13 minutes
	system time =       0.15 seconds =       0.00 minutes
	total time  =          3 seconds =       0.05 minutes

*** tstart() called on cx1-1-1-2.cx1.hpc.ic.ac.uk
*** at Fri Sep  2 12:28:11 2016


         ------------------------------------------------------------
                                   SCF GRAD                          
                          Rob Parrish, Justin Turney,                
                       Andy Simmonett, and Alex Sokolov              
         ------------------------------------------------------------

  ==> Geometry <==

    Molecular point group: c1
    Full point group: C1

    Geometry (in Angstrom), charge = 0, multiplicity = 1:

       Center              X                  Y                   Z               Mass       
    ------------   -----------------  -----------------  -----------------  -----------------
           H         -2.523573794624     0.204313928880     0.850627511814     1.007825032070
           O         -2.031561794623    -0.069056071120     0.087785511814    15.994914619560
           C         -0.950832794624     0.779237928880    -0.107467488186    12.000000000000
           C          0.357990205376     0.031367928880    -0.019746488186    12.000000000000
           H         -0.980734794624     1.281427928880    -1.069120488186     1.007825032070
           H         -0.970146794624     1.524245928880     0.673695511814     1.007825032070
           F          0.398786205376    -0.946419071120    -0.917989488186    18.998403224000
           F          1.372926205376     0.844431928880    -0.264757488186    18.998403224000
           F          0.550495205376    -0.511552071120     1.165044511814    18.998403224000

  Nuclear repulsion =  276.338987254306062

  ==> Basis Set <==

  Basis Set: 6-31G*
    Number of shells: 42
    Number of basis function: 96
    Number of Cartesian functions: 96
    Spherical Harmonics?: false
    Max angular momentum: 2

  ==> DFJKGrad: Density-Fitted SCF Gradients <==

    Gradient:                    1
    J tasked:                  Yes
    K tasked:                  Yes
    wK tasked:                  No
    OpenMP threads:              4
    Integrals threads:           4
    Memory (MB):              1430
    Schwarz Cutoff:          0E+00
    Fitting Condition:       1E-12

   => Auxiliary Basis Set <=

  Basis Set: 
    Number of shells: 171
    Number of basis function: 561
    Number of Cartesian functions: 561
    Spherical Harmonics?: false
    Max angular momentum: 3


  -Total Gradient:
     Atom            X                  Y                   Z
    ------   -----------------  -----------------  -----------------
       1       -0.002674949058     0.002794231806     0.002948012429
       2        0.003175823779     0.005826992067     0.005215274318
       3        0.002032459336    -0.009153498901    -0.010589920202
       4        0.004363640855     0.010428396166     0.009146265319
       5        0.002869322700     0.003835526757    -0.000542269099
       6       -0.009299933386    -0.007074891077     0.001709314660
       7       -0.001543679477    -0.004730141737    -0.004128606181
       8        0.000832788011    -0.001467783076    -0.000753637719
       9        0.000244527236    -0.000458832006    -0.003004433524


*** tstop() called on cx1-1-1-2.cx1.hpc.ic.ac.uk at Fri Sep  2 12:28:13 2016
Module time:
	user time   =       8.94 seconds =       0.15 minutes
	system time =       0.16 seconds =       0.00 minutes
	total time  =          2 seconds =       0.03 minutes
Total time:
	user time   =      16.48 seconds =       0.27 minutes
	system time =       0.31 seconds =       0.01 minutes
	total time  =          5 seconds =       0.08 minutes
CURRENT ENERGY: -450.6583629236

			-----------------------------------------
			 OPTKING 2.0: for geometry optimizations 
			  - R.A. King,  Bethel University        
			-----------------------------------------

	Internal coordinates to be generated automatically.
	Detected frag with atoms:  1 2 3 4 5 6 7 8 9
	---Fragment 1 Bond Connectivity---
	 1 : 2
	 2 : 1 3
	 3 : 2 4 5 6
	 4 : 3 7 8 9
	 5 : 3
	 6 : 3
	 7 : 4
	 8 : 4
	 9 : 4

	Assuming in current code that numbering for constraints corresponds to unified fragment.
	Frozen dihedral atom list: 
	     1     2     3     5
	---Fragment 1 Geometry and Gradient---
	 H          -4.7688633480        0.3860973707        1.6074530384
	 O          -3.8390954139       -0.1304970622        0.1658905758
	 C          -1.7968135800        1.4725462779       -0.2030841209
	 C           0.6765034464        0.0592767949       -0.0373154548
	 H          -1.8533201708        2.4215478446       -2.0203449257
	 H          -1.8333117505        2.8804073647        1.2731000143
	 F           0.7535967137       -1.7884728514       -1.7347487255
	 F           2.5944545288        1.5957450834       -0.5003191443
	 F           1.0402851756       -0.9666933171        2.2016150600
	            -0.0026749491        0.0027942318        0.0029480124
	             0.0031758238        0.0058269921        0.0052152743
	             0.0020324593       -0.0091534989       -0.0105899202
	             0.0043636409        0.0104283962        0.0091462653
	             0.0028693227        0.0038355268       -0.0005422691
	            -0.0092999334       -0.0070748911        0.0017093147
	            -0.0015436795       -0.0047301417       -0.0041286062
	             0.0008327880       -0.0014677831       -0.0007536377
	             0.0002445272       -0.0004588320       -0.0030044335

	Previous optimization step data not found.  Starting new optimization.

	---Fragment 1 Intrafragment Coordinates---
	 - Coordinate -           - BOHR/RAD -       - ANG/DEG -
	 R(1,2)           =         1.791491	       0.948016
	 R(2,3)           =         2.622366	       1.387697
	 R(3,4)           =         2.853438	       1.509974
	 R(3,5)           =         2.050910	       1.085295
	 R(3,6)           =         2.040227	       1.079641
	 R(4,7)           =         2.510259	       1.328372
	 R(4,8)           =         2.500729	       1.323329
	 R(4,9)           =         2.489530	       1.317403
	 B(1,2,3)         =         1.918918	     109.945924
	 B(2,3,4)         =         1.943469	     111.352544
	 B(2,3,5)         =         1.967171	     112.710586
	 B(2,3,6)         =         1.881879	     107.823740
	 B(3,4,7)         =         1.930404	     110.603995
	 B(3,4,8)         =         1.928071	     110.470345
	 B(3,4,9)         =         1.963859	     112.520852
	 B(4,3,5)         =         1.880249	     107.730350
	 B(4,3,6)         =         1.891512	     108.375652
	 B(5,3,6)         =         1.897914	     108.742489
	 B(7,4,8)         =         1.879163	     107.668091
	 B(7,4,9)         =         1.875798	     107.475327
	 B(8,4,9)         =         1.883514	     107.917375
	 D(1,2,3,4)       =         2.073384	     118.796159
	*D(1,2,3,5)       =        -2.094395	    -120.000013
	 D(1,2,3,6)       =         0.000518	       0.029673
	 D(2,3,4,7)       =         1.016265	      58.227704
	 D(2,3,4,8)       =         3.095072	     177.334536
	 D(2,3,4,9)       =        -1.081814	     -61.983379
	 D(5,3,4,7)       =        -1.149154	     -65.841656
	 D(5,3,4,8)       =         0.929653	      53.265176
	 D(5,3,4,9)       =         3.035952	     173.947260
	 D(6,3,4,7)       =         3.083357	     176.663345
	 D(6,3,4,8)       =        -1.121022	     -64.229823
	 D(6,3,4,9)       =         0.985278	      56.452262

	Current energy   :      -450.6583629236

	Generating empirical Hessian (Schlegel '84) for each fragment.
	Taking RFO optimization step.
	Going to follow RFO solution 1.
	Using RFO vector 1.
	Norm of target step-size    0.22641
	Projected energy change by RFO approximation:        -0.0061319633

	Back-transformation to cartesian coordinates...
	Successfully converged to displaced geometry.

	Back-transformation to cartesian coordinates to adjust frozen coordinates...
	Successfully converged to displaced geometry.

	--- Internal Coordinate Step in ANG or DEG, aJ/ANG or AJ/DEG ---
	 ---------------------------------------------------------------------------
	   Coordinate                Previous        Force       Change         New 
	   ----------                --------       ------       ------       ------
	    1 R(1,2)          =      0.948016    -0.037620    -0.004129     0.943887
	    2 R(2,3)          =      1.387697     0.037170     0.004963     1.392660
	    3 R(3,4)          =      1.509974    -0.013044    -0.002640     1.507334
	    4 R(3,5)          =      1.085295    -0.017929    -0.003222     1.082073
	    5 R(3,6)          =      1.079641     0.028662     0.005055     1.084696
	    6 R(4,7)          =      1.328372    -0.051295    -0.005466     1.322906
	    7 R(4,8)          =      1.323329     0.001018     0.000106     1.323435
	    8 R(4,9)          =      1.317403     0.020409     0.002082     1.319485
	    9 B(1,2,3)        =    109.945924     0.000111     0.511756   110.457680
	   10 B(2,3,4)        =    111.352544    -0.000633    -2.191512   109.161032
	   11 B(2,3,5)        =    112.710586    -0.000222    -3.002178   109.708409
	   12 B(2,3,6)        =    107.823740     0.000884     6.749254   114.572994
	   13 B(3,4,7)        =    110.603995     0.000307     1.237381   111.841376
	   14 B(3,4,8)        =    110.470345    -0.000241    -0.972416   109.497929
	   15 B(3,4,9)        =    112.520852    -0.000182    -0.623557   111.897295
	   16 B(4,3,5)        =    107.730350     0.000439    -0.073949   107.656400
	   17 B(4,3,6)        =    108.375652    -0.000311    -0.970531   107.405121
	   18 B(5,3,6)        =    108.742489    -0.000168    -0.640269   108.102219
	   19 B(7,4,8)        =    107.668091     0.000000     0.152332   107.820422
	   20 B(7,4,9)        =    107.475327     0.000030     0.540970   108.016297
	   21 B(8,4,9)        =    107.917375     0.000096    -0.324181   107.593194
	   22 D(1,2,3,4)      =    118.796159     0.000011     3.458124   122.254283
	   23 *D(1,2,3,5)     =   -120.000013     0.000000     0.000000  -120.000013
	   24 D(1,2,3,6)      =      0.029673     0.000057     1.754153     1.783827
	   25 D(2,3,4,7)      =     58.227704    -0.000059    -2.167806    56.059898
	   26 D(2,3,4,8)      =    177.334536    -0.000050    -1.823795   175.510741
	   27 D(2,3,4,9)      =    -61.983379    -0.000089    -3.303529   -65.286909
	   28 D(5,3,4,7)      =    -65.841656     0.000030     2.871833   -62.969823
	   29 D(5,3,4,8)      =     53.265176     0.000039     3.215844    56.481020
	   30 D(5,3,4,9)      =    173.947260     0.000000     1.736109   175.683370
	   31 D(6,3,4,7)      =    176.663345     0.000059     4.167138   180.830483
	   32 D(6,3,4,8)      =    -64.229823     0.000069     4.511149   -59.718674
	   33 D(6,3,4,9)      =     56.452262     0.000029     3.031414    59.483676
	 ---------------------------------------------------------------------------

  ==> Convergence Check <==

  Measures of convergence in internal coordinates in au.
  Criteria marked as inactive (o), active & met (*), and active & unmet ( ).
  --------------------------------------------------------------------------------------------- ~
   Step     Total Energy     Delta E     MAX Force     RMS Force      MAX Disp      RMS Disp    ~
  --------------------------------------------------------------------------------------------- ~
    Convergence Criteria    1.00e-06 *    3.00e-04 *             o    1.20e-03 *             o  ~
  --------------------------------------------------------------------------------------------- ~
      1    -450.65836292   -4.51e+02      1.16e-02      3.91e-03 o    1.18e-01      3.94e-02 o  ~
  ---------------------------------------------------------------------------------------------

	Writing optimization data to binary file.
	Structure for next step:
	Cartesian Geometry (in Angstrom)
	    H    -2.5439431039   0.1650391093   0.8168917808
	    O    -2.0136000348  -0.0867924196   0.0778113854
	    C    -0.9486657177   0.7965565097  -0.0806521835
	    C     0.3458892897   0.0268511374  -0.0195152866
	    H    -1.0057073526   1.2660407600  -1.0539012784
	    H    -0.8964958441   1.5792087712   0.6685473567
	    F     0.3832603181  -0.9453285594  -0.9159247806
	    F     1.3575760208   0.8437978831  -0.2656214650
	    F     0.5450339081  -0.5073745920   1.1704361081
			--------------------------
			 OPTKING Finished Execution 
			--------------------------

    Structure for next step:
    Molecular point group: c1
    Full point group: C1

    Geometry (in Angstrom), charge = 0, multiplicity = 1:

    H           -2.539006274989     0.165456331329     0.814227914794
    O           -2.008663246410    -0.086375178261     0.075147575812
    C           -0.943729010565     0.796973683557    -0.083315980927
    C            0.350825897946     0.027268370030    -0.022179088730
    H           -1.000770641130     1.266457897942    -1.056565001562
    H           -0.891559141023     1.579625885234     0.665883502012
    F            0.388196923492    -0.944911252575    -0.918588514299
    F            1.362512551790     0.844215053281    -0.268285248336
    F            0.549970501122    -0.506957318629     1.167772215082

gradient() will perform analytic gradient computation.

*** tstart() called on cx1-1-1-2.cx1.hpc.ic.ac.uk
*** at Fri Sep  2 12:28:14 2016


         ---------------------------------------------------------
                                   SCF
            by Justin Turney, Rob Parrish, and Andy Simmonett
                              RHF Reference
                        4 Threads,   2000 MiB Core
         ---------------------------------------------------------

  ==> Geometry <==

    Molecular point group: c1
    Full point group: C1

    Geometry (in Angstrom), charge = 0, multiplicity = 1:

       Center              X                  Y                   Z               Mass       
    ------------   -----------------  -----------------  -----------------  -----------------
           H         -2.539006274989     0.165456331329     0.814227914794     1.007825032070
           O         -2.008663246410    -0.086375178261     0.075147575812    15.994914619560
           C         -0.943729010565     0.796973683557    -0.083315980927    12.000000000000
           C          0.350825897946     0.027268370030    -0.022179088730    12.000000000000
           H         -1.000770641130     1.266457897942    -1.056565001562     1.007825032070
           H         -0.891559141023     1.579625885234     0.665883502012     1.007825032070
           F          0.388196923492    -0.944911252575    -0.918588514299    18.998403224000
           F          1.362512551790     0.844215053281    -0.268285248336    18.998403224000
           F          0.549970501122    -0.506957318629     1.167772215082    18.998403224000

  Running in c1 symmetry.

  Rotational constants: A =      0.18174  B =      0.09655  C =      0.09554 [cm^-1]
  Rotational constants: A =   5448.55083  B =   2894.37010  C =   2864.13501 [MHz]
  Nuclear repulsion =  276.953579791328821

  Charge       = 0
  Multiplicity = 1
  Electrons    = 50
  Nalpha       = 25
  Nbeta        = 25

  ==> Algorithm <==

  SCF Algorithm Type is DF.
  DIIS enabled.
  MOM disabled.
  Fractional occupation disabled.
  Guess Type is READ.
  Energy threshold   = 1.00e-08
  Density threshold  = 1.00e-08
  Integral threshold = 0.00e+00

  ==> Primary Basis <==

  Basis Set: 6-31G*
    Number of shells: 42
    Number of basis function: 96
    Number of Cartesian functions: 96
    Spherical Harmonics?: false
    Max angular momentum: 2

  ==> Pre-Iterations <==

   -------------------------------------------------------
    Irrep   Nso     Nmo     Nalpha   Nbeta   Ndocc  Nsocc
   -------------------------------------------------------
     A         96      96       0       0       0       0
   -------------------------------------------------------
    Total      96      96      25      25      25       0
   -------------------------------------------------------

 OEINTS: Overlap, kinetic, potential, dipole, and quadrupole integrals
         stored in file 35.

  ==> Integral Setup <==

  ==> DFJK: Density-Fitted J/K Matrices <==

    J tasked:                  Yes
    K tasked:                  Yes
    wK tasked:                  No
    OpenMP threads:              4
    Integrals threads:           4
    Memory (MB):              1430
    Algorithm:                Core
    Integral Cache:           NONE
    Schwarz Cutoff:          1E-12
    Fitting Condition:       1E-12

   => Auxiliary Basis Set <=

  Basis Set: 
    Number of shells: 171
    Number of basis function: 561
    Number of Cartesian functions: 561
    Spherical Harmonics?: false
    Max angular momentum: 3

  Minimum eigenvalue in the overlap matrix is 1.9639540083E-03.
  Using Symmetric Orthogonalization.
  SCF Guess: Reading in previously saved MOs, projecting if necessary.

  Using orbitals from previous SCF, no projection.
  Recomputing DOCC and SOCC from number of alpha and beta electrons from previous calculation.
              A 
    DOCC [    25 ]

  ==> Iterations <==

                           Total Energy        Delta E     RMS |[F,P]|

   @DF-RHF iter   0:  -450.66480075568154   -4.50665e+02   8.79596e-04 
   @DF-RHF iter   1:  -450.65947035833096    5.33040e-03   1.38046e-04 
   @DF-RHF iter   2:  -450.65961348454209   -1.43126e-04   5.90540e-05 DIIS
   @DF-RHF iter   3:  -450.65963744340752   -2.39589e-05   2.91166e-05 DIIS
   @DF-RHF iter   4:  -450.65964341927497   -5.97587e-06   4.29610e-06 DIIS
   @DF-RHF iter   5:  -450.65964362291447   -2.03640e-07   1.16487e-06 DIIS
   @DF-RHF iter   6:  -450.65964363690637   -1.39919e-08   3.51821e-07 DIIS
   @DF-RHF iter   7:  -450.65964363803903   -1.13266e-09   1.12696e-07 DIIS
   @DF-RHF iter   8:  -450.65964363816886   -1.29830e-10   3.59069e-08 DIIS
   @DF-RHF iter   9:  -450.65964363817886   -1.00044e-11   1.16294e-08 DIIS
   @DF-RHF iter  10:  -450.65964363818011   -1.25056e-12   2.53907e-09 DIIS

  ==> Post-Iterations <==

    Orbital Energies (a.u.)
    -----------------------

    Doubly Occupied:                                                      

       1A    -26.337349     2A    -26.335176     3A    -26.331172  
       4A    -20.589636     5A    -11.494456     6A    -11.309625  
       7A     -1.733376     8A     -1.632713     9A     -1.628700  
      10A     -1.400981    11A     -1.047901    12A     -0.917708  
      13A     -0.824525    14A     -0.823195    15A     -0.786891  
      16A     -0.738024    17A     -0.705520    18A     -0.694779  
      19A     -0.662174    20A     -0.649845    21A     -0.635048  
      22A     -0.632403    23A     -0.595556    24A     -0.534534  
      25A     -0.478234  

    Virtual:                                                              

      26A      0.200082    27A      0.271104    28A      0.288851  
      29A      0.349501    30A      0.423341    31A      0.429798  
      32A      0.479197    33A      0.483332    34A      0.699702  
      35A      0.745985    36A      0.763076    37A      0.778804  
      38A      0.821039    39A      0.876847    40A      0.950624  
      41A      1.061948    42A      1.110394    43A      1.153646  
      44A      1.216205    45A      1.241872    46A      1.315138  
      47A      1.325468    48A      1.351055    49A      1.404695  
      50A      1.458531    51A      1.466385    52A      1.524812  
      53A      1.616833    54A      1.632000    55A      1.654608  
      56A      1.676352    57A      1.680514    58A      1.687377  
      59A      1.742664    60A      1.884877    61A      1.916416  
      62A      1.962711    63A      1.969636    64A      1.979388  
      65A      2.124665    66A      2.147915    67A      2.154402  
      68A      2.175514    69A      2.265699    70A      2.288231  
      71A      2.331632    72A      2.365905    73A      2.395276  
      74A      2.411645    75A      2.421945    76A      2.442526  
      77A      2.503183    78A      2.568153    79A      2.632543  
      80A      2.714496    81A      2.845570    82A      2.865187  
      83A      2.899391    84A      3.126158    85A      3.147950  
      86A      3.192950    87A      3.264952    88A      3.424322  
      89A      3.426898    90A      3.461087    91A      4.133915  
      92A      4.609209    93A      4.785360    94A      4.901346  
      95A      5.124181    96A      5.698558  

    Final Occupation by Irrep:
              A 
    DOCC [    25 ]

  Energy converged.

  @DF-RHF Final Energy:  -450.65964363818011

   => Energetics <=

    Nuclear Repulsion Energy =            276.9535797913288206
    One-Electron Energy =               -1176.1874092984953677
    Two-Electron Energy =                 448.5741858689862624
    DFT Exchange-Correlation Energy =       0.0000000000000000
    Empirical Dispersion Energy =           0.0000000000000000
    PCM Polarization Energy =               0.0000000000000000
    EFP Energy =                            0.0000000000000000
    Total Energy =                       -450.6596436381802846

    Alert: EFP and PCM quantities not currently incorporated into SCF psivars.

Properties will be evaluated at   0.000000,   0.000000,   0.000000 Bohr
  ==> Properties <==


Properties computed using the SCF density matrix

  Nuclear Dipole Moment: (a.u.)
     X:    -6.3343      Y:     3.3960      Z:     0.4154

  Electronic Dipole Moment: (a.u.)
     X:     5.6526      Y:    -2.4581      Z:     0.0373

  Dipole Moment: (a.u.)
     X:    -0.6816      Y:     0.9379      Z:     0.4527     Total:     1.2447

  Dipole Moment: (Debye)
     X:    -1.7325      Y:     2.3840      Z:     1.1507     Total:     3.1637


  Saving occupied orbitals to File 180.

*** tstop() called on cx1-1-1-2.cx1.hpc.ic.ac.uk at Fri Sep  2 12:28:16 2016
Module time:
	user time   =       6.99 seconds =       0.12 minutes
	system time =       0.10 seconds =       0.00 minutes
	total time  =          2 seconds =       0.03 minutes
Total time:
	user time   =      24.49 seconds =       0.41 minutes
	system time =       0.44 seconds =       0.01 minutes
	total time  =          8 seconds =       0.13 minutes

*** tstart() called on cx1-1-1-2.cx1.hpc.ic.ac.uk
*** at Fri Sep  2 12:28:16 2016


         ------------------------------------------------------------
                                   SCF GRAD                          
                          Rob Parrish, Justin Turney,                
                       Andy Simmonett, and Alex Sokolov              
         ------------------------------------------------------------

  ==> Geometry <==

    Molecular point group: c1
    Full point group: C1

    Geometry (in Angstrom), charge = 0, multiplicity = 1:

       Center              X                  Y                   Z               Mass       
    ------------   -----------------  -----------------  -----------------  -----------------
           H         -2.539006274989     0.165456331329     0.814227914794     1.007825032070
           O         -2.008663246410    -0.086375178261     0.075147575812    15.994914619560
           C         -0.943729010565     0.796973683557    -0.083315980927    12.000000000000
           C          0.350825897946     0.027268370030    -0.022179088730    12.000000000000
           H         -1.000770641130     1.266457897942    -1.056565001562     1.007825032070
           H         -0.891559141023     1.579625885234     0.665883502012     1.007825032070
           F          0.388196923492    -0.944911252575    -0.918588514299    18.998403224000
           F          1.362512551790     0.844215053281    -0.268285248336    18.998403224000
           F          0.549970501122    -0.506957318629     1.167772215082    18.998403224000

  Nuclear repulsion =  276.953579791328821

  ==> Basis Set <==

  Basis Set: 6-31G*
    Number of shells: 42
    Number of basis function: 96
    Number of Cartesian functions: 96
    Spherical Harmonics?: false
    Max angular momentum: 2

  ==> DFJKGrad: Density-Fitted SCF Gradients <==

    Gradient:                    1
    J tasked:                  Yes
    K tasked:                  Yes
    wK tasked:                  No
    OpenMP threads:              4
    Integrals threads:           4
    Memory (MB):              1430
    Schwarz Cutoff:          0E+00
    Fitting Condition:       1E-12

   => Auxiliary Basis Set <=

  Basis Set: 
    Number of shells: 171
    Number of basis function: 561
    Number of Cartesian functions: 561
    Spherical Harmonics?: false
    Max angular momentum: 3


  -Total Gradient:
     Atom            X                  Y                   Z
    ------   -----------------  -----------------  -----------------
       1        0.000527811844     0.001001075602    -0.002019574241
       2        0.000054709825    -0.003692347379    -0.001768346112
       3       -0.000718022734     0.001360037523     0.004912635808
       4        0.001250120555     0.002218053914     0.003653443944
       5       -0.000718565478    -0.000452391362     0.000531324091
       6        0.002773344814     0.002173745365    -0.001046831231
       7       -0.000438903642    -0.003018086899    -0.003570006286
       8       -0.002903900780    -0.001289262199     0.000611206350
       9        0.000173405599     0.001699175435    -0.001303852323


*** tstop() called on cx1-1-1-2.cx1.hpc.ic.ac.uk at Fri Sep  2 12:28:19 2016
Module time:
	user time   =       9.03 seconds =       0.15 minutes
	system time =       0.15 seconds =       0.00 minutes
	total time  =          3 seconds =       0.05 minutes
Total time:
	user time   =      33.53 seconds =       0.56 minutes
	system time =       0.59 seconds =       0.01 minutes
	total time  =         11 seconds =       0.18 minutes
CURRENT ENERGY: -450.6596436382

			-----------------------------------------
			 OPTKING 2.0: for geometry optimizations 
			  - R.A. King,  Bethel University        
			-----------------------------------------

	Previous internal coordinate definitions found.
	---Fragment 1 Geometry and Gradient---
	 H          -4.7980265094        0.3126671532        1.5386677687
	 O          -3.7958234289       -0.1632254316        0.1420083378
	 C          -1.7833893736        1.5060619970       -0.1574443864
	 C           0.6629648674        0.0515297514       -0.0419124036
	 H          -1.8911824336        2.3932585859       -1.9966184945
	 H          -1.6848026078        2.9850603155        1.2583374552
	 F           0.7335858710       -1.7856234872       -1.7358807208
	 F           2.5747755755        1.5953352480       -0.5069856448
	 F           1.0392936283       -0.9580104933        2.2067696721
	             0.0005278118        0.0010010756       -0.0020195742
	             0.0000547098       -0.0036923474       -0.0017683461
	            -0.0007180227        0.0013600375        0.0049126358
	             0.0012501206        0.0022180539        0.0036534439
	            -0.0007185655       -0.0004523914        0.0005313241
	             0.0027733448        0.0021737454       -0.0010468312
	            -0.0004389036       -0.0030180869       -0.0035700063
	            -0.0029039008       -0.0012892622        0.0006112064
	             0.0001734056        0.0016991754       -0.0013038523

	---Fragment 1 Intrafragment Coordinates---
	 - Coordinate -           - BOHR/RAD -       - ANG/DEG -
	 R(1,2)           =         1.783688	       0.943887
	 R(2,3)           =         2.631745	       1.392660
	 R(3,4)           =         2.848449	       1.507334
	 R(3,5)           =         2.044822	       1.082073
	 R(3,6)           =         2.049779	       1.084696
	 R(4,7)           =         2.499930	       1.322906
	 R(4,8)           =         2.500930	       1.323435
	 R(4,9)           =         2.493465	       1.319485
	 B(1,2,3)         =         1.927850	     110.457680
	 B(2,3,4)         =         1.905219	     109.161032
	 B(2,3,5)         =         1.914773	     109.708409
	 B(2,3,6)         =         1.999676	     114.572994
	 B(3,4,7)         =         1.952000	     111.841376
	 B(3,4,8)         =         1.911099	     109.497929
	 B(3,4,9)         =         1.952976	     111.897295
	 B(4,3,5)         =         1.878959	     107.656400
	 B(4,3,6)         =         1.874573	     107.405121
	 B(5,3,6)         =         1.886740	     108.102219
	 B(7,4,8)         =         1.881821	     107.820422
	 B(7,4,9)         =         1.885240	     108.016297
	 B(8,4,9)         =         1.877855	     107.593194
	 D(1,2,3,4)       =         2.133740	     122.254283
	*D(1,2,3,5)       =        -2.094395	    -120.000013
	 D(1,2,3,6)       =         0.031134	       1.783827
	 D(2,3,4,7)       =         0.978430	      56.059898
	 D(2,3,4,8)       =         3.063240	     175.510741
	 D(2,3,4,9)       =        -1.139472	     -65.286909
	 D(5,3,4,7)       =        -1.099031	     -62.969823
	 D(5,3,4,8)       =         0.985780	      56.481020
	 D(5,3,4,9)       =         3.066253	     175.683370
	 D(6,3,4,7)       =        -3.127098	    -179.169517
	 D(6,3,4,8)       =        -1.042287	     -59.718674
	 D(6,3,4,9)       =         1.038186	      59.483676

	Current energy   :      -450.6596436382

	Energy change for the previous step:
		Projected    :        -0.0061319633
		Actual       :        -0.0012807145
	Energy ratio indicates iffy step: Trust radius decreased to 1.250e-01.


	Performing BFGS update.
	Previous computed or guess Hessian on step 1.
	Steps to be used in Hessian update: 1
	Taking RFO optimization step.
	Going to follow RFO solution 1.
	Using RFO vector 1.

	Determining step-restricting scale parameter for RS-RFO.
	Maximum step size allowed    0.12500

	 Iter      |step|        alpha        rfo_root  
	------------------------------------------------
	    0     0.13453       1.00000           1
	    1     0.12598       1.78034           1
	    2     0.12501       1.87953           1
	    3     0.12500       1.88084           1
	------------------------------------------------
	Norm of target step-size    0.12500
	Projected energy change by RFO approximation:        -0.0001510295

	Back-transformation to cartesian coordinates...
	Successfully converged to displaced geometry.

	Back-transformation to cartesian coordinates to adjust frozen coordinates...
	Successfully converged to displaced geometry.

	--- Internal Coordinate Step in ANG or DEG, aJ/ANG or AJ/DEG ---
	 ---------------------------------------------------------------------------
	   Coordinate                Previous        Force       Change         New 
	   ----------                --------       ------       ------       ------
	    1 R(1,2)          =      0.943887     0.013271     0.000907     0.944794
	    2 R(2,3)          =      1.392660    -0.006843    -0.000450     1.392210
	    3 R(3,4)          =      1.507334     0.012143     0.001751     1.509086
	    4 R(3,5)          =      1.082073     0.005242     0.000558     1.082632
	    5 R(3,6)          =      1.084696    -0.008064    -0.000833     1.083863
	    6 R(4,7)          =      1.322906    -0.038101    -0.003376     1.319530
	    7 R(4,8)          =      1.323435     0.025782     0.002063     1.325499
	    8 R(4,9)          =      1.319485     0.015140     0.001284     1.320769
	    9 B(1,2,3)        =    110.457680     0.000102     0.391250   110.848929
	   10 B(2,3,4)        =    109.161032     0.000165     0.383766   109.544798
	   11 B(2,3,5)        =    109.708409     0.000072     0.789764   110.498173
	   12 B(2,3,6)        =    114.572994    -0.000286    -1.681190   112.891804
	   13 B(3,4,7)        =    111.841376     0.000067     0.156500   111.997875
	   14 B(3,4,8)        =    109.497929     0.000111     0.299407   109.797336
	   15 B(3,4,9)        =    111.897295    -0.000029    -0.132357   111.764938
	   16 B(4,3,5)        =    107.656400    -0.000032     0.755059   108.411459
	   17 B(4,3,6)        =    107.405121     0.000042    -0.202493   107.202628
	   18 B(5,3,6)        =    108.102219     0.000048     0.041882   108.144102
	   19 B(7,4,8)        =    107.820422    -0.000071    -0.085159   107.735263
	   20 B(7,4,9)        =    108.016297    -0.000073    -0.315446   107.700851
	   21 B(8,4,9)        =    107.593194    -0.000012     0.067554   107.660748
	   22 D(1,2,3,4)      =    122.254283    -0.000023    -1.629113   120.625170
	   23 *D(1,2,3,5)     =   -120.000013    -0.000000     0.000000  -120.000013
	   24 D(1,2,3,6)      =      1.783827    -0.000019    -0.536244     1.247583
	   25 D(2,3,4,7)      =     56.059898     0.000025     3.015855    59.075753
	   26 D(2,3,4,8)      =    175.510741     0.000031     3.208172   178.718913
	   27 D(2,3,4,9)      =    -65.286909     0.000040     3.406209   -61.880700
	   28 D(5,3,4,7)      =    -62.969823    -0.000012     1.394651   -61.575172
	   29 D(5,3,4,8)      =     56.481020    -0.000006     1.586968    58.067988
	   30 D(5,3,4,9)      =    175.683370     0.000004     1.785005   177.468375
	   31 D(6,3,4,7)      =   -179.169517    -0.000026     1.066181  -178.103336
	   32 D(6,3,4,8)      =    -59.718674    -0.000020     1.258498   -58.460176
	   33 D(6,3,4,9)      =     59.483676    -0.000010     1.456534    60.940210
	 ---------------------------------------------------------------------------

  ==> Convergence Check <==

  Measures of convergence in internal coordinates in au.
  Criteria marked as inactive (o), active & met (*), and active & unmet ( ).
  ---------------------------------------------------------------------------------------------
   Step     Total Energy     Delta E     MAX Force     RMS Force      MAX Disp      RMS Disp   
  ---------------------------------------------------------------------------------------------
    Convergence Criteria    1.00e-06 *    3.00e-04 *             o    1.20e-03 *             o
  ---------------------------------------------------------------------------------------------
      2    -450.65964364   -1.28e-03      4.62e-03      1.62e-03 o    5.94e-02      2.18e-02 o  ~
  ---------------------------------------------------------------------------------------------

	Writing optimization data to binary file.
	Structure for next step:
	Cartesian Geometry (in Angstrom)
	    H    -2.5262391790   0.1786144520   0.8443655720
	    O    -2.0127448942  -0.0804653938   0.0948073614
	    C    -0.9458382306   0.7923470704  -0.1005320350
	    C     0.3526517846   0.0270021335  -0.0262997749
	    H    -1.0119741783   1.2598691207  -1.0747705912
	    H    -0.8994938165   1.5755647894   0.6472522677
	    F     0.4137933904  -0.9315823403  -0.9310295834
	    F     1.3708184940   0.8485879934  -0.2390896778
	    F     0.5268038283  -0.5281841134   1.1593938635
			--------------------------
			 OPTKING Finished Execution 
			--------------------------

    Structure for next step:
    Molecular point group: c1
    Full point group: C1

    Geometry (in Angstrom), charge = 0, multiplicity = 1:

    H           -2.527527363468     0.178900680393     0.842257818316
    O           -2.014033117842    -0.080179145597     0.092699664995
    C           -0.947126535713     0.792633251973    -0.102639716435
    C            0.351363380309     0.027288373474    -0.028407462005
    H           -1.013262478396     1.260155266567    -1.076878198246
    H           -0.900782125149     1.575850911131     0.645144529126
    F            0.412504981393    -0.931296027135    -0.933137201460
    F            1.369530011965     0.848874170678    -0.241197348701
    F            0.525515410689    -0.527897831019     1.157286085845

gradient() will perform analytic gradient computation.

*** tstart() called on cx1-1-1-2.cx1.hpc.ic.ac.uk
*** at Fri Sep  2 12:28:19 2016


         ---------------------------------------------------------
                                   SCF
            by Justin Turney, Rob Parrish, and Andy Simmonett
                              RHF Reference
                        4 Threads,   2000 MiB Core
         ---------------------------------------------------------

  ==> Geometry <==

    Molecular point group: c1
    Full point group: C1

    Geometry (in Angstrom), charge = 0, multiplicity = 1:

       Center              X                  Y                   Z               Mass       
    ------------   -----------------  -----------------  -----------------  -----------------
           H         -2.527527363468     0.178900680393     0.842257818316     1.007825032070
           O         -2.014033117842    -0.080179145597     0.092699664995    15.994914619560
           C         -0.947126535713     0.792633251973    -0.102639716435    12.000000000000
           C          0.351363380309     0.027288373474    -0.028407462005    12.000000000000
           H         -1.013262478396     1.260155266567    -1.076878198246     1.007825032070
           H         -0.900782125149     1.575850911131     0.645144529126     1.007825032070
           F          0.412504981393    -0.931296027135    -0.933137201460    18.998403224000
           F          1.369530011965     0.848874170678    -0.241197348701    18.998403224000
           F          0.525515410689    -0.527897831019     1.157286085845    18.998403224000

  Running in c1 symmetry.

  Rotational constants: A =      0.18216  B =      0.09624  C =      0.09514 [cm^-1]
  Rotational constants: A =   5460.91123  B =   2885.22388  C =   2852.16762 [MHz]
  Nuclear repulsion =  276.787887653067571

  Charge       = 0
  Multiplicity = 1
  Electrons    = 50
  Nalpha       = 25
  Nbeta        = 25

  ==> Algorithm <==

  SCF Algorithm Type is DF.
  DIIS enabled.
  MOM disabled.
  Fractional occupation disabled.
  Guess Type is READ.
  Energy threshold   = 1.00e-08
  Density threshold  = 1.00e-08
  Integral threshold = 0.00e+00

  ==> Primary Basis <==

  Basis Set: 6-31G*
    Number of shells: 42
    Number of basis function: 96
    Number of Cartesian functions: 96
    Spherical Harmonics?: false
    Max angular momentum: 2

  ==> Pre-Iterations <==

   -------------------------------------------------------
    Irrep   Nso     Nmo     Nalpha   Nbeta   Ndocc  Nsocc
   -------------------------------------------------------
     A         96      96       0       0       0       0
   -------------------------------------------------------
    Total      96      96      25      25      25       0
   -------------------------------------------------------

 OEINTS: Overlap, kinetic, potential, dipole, and quadrupole integrals
         stored in file 35.

  ==> Integral Setup <==

  ==> DFJK: Density-Fitted J/K Matrices <==

    J tasked:                  Yes
    K tasked:                  Yes
    wK tasked:                  No
    OpenMP threads:              4
    Integrals threads:           4
    Memory (MB):              1430
    Algorithm:                Core
    Integral Cache:           NONE
    Schwarz Cutoff:          1E-12
    Fitting Condition:       1E-12

   => Auxiliary Basis Set <=

  Basis Set: 
    Number of shells: 171
    Number of basis function: 561
    Number of Cartesian functions: 561
    Spherical Harmonics?: false
    Max angular momentum: 3

  Minimum eigenvalue in the overlap matrix is 1.9706289280E-03.
  Using Symmetric Orthogonalization.
  SCF Guess: Reading in previously saved MOs, projecting if necessary.

  Using orbitals from previous SCF, no projection.
  Recomputing DOCC and SOCC from number of alpha and beta electrons from previous calculation.
              A 
    DOCC [    25 ]

  ==> Iterations <==

                           Total Energy        Delta E     RMS |[F,P]|

   @DF-RHF iter   0:  -450.65734831307890   -4.50657e+02   7.64885e-04 
   @DF-RHF iter   1:  -450.65978668940198   -2.43838e-03   1.07686e-04 
   @DF-RHF iter   2:  -450.65987827219845   -9.15828e-05   3.78323e-05 DIIS
   @DF-RHF iter   3:  -450.65989152525032   -1.32531e-05   1.26925e-05 DIIS
   @DF-RHF iter   4:  -450.65989230044892   -7.75199e-07   3.59881e-06 DIIS
   @DF-RHF iter   5:  -450.65989242432516   -1.23876e-07   9.73088e-07 DIIS
   @DF-RHF iter   6:  -450.65989243434643   -1.00213e-08   2.11297e-07 DIIS
   @DF-RHF iter   7:  -450.65989243475855   -4.12115e-10   5.30987e-08 DIIS
   @DF-RHF iter   8:  -450.65989243478413   -2.55795e-11   1.78601e-08 DIIS
   @DF-RHF iter   9:  -450.65989243478685   -2.72848e-12   6.19032e-09 DIIS

  ==> Post-Iterations <==

    Orbital Energies (a.u.)
    -----------------------

    Doubly Occupied:                                                      

       1A    -26.337369     2A    -26.334591     3A    -26.332053  
       4A    -20.589185     5A    -11.494979     6A    -11.310220  
       7A     -1.733599     8A     -1.632109     9A     -1.629441  
      10A     -1.400498    11A     -1.047356    12A     -0.917937  
      13A     -0.824571    14A     -0.823105    15A     -0.787849  
      16A     -0.737100    17A     -0.705637    18A     -0.695589  
      19A     -0.662090    20A     -0.650314    21A     -0.635056  
      22A     -0.632829    23A     -0.596331    24A     -0.532273  
      25A     -0.478887  

    Virtual:                                                              

      26A      0.198659    27A      0.270892    28A      0.290887  
      29A      0.349000    30A      0.422685    31A      0.428184  
      32A      0.479691    33A      0.484063    34A      0.699459  
      35A      0.745682    36A      0.762189    37A      0.779281  
      38A      0.820177    39A      0.878761    40A      0.948471  
      41A      1.061554    42A      1.111170    43A      1.152818  
      44A      1.213775    45A      1.242653    46A      1.315386  
      47A      1.326248    48A      1.352050    49A      1.404232  
      50A      1.453455    51A      1.471539    52A      1.526147  
      53A      1.616374    54A      1.631886    55A      1.653268  
      56A      1.676851    57A      1.679158    58A      1.691069  
      59A      1.743777    60A      1.883487    61A      1.914535  
      62A      1.959373    63A      1.971018    64A      1.974753  
      65A      2.124383    66A      2.147773    67A      2.153756  
      68A      2.174277    69A      2.265854    70A      2.285079  
      71A      2.332066    72A      2.374480    73A      2.396734  
      74A      2.412419    75A      2.426699    76A      2.433965  
      77A      2.500027    78A      2.561099    79A      2.636659  
      80A      2.716418    81A      2.841765    82A      2.859279  
      83A      2.901587    84A      3.125512    85A      3.152090  
      86A      3.190395    87A      3.265634    88A      3.422597  
      89A      3.428194    90A      3.460131    91A      4.135160  
      92A      4.608298    93A      4.780925    94A      4.899822  
      95A      5.119425    96A      5.702718  

    Final Occupation by Irrep:
              A 
    DOCC [    25 ]

  Energy converged.

  @DF-RHF Final Energy:  -450.65989243478685

   => Energetics <=

    Nuclear Repulsion Energy =            276.7878876530675711
    One-Electron Energy =               -1175.8536195965489242
    Two-Electron Energy =                 448.4058395086948394
    DFT Exchange-Correlation Energy =       0.0000000000000000
    Empirical Dispersion Energy =           0.0000000000000000
    PCM Polarization Energy =               0.0000000000000000
    EFP Energy =                            0.0000000000000000
    Total Energy =                       -450.6598924347864568

    Alert: EFP and PCM quantities not currently incorporated into SCF psivars.

Properties will be evaluated at   0.000000,   0.000000,   0.000000 Bohr
  ==> Properties <==


Properties computed using the SCF density matrix

  Nuclear Dipole Moment: (a.u.)
     X:    -6.3504      Y:     3.4017      Z:     0.4014

  Electronic Dipole Moment: (a.u.)
     X:     5.6767      Y:    -2.4623      Z:     0.0297

  Dipole Moment: (a.u.)
     X:    -0.6737      Y:     0.9394      Z:     0.4311     Total:     1.2338

  Dipole Moment: (Debye)
     X:    -1.7123      Y:     2.3878      Z:     1.0957     Total:     3.1359


  Saving occupied orbitals to File 180.

*** tstop() called on cx1-1-1-2.cx1.hpc.ic.ac.uk at Fri Sep  2 12:28:21 2016
Module time:
	user time   =       7.30 seconds =       0.12 minutes
	system time =       0.12 seconds =       0.00 minutes
	total time  =          2 seconds =       0.03 minutes
Total time:
	user time   =      41.28 seconds =       0.69 minutes
	system time =       0.73 seconds =       0.01 minutes
	total time  =         13 seconds =       0.22 minutes

*** tstart() called on cx1-1-1-2.cx1.hpc.ic.ac.uk
*** at Fri Sep  2 12:28:21 2016


         ------------------------------------------------------------
                                   SCF GRAD                          
                          Rob Parrish, Justin Turney,                
                       Andy Simmonett, and Alex Sokolov              
         ------------------------------------------------------------

  ==> Geometry <==

    Molecular point group: c1
    Full point group: C1

    Geometry (in Angstrom), charge = 0, multiplicity = 1:

       Center              X                  Y                   Z               Mass       
    ------------   -----------------  -----------------  -----------------  -----------------
           H         -2.527527363468     0.178900680393     0.842257818316     1.007825032070
           O         -2.014033117842    -0.080179145597     0.092699664995    15.994914619560
           C         -0.947126535713     0.792633251973    -0.102639716435    12.000000000000
           C          0.351363380309     0.027288373474    -0.028407462005    12.000000000000
           H         -1.013262478396     1.260155266567    -1.076878198246     1.007825032070
           H         -0.900782125149     1.575850911131     0.645144529126     1.007825032070
           F          0.412504981393    -0.931296027135    -0.933137201460    18.998403224000
           F          1.369530011965     0.848874170678    -0.241197348701    18.998403224000
           F          0.525515410689    -0.527897831019     1.157286085845    18.998403224000

  Nuclear repulsion =  276.787887653067514

  ==> Basis Set <==

  Basis Set: 6-31G*
    Number of shells: 42
    Number of basis function: 96
    Number of Cartesian functions: 96
    Spherical Harmonics?: false
    Max angular momentum: 2

  ==> DFJKGrad: Density-Fitted SCF Gradients <==

    Gradient:                    1
    J tasked:                  Yes
    K tasked:                  Yes
    wK tasked:                  No
    OpenMP threads:              4
    Integrals threads:           4
    Memory (MB):              1430
    Schwarz Cutoff:          0E+00
    Fitting Condition:       1E-12

   => Auxiliary Basis Set <=

  Basis Set: 
    Number of shells: 171
    Number of basis function: 561
    Number of Cartesian functions: 561
    Spherical Harmonics?: false
    Max angular momentum: 3


  -Total Gradient:
     Atom            X                  Y                   Z
    ------   -----------------  -----------------  -----------------
       1       -0.001047839453     0.000567716808    -0.001069594852
       2        0.000364626830    -0.001132945330     0.001739269881
       3        0.000540257555    -0.000971465784    -0.001618838292
       4        0.000519082330     0.001824833172     0.001834768524
       5       -0.000583448869     0.001227926317     0.000526695264
       6        0.000416785169     0.000209204113    -0.000111906554
       7        0.000014377091    -0.000825279246    -0.000505842380
       8       -0.000472834619    -0.000664721734     0.000056508075
       9        0.000248993969    -0.000235268319    -0.000851059664


*** tstop() called on cx1-1-1-2.cx1.hpc.ic.ac.uk at Fri Sep  2 12:28:24 2016
Module time:
	user time   =       8.42 seconds =       0.14 minutes
	system time =       0.17 seconds =       0.00 minutes
	total time  =          3 seconds =       0.05 minutes
Total time:
	user time   =      49.72 seconds =       0.83 minutes
	system time =       0.90 seconds =       0.01 minutes
	total time  =         16 seconds =       0.27 minutes
CURRENT ENERGY: -450.6598924348

			-----------------------------------------
			 OPTKING 2.0: for geometry optimizations 
			  - R.A. King,  Bethel University        
			-----------------------------------------

	Previous internal coordinate definitions found.
	---Fragment 1 Geometry and Gradient---
	 H          -4.7763345103        0.3380732909        1.5916366099
	 O          -3.8059710153       -0.1515166267        0.1751769795
	 C          -1.7898097657        1.4978597700       -0.1939609544
	 C           0.6639805619        0.0515675525       -0.0536823233
	 H          -1.9147885849        2.3813483387       -2.0350048732
	 H          -1.7022315219        2.9779266483        1.2191464762
	 F           0.7795214433       -1.7598944399       -1.7633737552
	 F           2.5880366534        1.6041397039       -0.4557969330
	 F           0.9930802048       -0.9975823268        2.1869537596
	            -0.0010478395        0.0005677168       -0.0010695949
	             0.0003646268       -0.0011329453        0.0017392699
	             0.0005402576       -0.0009714658       -0.0016188383
	             0.0005190823        0.0018248332        0.0018347685
	            -0.0005834489        0.0012279263        0.0005266953
	             0.0004167852        0.0002092041       -0.0001119066
	             0.0000143771       -0.0008252792       -0.0005058424
	            -0.0004728346       -0.0006647217        0.0000565081
	             0.0002489940       -0.0002352683       -0.0008510597

	---Fragment 1 Intrafragment Coordinates---
	 - Coordinate -           - BOHR/RAD -       - ANG/DEG -
	 R(1,2)           =         1.785402	       0.944794
	 R(2,3)           =         2.630896	       1.392210
	 R(3,4)           =         2.851758	       1.509086
	 R(3,5)           =         2.045877	       1.082632
	 R(3,6)           =         2.048204	       1.083863
	 R(4,7)           =         2.493549	       1.319530
	 R(4,8)           =         2.504829	       1.325499
	 R(4,9)           =         2.495891	       1.320769
	 B(1,2,3)         =         1.934679	     110.848929
	 B(2,3,4)         =         1.911917	     109.544798
	 B(2,3,5)         =         1.928557	     110.498173
	 B(2,3,6)         =         1.970334	     112.891804
	 B(3,4,7)         =         1.954732	     111.997875
	 B(3,4,8)         =         1.916325	     109.797336
	 B(3,4,9)         =         1.950666	     111.764938
	 B(4,3,5)         =         1.892137	     108.411459
	 B(4,3,6)         =         1.871039	     107.202628
	 B(5,3,6)         =         1.887471	     108.144102
	 B(7,4,8)         =         1.880335	     107.735263
	 B(7,4,9)         =         1.879734	     107.700851
	 B(8,4,9)         =         1.879035	     107.660748
	 D(1,2,3,4)       =         2.105306	     120.625170
	*D(1,2,3,5)       =        -2.094395	    -120.000013
	 D(1,2,3,6)       =         0.021774	       1.247583
	 D(2,3,4,7)       =         1.031066	      59.075753
	 D(2,3,4,8)       =         3.119233	     178.718913
	 D(2,3,4,9)       =        -1.080022	     -61.880700
	 D(5,3,4,7)       =        -1.074689	     -61.575172
	 D(5,3,4,8)       =         1.013478	      58.067988
	 D(5,3,4,9)       =         3.097407	     177.468375
	 D(6,3,4,7)       =        -3.108490	    -178.103336
	 D(6,3,4,8)       =        -1.020323	     -58.460176
	 D(6,3,4,9)       =         1.063607	      60.940210

	Current energy   :      -450.6598924348

	Energy change for the previous step:
		Projected    :        -0.0001510295
		Actual       :        -0.0002487966
	Energy ratio indicates good step: Trust radius increased to 3.750e-01.


	Performing BFGS update.
	Previous computed or guess Hessian on step 1.
	Steps to be used in Hessian update: 2 1
	Taking RFO optimization step.
	Going to follow RFO solution 1.
	Using RFO vector 1.
	Norm of target step-size    0.01282
	Projected energy change by RFO approximation:        -0.0000215273

	Back-transformation to cartesian coordinates...
	Successfully converged to displaced geometry.

	Back-transformation to cartesian coordinates to adjust frozen coordinates...
	Successfully converged to displaced geometry.

	--- Internal Coordinate Step in ANG or DEG, aJ/ANG or AJ/DEG ---
	 ---------------------------------------------------------------------------
	   Coordinate                Previous        Force       Change         New 
	   ----------                --------       ------       ------       ------
	    1 R(1,2)          =      0.944794     0.001017     0.000085     0.944879
	    2 R(2,3)          =      1.392210    -0.008007    -0.001010     1.391200
	    3 R(3,4)          =      1.509086    -0.001995    -0.000359     1.508727
	    4 R(3,5)          =      1.082632    -0.000758    -0.000168     1.082463
	    5 R(3,6)          =      1.083863    -0.000756    -0.000085     1.083778
	    6 R(4,7)          =      1.319530    -0.007802    -0.001145     1.318385
	    7 R(4,8)          =      1.325499     0.006462     0.000805     1.326303
	    8 R(4,9)          =      1.320769     0.005209     0.000652     1.321421
	    9 B(1,2,3)        =    110.848929    -0.000050    -0.200794   110.648135
	   10 B(2,3,4)        =    109.544798     0.000011    -0.007266   109.537532
	   11 B(2,3,5)        =    110.498173    -0.000010    -0.119818   110.378354
	   12 B(2,3,6)        =    112.891804    -0.000026    -0.146292   112.745512
	   13 B(3,4,7)        =    111.997875     0.000018     0.142378   112.140253
	   14 B(3,4,8)        =    109.797336    -0.000022    -0.108574   109.688762
	   15 B(3,4,9)        =    111.764938    -0.000070    -0.249516   111.515422
	   16 B(4,3,5)        =    108.411459    -0.000004     0.058875   108.470334
	   17 B(4,3,6)        =    107.202628     0.000022     0.129235   107.331863
	   18 B(5,3,6)        =    108.144102     0.000009     0.100416   108.244518
	   19 B(7,4,8)        =    107.735263     0.000009     0.055009   107.790272
	   20 B(7,4,9)        =    107.700851     0.000043     0.195205   107.896057
	   21 B(8,4,9)        =    107.660748     0.000026    -0.026806   107.633942
	   22 D(1,2,3,4)      =    120.625170     0.000001     0.005914   120.631084
	   23 *D(1,2,3,5)     =   -120.000013     0.000000    -0.000000  -120.000013
	   24 D(1,2,3,6)      =      1.247583    -0.000003    -0.057913     1.189670
	   25 D(2,3,4,7)      =     59.075753     0.000001    -0.065619    59.010134
	   26 D(2,3,4,8)      =    178.718913     0.000003     0.022358   178.741271
	   27 D(2,3,4,9)      =    -61.880700    -0.000004    -0.240471   -62.121171
	   28 D(5,3,4,7)      =    -61.575172     0.000003     0.048734   -61.526438
	   29 D(5,3,4,8)      =     58.067988     0.000005     0.136711    58.204699
	   30 D(5,3,4,9)      =    177.468375    -0.000002    -0.126119   177.342256
	   31 D(6,3,4,7)      =   -178.103336    -0.000002    -0.167753  -178.271089
	   32 D(6,3,4,8)      =    -58.460176    -0.000000    -0.079776   -58.539952
	   33 D(6,3,4,9)      =     60.940210    -0.000006    -0.342605    60.597605
	 ---------------------------------------------------------------------------

  ==> Convergence Check <==

  Measures of convergence in internal coordinates in au.
  Criteria marked as inactive (o), active & met (*), and active & unmet ( ).
  ---------------------------------------------------------------------------------------------
   Step     Total Energy     Delta E     MAX Force     RMS Force      MAX Disp      RMS Disp   
  ---------------------------------------------------------------------------------------------
    Convergence Criteria    1.00e-06 *    3.00e-04 *             o    1.20e-03 *             o
  ---------------------------------------------------------------------------------------------
      3    -450.65989243   -2.49e-04      9.72e-04      4.05e-04 o    5.98e-03      2.23e-03 o  ~
  ---------------------------------------------------------------------------------------------

	Writing optimization data to binary file.
	Structure for next step:
	Cartesian Geometry (in Angstrom)
	    H    -2.5242001464   0.1810085492   0.8422021782
	    O    -2.0130812100  -0.0797102588   0.0914824191
	    C    -0.9464145574   0.7920848208  -0.1025114507
	    C     0.3511667968   0.0257325431  -0.0300981909
	    H    -1.0144035243   1.2601108269  -1.0761932232
	    H    -0.9021714574   1.5734633586   0.6471985866
	    F     0.4135805739  -0.9321670824  -0.9337969236
	    F     1.3689745467   0.8493749765  -0.2416644903
	    F     0.5227307795  -0.5255678432   1.1585092933
			--------------------------
			 OPTKING Finished Execution 
			--------------------------

    Structure for next step:
    Molecular point group: c1
    Full point group: C1

    Geometry (in Angstrom), charge = 0, multiplicity = 1:

    H           -2.523991897346     0.180817022355     0.842538913448
    O           -2.012872999930    -0.079901765717     0.091819211597
    C           -0.946206428790     0.791893247292    -0.102174643368
    C            0.351374826321     0.025541028133    -0.029761389080
    H           -1.014195390587     1.259919217727    -1.075856341510
    H           -0.901963332179     1.573271725427     0.647535336693
    F            0.413788598612    -0.932358524200    -0.933460052759
    F            1.369182498458     0.849183398675    -0.241327672313
    F            0.522938795889    -0.525759316101     1.158846004390

gradient() will perform analytic gradient computation.

*** tstart() called on cx1-1-1-2.cx1.hpc.ic.ac.uk
*** at Fri Sep  2 12:28:24 2016


         ---------------------------------------------------------
                                   SCF
            by Justin Turney, Rob Parrish, and Andy Simmonett
                              RHF Reference
                        4 Threads,   2000 MiB Core
         ---------------------------------------------------------

  ==> Geometry <==

    Molecular point group: c1
    Full point group: C1

    Geometry (in Angstrom), charge = 0, multiplicity = 1:

       Center              X                  Y                   Z               Mass       
    ------------   -----------------  -----------------  -----------------  -----------------
           H         -2.523991897346     0.180817022355     0.842538913448     1.007825032070
           O         -2.012872999930    -0.079901765717     0.091819211597    15.994914619560
           C         -0.946206428790     0.791893247292    -0.102174643368    12.000000000000
           C          0.351374826321     0.025541028133    -0.029761389080    12.000000000000
           H         -1.014195390587     1.259919217727    -1.075856341510     1.007825032070
           H         -0.901963332179     1.573271725427     0.647535336693     1.007825032070
           F          0.413788598612    -0.932358524200    -0.933460052759    18.998403224000
           F          1.369182498458     0.849183398675    -0.241327672313    18.998403224000
           F          0.522938795889    -0.525759316101     1.158846004390    18.998403224000

  Running in c1 symmetry.

  Rotational constants: A =      0.18205  B =      0.09628  C =      0.09524 [cm^-1]
  Rotational constants: A =   5457.79750  B =   2886.27686  C =   2855.14891 [MHz]
  Nuclear repulsion =  276.821925021463642

  Charge       = 0
  Multiplicity = 1
  Electrons    = 50
  Nalpha       = 25
  Nbeta        = 25

  ==> Algorithm <==

  SCF Algorithm Type is DF.
  DIIS enabled.
  MOM disabled.
  Fractional occupation disabled.
  Guess Type is READ.
  Energy threshold   = 1.00e-08
  Density threshold  = 1.00e-08
  Integral threshold = 0.00e+00

  ==> Primary Basis <==

  Basis Set: 6-31G*
    Number of shells: 42
    Number of basis function: 96
    Number of Cartesian functions: 96
    Spherical Harmonics?: false
    Max angular momentum: 2

  ==> Pre-Iterations <==

   -------------------------------------------------------
    Irrep   Nso     Nmo     Nalpha   Nbeta   Ndocc  Nsocc
   -------------------------------------------------------
     A         96      96       0       0       0       0
   -------------------------------------------------------
    Total      96      96      25      25      25       0
   -------------------------------------------------------

 OEINTS: Overlap, kinetic, potential, dipole, and quadrupole integrals
         stored in file 35.

  ==> Integral Setup <==

  ==> DFJK: Density-Fitted J/K Matrices <==

    J tasked:                  Yes
    K tasked:                  Yes
    wK tasked:                  No
    OpenMP threads:              4
    Integrals threads:           4
    Memory (MB):              1430
    Algorithm:                Core
    Integral Cache:           NONE
    Schwarz Cutoff:          1E-12
    Fitting Condition:       1E-12

   => Auxiliary Basis Set <=

  Basis Set: 
    Number of shells: 171
    Number of basis function: 561
    Number of Cartesian functions: 561
    Spherical Harmonics?: false
    Max angular momentum: 3

  Minimum eigenvalue in the overlap matrix is 1.9705147834E-03.
  Using Symmetric Orthogonalization.
  SCF Guess: Reading in previously saved MOs, projecting if necessary.

  Using orbitals from previous SCF, no projection.
  Recomputing DOCC and SOCC from number of alpha and beta electrons from previous calculation.
              A 
    DOCC [    25 ]

  ==> Iterations <==

                           Total Energy        Delta E     RMS |[F,P]|

   @DF-RHF iter   0:  -450.66037953639255   -4.50660e+02   8.98156e-05 
   @DF-RHF iter   1:  -450.65989888026746    4.80656e-04   1.84107e-05 
   @DF-RHF iter   2:  -450.65990046688734   -1.58662e-06   9.63305e-06 DIIS
   @DF-RHF iter   3:  -450.65990079840782   -3.31520e-07   2.95371e-06 DIIS
   @DF-RHF iter   4:  -450.65990087841254   -8.00047e-08   5.28532e-07 DIIS
   @DF-RHF iter   5:  -450.65990088112397   -2.71143e-09   1.45431e-07 DIIS
   @DF-RHF iter   6:  -450.65990088132679   -2.02817e-10   4.79312e-08 DIIS
   @DF-RHF iter   7:  -450.65990088134237   -1.55751e-11   1.41381e-08 DIIS
   @DF-RHF iter   8:  -450.65990088134384   -1.47793e-12   4.10546e-09 DIIS

  ==> Post-Iterations <==

    Orbital Energies (a.u.)
    -----------------------

    Doubly Occupied:                                                      

       1A    -26.337094     2A    -26.334517     3A    -26.332991  
       4A    -20.589038     5A    -11.495042     6A    -11.309847  
       7A     -1.733536     8A     -1.631746     9A     -1.630207  
      10A     -1.400919    11A     -1.047234    12A     -0.917875  
      13A     -0.824781    14A     -0.823155    15A     -0.787879  
      16A     -0.737164    17A     -0.705748    18A     -0.695807  
      19A     -0.662183    20A     -0.650679    21A     -0.635385  
      22A     -0.632808    23A     -0.596377    24A     -0.532381  
      25A     -0.478614  

    Virtual:                                                              

      26A      0.198518    27A      0.271343    28A      0.291207  
      29A      0.349123    30A      0.423363    31A      0.428316  
      32A      0.479627    33A      0.483057    34A      0.699344  
      35A      0.745863    36A      0.762269    37A      0.779711  
      38A      0.820318    39A      0.880006    40A      0.948455  
      41A      1.061601    42A      1.111023    43A      1.153029  
      44A      1.213220    45A      1.242707    46A      1.315249  
      47A      1.326258    48A      1.352027    49A      1.404163  
      50A      1.453987    51A      1.471485    52A      1.525761  
      53A      1.616477    54A      1.631885    55A      1.653052  
      56A      1.676249    57A      1.678822    58A      1.691394  
      59A      1.744398    60A      1.883991    61A      1.914667  
      62A      1.958989    63A      1.972083    64A      1.974934  
      65A      2.124148    66A      2.147825    67A      2.153021  
      68A      2.174501    69A      2.266831    70A      2.286097  
      71A      2.332004    72A      2.375036    73A      2.396141  
      74A      2.412772    75A      2.424881    76A      2.436131  
      77A      2.499999    78A      2.561989    79A      2.636907  
      80A      2.716364    81A      2.841527    82A      2.863142  
      83A      2.899717    84A      3.124628    85A      3.153616  
      86A      3.191144    87A      3.265945    88A      3.422178  
      89A      3.427128    90A      3.461090    91A      4.135839  
      92A      4.608942    93A      4.783779    94A      4.900310  
      95A      5.117950    96A      5.699688  

    Final Occupation by Irrep:
              A 
    DOCC [    25 ]

  Energy converged.

  @DF-RHF Final Energy:  -450.65990088134384

   => Energetics <=

    Nuclear Repulsion Energy =            276.8219250214636418
    One-Electron Energy =               -1175.9176399135253632
    Two-Electron Energy =                 448.4358140107179906
    DFT Exchange-Correlation Energy =       0.0000000000000000
    Empirical Dispersion Energy =           0.0000000000000000
    PCM Polarization Energy =               0.0000000000000000
    EFP Energy =                            0.0000000000000000
    Total Energy =                       -450.6599008813437877

    Alert: EFP and PCM quantities not currently incorporated into SCF psivars.

Properties will be evaluated at   0.000000,   0.000000,   0.000000 Bohr
  ==> Properties <==


Properties computed using the SCF density matrix

  Nuclear Dipole Moment: (a.u.)
     X:    -6.3475      Y:     3.3996      Z:     0.4038

  Electronic Dipole Moment: (a.u.)
     X:     5.6761      Y:    -2.4661      Z:     0.0246

  Dipole Moment: (a.u.)
     X:    -0.6714      Y:     0.9335      Z:     0.4284     Total:     1.2271

  Dipole Moment: (Debye)
     X:    -1.7064      Y:     2.3728      Z:     1.0888     Total:     3.1189


  Saving occupied orbitals to File 180.

*** tstop() called on cx1-1-1-2.cx1.hpc.ic.ac.uk at Fri Sep  2 12:28:26 2016
Module time:
	user time   =       6.15 seconds =       0.10 minutes
	system time =       0.11 seconds =       0.00 minutes
	total time  =          2 seconds =       0.03 minutes
Total time:
	user time   =      56.33 seconds =       0.94 minutes
	system time =       1.02 seconds =       0.02 minutes
	total time  =         18 seconds =       0.30 minutes

*** tstart() called on cx1-1-1-2.cx1.hpc.ic.ac.uk
*** at Fri Sep  2 12:28:26 2016


         ------------------------------------------------------------
                                   SCF GRAD                          
                          Rob Parrish, Justin Turney,                
                       Andy Simmonett, and Alex Sokolov              
         ------------------------------------------------------------

  ==> Geometry <==

    Molecular point group: c1
    Full point group: C1

    Geometry (in Angstrom), charge = 0, multiplicity = 1:

       Center              X                  Y                   Z               Mass       
    ------------   -----------------  -----------------  -----------------  -----------------
           H         -2.523991897346     0.180817022355     0.842538913448     1.007825032070
           O         -2.012872999930    -0.079901765717     0.091819211597    15.994914619560
           C         -0.946206428790     0.791893247292    -0.102174643368    12.000000000000
           C          0.351374826321     0.025541028133    -0.029761389080    12.000000000000
           H         -1.014195390587     1.259919217727    -1.075856341510     1.007825032070
           H         -0.901963332179     1.573271725427     0.647535336693     1.007825032070
           F          0.413788598612    -0.932358524200    -0.933460052759    18.998403224000
           F          1.369182498458     0.849183398675    -0.241327672313    18.998403224000
           F          0.522938795889    -0.525759316101     1.158846004390    18.998403224000

  Nuclear repulsion =  276.821925021463642

  ==> Basis Set <==

  Basis Set: 6-31G*
    Number of shells: 42
    Number of basis function: 96
    Number of Cartesian functions: 96
    Spherical Harmonics?: false
    Max angular momentum: 2

  ==> DFJKGrad: Density-Fitted SCF Gradients <==

    Gradient:                    1
    J tasked:                  Yes
    K tasked:                  Yes
    wK tasked:                  No
    OpenMP threads:              4
    Integrals threads:           4
    Memory (MB):              1430
    Schwarz Cutoff:          0E+00
    Fitting Condition:       1E-12

   => Auxiliary Basis Set <=

  Basis Set: 
    Number of shells: 171
    Number of basis function: 561
    Number of Cartesian functions: 561
    Spherical Harmonics?: false
    Max angular momentum: 3


[...]

  ==> Post-Iterations <==

    Orbital Energies (a.u.)
    -----------------------

    Doubly Occupied:                                                      

       1A    -26.337034     2A    -26.334406     3A    -26.332968  
       4A    -20.589125     5A    -11.495037     6A    -11.309965  
       7A     -1.733571     8A     -1.631638     9A     -1.630187  
      10A     -1.400836    11A     -1.047306    12A     -0.917902  
      13A     -0.824729    14A     -0.823129    15A     -0.787880  
      16A     -0.737172    17A     -0.705716    18A     -0.695770  
      19A     -0.662090    20A     -0.650601    21A     -0.635290  
      22A     -0.632808    23A     -0.596445    24A     -0.532410  
      25A     -0.478728  

    Virtual:                                                              

      26A      0.198498    27A      0.271248    28A      0.291108  
      29A      0.349072    30A      0.423143    31A      0.428194  
      32A      0.479588    33A      0.483508    34A      0.699384  
      35A      0.745931    36A      0.762193    37A      0.779575  
      38A      0.820177    39A      0.879667    40A      0.948433  
      41A      1.061620    42A      1.111022    43A      1.152967  
      44A      1.213300    45A      1.242725    46A      1.315322  
      47A      1.326341    48A      1.351990    49A      1.404041  
      50A      1.453890    51A      1.471359    52A      1.525946  
      53A      1.616513    54A      1.631891    55A      1.653127  
      56A      1.676495    57A      1.678880    58A      1.691030  
      59A      1.744307    60A      1.883619    61A      1.914709  
      62A      1.959024    63A      1.971738    64A      1.974807  
      65A      2.124224    66A      2.147877    67A      2.153145  
      68A      2.174558    69A      2.266394    70A      2.285894  
      71A      2.331864    72A      2.374921    73A      2.396612  
      74A      2.412977    75A      2.425658    76A      2.435354  
      77A      2.500047    78A      2.561772    79A      2.636585  
      80A      2.716155    81A      2.841039    82A      2.862730  
      83A      2.899938    84A      3.124759    85A      3.153181  
      86A      3.191025    87A      3.265839    88A      3.421964  
      89A      3.427534    90A      3.460952    91A      4.135522  
      92A      4.608752    93A      4.783340    94A      4.900121  
      95A      5.116835    96A      5.701236  

    Final Occupation by Irrep:
              A 
    DOCC [    25 ]

  Energy converged.

  @DF-RHF Final Energy:  -450.65990248572115

   => Energetics <=

    Nuclear Repulsion Energy =            276.8070556312728172
    One-Electron Energy =               -1175.8884284727605518
    Two-Electron Energy =                 448.4214703557667008
    DFT Exchange-Correlation Energy =       0.0000000000000000
    Empirical Dispersion Energy =           0.0000000000000000
    PCM Polarization Energy =               0.0000000000000000
    EFP Energy =                            0.0000000000000000
    Total Energy =                       -450.6599024857210907

    Alert: EFP and PCM quantities not currently incorporated into SCF psivars.

Properties will be evaluated at   0.000000,   0.000000,   0.000000 Bohr
  ==> Properties <==


Properties computed using the SCF density matrix

  Nuclear Dipole Moment: (a.u.)
     X:    -6.3494      Y:     3.3994      Z:     0.4049

  Electronic Dipole Moment: (a.u.)
     X:     5.6765      Y:    -2.4661      Z:     0.0238

  Dipole Moment: (a.u.)
     X:    -0.6728      Y:     0.9334      Z:     0.4286     Total:     1.2278

  Dipole Moment: (Debye)
     X:    -1.7101      Y:     2.3724      Z:     1.0894     Total:     3.1208


  Saving occupied orbitals to File 180.

*** tstop() called on cx1-1-1-2.cx1.hpc.ic.ac.uk at Fri Sep  2 12:28:32 2016
Module time:
	user time   =       7.82 seconds =       0.13 minutes
	system time =       0.14 seconds =       0.00 minutes
	total time  =          3 seconds =       0.05 minutes
Total time:
	user time   =      73.41 seconds =       1.22 minutes
	system time =       1.31 seconds =       0.02 minutes
	total time  =         24 seconds =       0.40 minutes

*** tstart() called on cx1-1-1-2.cx1.hpc.ic.ac.uk
*** at Fri Sep  2 12:28:32 2016


         ------------------------------------------------------------
                                   SCF GRAD                          
                          Rob Parrish, Justin Turney,                
                       Andy Simmonett, and Alex Sokolov              
         ------------------------------------------------------------

  ==> Geometry <==

    Molecular point group: c1
    Full point group: C1

    Geometry (in Angstrom), charge = 0, multiplicity = 1:

       Center              X                  Y                   Z               Mass       
    ------------   -----------------  -----------------  -----------------  -----------------
           H         -2.525378344111     0.179678137860     0.841616069500     1.007825032070
           O         -2.013828834714    -0.079817009118     0.090746127138    15.994914619560
           C         -0.946535778183     0.792001744255    -0.101801261293    12.000000000000
           C          0.351252824750     0.025932593492    -0.029553522056    12.000000000000
           H         -1.013608762120     1.261708560937    -1.074832694099     1.007825032070
           H         -0.902036351679     1.572093836486     0.649023504424     1.007825032070
           F          0.412890426058    -0.933232303446    -0.931158674969    18.998403224000
           F          1.369742393718     0.848460322970    -0.243773227588    18.998403224000
           F          0.524413188405    -0.524521694763     1.159442193556    18.998403224000

  Nuclear repulsion =  276.807055631272817

  ==> Basis Set <==

  Basis Set: 6-31G*
    Number of shells: 42
    Number of basis function: 96
    Number of Cartesian functions: 96
    Spherical Harmonics?: false
    Max angular momentum: 2

  ==> DFJKGrad: Density-Fitted SCF Gradients <==

    Gradient:                    1
    J tasked:                  Yes
    K tasked:                  Yes
    wK tasked:                  No
    OpenMP threads:              4
    Integrals threads:           4
    Memory (MB):              1430
    Schwarz Cutoff:          0E+00
    Fitting Condition:       1E-12

   => Auxiliary Basis Set <=

  Basis Set: 
    Number of shells: 171
    Number of basis function: 561
    Number of Cartesian functions: 561
    Spherical Harmonics?: false
    Max angular momentum: 3


  -Total Gradient:
     Atom            X                  Y                   Z
    ------   -----------------  -----------------  -----------------
       1       -0.000890161635     0.000918538899    -0.000925965774
       2        0.000941153867    -0.000797974100     0.001247554882
       3        0.000689435765    -0.001155420692    -0.000846781269
       4        0.000007971357     0.000061636022     0.000135220844
       5       -0.000764883528     0.000993995396     0.000548157285
       6       -0.000009488384    -0.000007460636     0.000004358016
       7        0.000036887259     0.000010177251    -0.000000049788
       8        0.000039479687    -0.000043785785    -0.000060258893
       9       -0.000050394391     0.000020293650    -0.000102235299


*** tstop() called on cx1-1-1-2.cx1.hpc.ic.ac.uk at Fri Sep  2 12:28:34 2016
Module time:
	user time   =       8.80 seconds =       0.15 minutes
	system time =       0.16 seconds =       0.00 minutes
	total time  =          2 seconds =       0.03 minutes
Total time:
	user time   =      82.24 seconds =       1.37 minutes
	system time =       1.47 seconds =       0.02 minutes
	total time  =         26 seconds =       0.43 minutes
CURRENT ENERGY: -450.6599024857

			-----------------------------------------
			 OPTKING 2.0: for geometry optimizations 
			  - R.A. King,  Bethel University        
			-----------------------------------------

	Previous internal coordinate definitions found.
	---Fragment 1 Geometry and Gradient---
	 H          -4.7722734523        0.3395424726        1.5904238804
	 O          -3.8055849761       -0.1508322880        0.1714853279
	 C          -1.7886933957        1.4966663934       -0.1923765038
	 C           0.6637716422        0.0490054996       -0.0558480629
	 H          -1.9154429663        2.3842836397       -2.0311394305
	 H          -1.7046016666        2.9708268062        1.2264766772
	 F           0.7802498281       -1.7635534719       -1.7596348820
	 F           2.5884379967        1.6033576450       -0.4606646387
	 F           0.9909973066       -0.9912023539        2.1910282127
	            -0.0008901616        0.0009185389       -0.0009259658
	             0.0009411539       -0.0007979741        0.0012475549
	             0.0006894358       -0.0011554207       -0.0008467813
	             0.0000079714        0.0000616360        0.0001352208
	            -0.0007648835        0.0009939954        0.0005481573
	            -0.0000094884       -0.0000074606        0.0000043580
	             0.0000368873        0.0000101773       -0.0000000498
	             0.0000394797       -0.0000437858       -0.0000602589
	            -0.0000503944        0.0000202937       -0.0001022353

	---Fragment 1 Intrafragment Coordinates---
	 - Coordinate -           - BOHR/RAD -       - ANG/DEG -
	 R(1,2)           =         1.785593	       0.944895
	 R(2,3)           =         2.629543	       1.391495
	 R(3,4)           =         2.851131	       1.508754
	 R(3,5)           =         2.045722	       1.082550
	 R(3,6)           =         2.047771	       1.083634
	 R(4,7)           =         2.490347	       1.317835
	 R(4,8)           =         2.506836	       1.326561
	 R(4,9)           =         2.497511	       1.321626
	 B(1,2,3)         =         1.931725	     110.679699
	 B(2,3,4)         =         1.912417	     109.573401
	 B(2,3,5)         =         1.926979	     110.407782
	 B(2,3,6)         =         1.967797	     112.746440
	 B(3,4,7)         =         1.957382	     112.149716
	 B(3,4,8)         =         1.915430	     109.746039
	 B(3,4,9)         =         1.946855	     111.546565
	 B(4,3,5)         =         1.892985	     108.460054
	 B(4,3,6)         =         1.872366	     107.278690
	 B(5,3,6)         =         1.889120	     108.238575
	 B(7,4,8)         =         1.880629	     107.752096
	 B(7,4,9)         =         1.882026	     107.832143
	 B(8,4,9)         =         1.878566	     107.633884
	 D(1,2,3,4)       =         2.104922	     120.603120
	*D(1,2,3,5)       =        -2.094395	    -120.000013
	 D(1,2,3,6)       =         0.021009	       1.203724
	 D(2,3,4,7)       =         1.026647	      58.822517
	 D(2,3,4,8)       =         3.116291	     178.550310
	 D(2,3,4,9)       =        -1.086559	     -62.255230
	 D(5,3,4,7)       =        -1.078004	     -61.765061
	 D(5,3,4,8)       =         1.011641	      57.962732
	 D(5,3,4,9)       =         3.091976	     177.157192
	 D(6,3,4,7)       =        -3.114875	    -178.469200
	 D(6,3,4,8)       =        -1.025231	     -58.741406
	 D(6,3,4,9)       =         1.055105	      60.453054

	Current energy   :      -450.6599024857

	Energy change for the previous step:
		Projected    :        -0.0000033997
		Actual       :        -0.0000016044

	Performing BFGS update.
	Previous computed or guess Hessian on step 1.
	Steps to be used in Hessian update: 4 3
	Taking RFO optimization step.
	Going to follow RFO solution 1.
	Using RFO vector 1.
	Norm of target step-size    0.00124
	Projected energy change by RFO approximation:        -0.0000001722

	Back-transformation to cartesian coordinates...
	Successfully converged to displaced geometry.

	Back-transformation to cartesian coordinates to adjust frozen coordinates...
	Successfully converged to displaced geometry.

	--- Internal Coordinate Step in ANG or DEG, aJ/ANG or AJ/DEG ---
	 ---------------------------------------------------------------------------
	   Coordinate                Previous        Force       Change         New 
	   ----------                --------       ------       ------       ------
	    1 R(1,2)          =      0.944895     0.000014     0.000003     0.944898
	    2 R(2,3)          =      1.391495     0.000578     0.000084     1.391578
	    3 R(3,4)          =      1.508754    -0.000028    -0.000007     1.508746
	    4 R(3,5)          =      1.082550     0.000116     0.000024     1.082573
	    5 R(3,6)          =      1.083634     0.000023    -0.000007     1.083627
	    6 R(4,7)          =      1.317835     0.000047    -0.000047     1.317788
	    7 R(4,8)          =      1.326561    -0.000106     0.000016     1.326577
	    8 R(4,9)          =      1.321626     0.000882     0.000107     1.321733
	    9 B(1,2,3)        =    110.679699     0.000003     0.013272   110.692971
	   10 B(2,3,4)        =    109.573401    -0.000004    -0.009694   109.563707
	   11 B(2,3,5)        =    110.407782     0.000003     0.023141   110.430923
	   12 B(2,3,6)        =    112.746440     0.000001    -0.000784   112.745656
	   13 B(3,4,7)        =    112.149716    -0.000002     0.003028   112.152744
	   14 B(3,4,8)        =    109.746039    -0.000007    -0.021645   109.724394
	   15 B(3,4,9)        =    111.546565     0.000004     0.006779   111.553344
	   16 B(4,3,5)        =    108.460054     0.000000     0.001097   108.461150
	   17 B(4,3,6)        =    107.278690     0.000000    -0.007894   107.270796
	   18 B(5,3,6)        =    108.238575    -0.000001    -0.006631   108.231944
	   19 B(7,4,8)        =    107.752096     0.000006     0.022086   107.774182
	   20 B(7,4,9)        =    107.832143     0.000001     0.006744   107.838887
	   21 B(8,4,9)        =    107.633884    -0.000001    -0.016834   107.617050
	   22 D(1,2,3,4)      =    120.603120    -0.000000    -0.009564   120.593555
	   23 *D(1,2,3,5)     =   -120.000013    -0.000000    -0.000000  -120.000013
	   24 D(1,2,3,6)      =      1.203724     0.000000     0.007502     1.211226
	   25 D(2,3,4,7)      =     58.822517     0.000000     0.016339    58.838856
	   26 D(2,3,4,8)      =    178.550310     0.000001     0.031496   178.581806
	   27 D(2,3,4,9)      =    -62.255230    -0.000000     0.000661   -62.254569
	   28 D(5,3,4,7)      =    -61.765061    -0.000000    -0.006723   -61.771784
	   29 D(5,3,4,8)      =     57.962732     0.000000     0.008434    57.971166
	   30 D(5,3,4,9)      =    177.157192    -0.000001    -0.022401   177.134791
	   31 D(6,3,4,7)      =   -178.469200     0.000000     0.004679  -178.464521
	   32 D(6,3,4,8)      =    -58.741406     0.000000     0.019836   -58.721571
	   33 D(6,3,4,9)      =     60.453054    -0.000000    -0.010999    60.442054
	 ---------------------------------------------------------------------------

  ==> Convergence Check <==

  Measures of convergence in internal coordinates in au.
  Criteria marked as inactive (o), active & met (*), and active & unmet ( ).
  ---------------------------------------------------------------------------------------------
   Step     Total Energy     Delta E     MAX Force     RMS Force      MAX Disp      RMS Disp   
  ---------------------------------------------------------------------------------------------
    Convergence Criteria    1.00e-06 *    3.00e-04 *             o    1.20e-03 *             o
  ---------------------------------------------------------------------------------------------
      5    -450.65990249   -1.60e-06      1.07e-04 *    3.79e-05 o    5.50e-04 *    2.16e-04 o  ~
  ---------------------------------------------------------------------------------------------


  **** Optimization is complete! (in 5 steps) ****

  ==> Optimization Summary <==

  Measures of convergence in internal coordinates in au.
  --------------------------------------------------------------------------------------------------------------- ~
   Step         Total Energy             Delta E       MAX Force       RMS Force        MAX Disp        RMS Disp  ~
  --------------------------------------------------------------------------------------------------------------- ~
      1    -450.658362923631   -450.658362923631      0.01161909      0.00390512      0.11779670      0.03939745  ~
      2    -450.659643638180     -0.001280714549      0.00462460      0.00162037      0.05944956      0.02175939  ~
      3    -450.659892434787     -0.000248796607      0.00097189      0.00040479      0.00597959      0.00223125  ~
      4    -450.659900881344     -0.000008446557      0.00061308      0.00019634      0.00422311      0.00183117  ~
      5    -450.659902485721     -0.000001604377      0.00010703      0.00003788      0.00054971      0.00021633  ~
  --------------------------------------------------------------------------------------------------------------- ~

	Writing optimization data to binary file.
	Final energy is   -450.6599024857211
	Final (previous) structure:
	Cartesian Geometry (in Angstrom)
	    H    -2.5253785370   0.1796781516   0.8416161338
	    O    -2.0138289885  -0.0798170152   0.0907461341
	    C    -0.9465358505   0.7920018047  -0.1018012691
	    C     0.3512528516   0.0259325955  -0.0295535243
	    H    -1.0136088395   1.2617086573  -1.0748327762
	    H    -0.9020364206   1.5720939565   0.6490235540
	    F     0.4128904576  -0.9332323747  -0.9311587461
	    F     1.3697424983   0.8484603878  -0.2437732462
	    F     0.5244132285  -0.5245217348   1.1594422821
	Saving final (previous) structure.
			--------------------------
			 OPTKING Finished Execution 
			--------------------------

    Final optimized geometry and variables:
    Molecular point group: c1
    Full point group: C1

    Geometry (in Angstrom), charge = 0, multiplicity = 1:

    H           -2.525378344111     0.179678137860     0.841616069500
    O           -2.013828834714    -0.079817009118     0.090746127138
    C           -0.946535778183     0.792001744255    -0.101801261293
    C            0.351252824750     0.025932593492    -0.029553522056
    H           -1.013608762120     1.261708560937    -1.074832694099
    H           -0.902036351679     1.572093836486     0.649023504424
    F            0.412890426058    -0.933232303446    -0.931158674969
    F            1.369742393718     0.848460322970    -0.243773227588
    F            0.524413188405    -0.524521694763     1.159442193556

	Cleaning optimization helper files.


Properties will be evaluated at   0.000000,   0.000000,   0.000000 Bohr

Properties computed using the  density matrix

  Nuclear Dipole Moment: (a.u.)
     X:    -6.3494      Y:     3.3994      Z:     0.4049

  Electronic Dipole Moment: (a.u.)
     X:     5.6765      Y:    -2.4661      Z:     0.0238

  Dipole Moment: (a.u.)
     X:    -0.6728      Y:     0.9334      Z:     0.4286     Total:     1.2278

  Dipole Moment: (Debye)
     X:    -1.7101      Y:     2.3724      Z:     1.0894     Total:     3.1208

  Quadrupole Moment: (Debye Ang)
    XX:   -31.3923     YY:   -31.9163     ZZ:   -31.4160
    XY:    -3.4905     XZ:    -3.5922     YZ:     0.2698

  Traceless Quadrupole Moment: (Debye Ang)
    XX:     0.1825     YY:    -0.3414     ZZ:     0.1589
    XY:    -3.4905     XZ:    -3.5922     YZ:     0.2698

  Mulliken Charges: (a.u.)
   Center  Symbol    Alpha    Beta     Spin     Total
       1     H     0.27071  0.27071  0.00000  0.45858
       2     O     4.36304  4.36304  0.00000 -0.72609
       3     C     3.05715  3.05715  0.00000 -0.11431
       4     C     2.45485  2.45485  0.00000  1.09031
       5     H     0.40253  0.40253  0.00000  0.19495
       6     H     0.40982  0.40982  0.00000  0.18036
       7     F     4.67621  4.67621  0.00000 -0.35243
       8     F     4.68502  4.68502  0.00000 -0.37004
       9     F     4.68067  4.68067  0.00000 -0.36133

   Total alpha = 25.00000, Total beta = 25.00000, Total charge =  0.00000


*** PSI4 exiting successfully. Buy a developer a beer!
