    -----------------------------------------------------------------------
          Psi4: An Open-Source Ab Initio Electronic Structure Package
                              Psi4 (no tag) Driver

                          Git: Rev {detached?}  

    J. M. Turney, A. C. Simmonett, R. M. Parrish, E. G. Hohenstein,
    F. A. Evangelista, J. T. Fermann, B. J. Mintz, L. A. Burns, J. J. Wilke,
    M. L. Abrams, N. J. Russ, M. L. Leininger, C. L. Janssen, E. T. Seidl,
    W. D. Allen, H. F. Schaefer, R. A. King, E. F. Valeev, C. D. Sherrill,
    and T. D. Crawford, WIREs Comput. Mol. Sci. 2, 556-565 (2012)
    (doi: 10.1002/wcms.93)

                         Additional Contributions by
    A. E. DePrince, M. Saitow, U. Bozkaya, A. Yu. Sokolov
    -----------------------------------------------------------------------


    Psi4 started on: Fri Sep  2 15:34:27 2016

    Process ID:  17164
    PSI4DATADIR: /export131/home/mjharvey/miniconda3/share
    Memory level set to 256.000 MB

  ==> Input File <==

--------------------------------------------------------------------------
set {
	reference rhf
	basis 6-31G*
}


set_num_threads( 4 )
memory 2 gb

molecule MOL {
0 1

H	 3.462098	 1.063521	 0.488894
O	 2.545597	 0.932427	 0.711595
C	 2.077727	 -0.067559	 -0.035091
C	 0.624473	 -0.343591	 0.253101
O	 2.759781	 -0.642494	 -0.819481
C	 -0.265902	 0.883932	 0.072916
H	 0.324016	 -1.163849	 -0.390541
H	 0.565024	 -0.726111	 1.268924
C	 -1.728698	 0.646073	 0.462102
H	 -0.209144	 1.219470	 -0.958188
H	 0.135059	 1.692851	 0.673903
C	 -2.482460	 -0.343073	 -0.431425
H	 -2.245265	 1.602650	 0.432430
H	 -1.779332	 0.308348	 1.496285
C	 -3.960546	 -0.461025	 -0.060175
H	 -2.395034	 -0.026811	 -1.468912
H	 -2.024850	 -1.327147	 -0.371646
H	 -4.472726	 -1.168004	 -0.705284
H	 -4.465146	 0.496508	 -0.151489
H	 -4.081218	 -0.800940	 0.964585

	symmetry c1
}
set optking {
	frozen_dihedral = ("
		5 3 4 7
	")
}

ee = optimize('scf')
oeprop('DIPOLE', 'QUADRUPOLE', 'MULLIKEN_CHARGES')
f=open( 'psi4out.xyz', 'w' )
f.write( "20  " )
f.write( str(ee) + "\n" )
f.write( MOL.save_string_xyz() )
f.close()
--------------------------------------------------------------------------

  Memory set to   2.000 GiB by Python script.
gradient() will perform analytic gradient computation.

*** tstart() called on cx1-1-2-3.cx1.hpc.ic.ac.uk
*** at Fri Sep  2 15:34:27 2016


         ---------------------------------------------------------
                                   SCF
            by Justin Turney, Rob Parrish, and Andy Simmonett
                              RHF Reference
                        4 Threads,   2000 MiB Core
         ---------------------------------------------------------

  ==> Geometry <==

    Molecular point group: c1
    Full point group: C1

    Geometry (in Angstrom), charge = 0, multiplicity = 1:

       Center              X                  Y                   Z               Mass       
    ------------   -----------------  -----------------  -----------------  -----------------
           H          3.473183161755     0.980872185201     0.465630812636     1.007825032070
           O          2.556682161755     0.849778185201     0.688331812636    15.994914619560
           C          2.088812161755    -0.150207814799    -0.058354187364    12.000000000000
           C          0.635558161755    -0.426239814799     0.229837812636    12.000000000000
           O          2.770866161755    -0.725142814799    -0.842744187364    15.994914619560
           C         -0.254816838245     0.801283185201     0.049652812636    12.000000000000
           H          0.335101161755    -1.246497814799    -0.413804187364     1.007825032070
           H          0.576109161755    -0.808759814799     1.245660812636     1.007825032070
           C         -1.717612838245     0.563424185201     0.438838812636    12.000000000000
           H         -0.198058838245     1.136821185201    -0.981451187364     1.007825032070
           H          0.146144161755     1.610202185201     0.650639812636     1.007825032070
           C         -2.471374838245    -0.425721814799    -0.454688187364    12.000000000000
           H         -2.234179838245     1.520001185201     0.409166812636     1.007825032070
           H         -1.768246838245     0.225699185201     1.473021812636     1.007825032070
           C         -3.949460838245    -0.543673814799    -0.083438187364    12.000000000000
           H         -2.383948838245    -0.109459814799    -1.492175187364     1.007825032070
           H         -2.013764838245    -1.409795814799    -0.394909187364     1.007825032070
           H         -4.461640838245    -1.250652814799    -0.728547187364     1.007825032070
           H         -4.454060838245     0.413859185201    -0.174752187364     1.007825032070
           H         -4.070132838245    -0.883588814799     0.941321812636     1.007825032070

  Running in c1 symmetry.

  Rotational constants: A =      0.19518  B =      0.02458  C =      0.02276 [cm^-1]
  Rotational constants: A =   5851.48648  B =    736.85889  C =    682.40730 [MHz]
  Nuclear repulsion =  376.732869304641326

  Charge       = 0
  Multiplicity = 1
  Electrons    = 64
  Nalpha       = 32
  Nbeta        = 32

  ==> Algorithm <==

  SCF Algorithm Type is DF.
  DIIS enabled.
  MOM disabled.
  Fractional occupation disabled.
  Guess Type is CORE.
  Energy threshold   = 1.00e-08
  Density threshold  = 1.00e-08
  Integral threshold = 0.00e+00

  ==> Primary Basis <==

  Basis Set: 6-31G*
    Number of shells: 72
    Number of basis function: 144
    Number of Cartesian functions: 144
    Spherical Harmonics?: false
    Max angular momentum: 2

  ==> Pre-Iterations <==

   -------------------------------------------------------
    Irrep   Nso     Nmo     Nalpha   Nbeta   Ndocc  Nsocc
   -------------------------------------------------------
     A        144     144       0       0       0       0
   -------------------------------------------------------
    Total     144     144      32      32      32       0
   -------------------------------------------------------

 OEINTS: Overlap, kinetic, potential, dipole, and quadrupole integrals
         stored in file 35.

  ==> Integral Setup <==

  ==> DFJK: Density-Fitted J/K Matrices <==

    J tasked:                  Yes
    K tasked:                  Yes
    wK tasked:                  No
    OpenMP threads:              4
    Integrals threads:           4
    Memory (MB):              1430
    Algorithm:                Core
    Integral Cache:           NONE
    Schwarz Cutoff:          1E-12
    Fitting Condition:       1E-12

   => Auxiliary Basis Set <=

  Basis Set: 
    Number of shells: 300
    Number of basis function: 948
    Number of Cartesian functions: 948
    Spherical Harmonics?: false
    Max angular momentum: 3

  Minimum eigenvalue in the overlap matrix is 3.0416102699E-03.
  Using Symmetric Orthogonalization.
  SCF Guess: Core (One-Electron) Hamiltonian.

  ==> Iterations <==

                           Total Energy        Delta E     RMS |[F,P]|

   @DF-RHF iter   1:  -290.89464496467463   -2.90895e+02   6.27031e-02 
   @DF-RHF iter   2:   -90.49301899177703    2.00402e+02   9.53556e-02 DIIS
   @DF-RHF iter   3:  -361.30254313483670   -2.70810e+02   3.13005e-02 DIIS
   @DF-RHF iter   4:  -304.61816578069192    5.66844e+01   6.33677e-02 DIIS
   @DF-RHF iter   5:  -369.69251016112969   -6.50743e+01   2.97790e-02 DIIS
   @DF-RHF iter   6:  -383.47348668578616   -1.37810e+01   6.16659e-03 DIIS
   @DF-RHF iter   7:  -383.88304400741879   -4.09557e-01   2.28109e-03 DIIS
   @DF-RHF iter   8:  -383.93847885932178   -5.54349e-02   7.24746e-04 DIIS
   @DF-RHF iter   9:  -383.94583348069568   -7.35462e-03   2.65608e-04 DIIS
   @DF-RHF iter  10:  -383.94676063759266   -9.27157e-04   9.83159e-05 DIIS
   @DF-RHF iter  11:  -383.94691564658001   -1.55009e-04   2.24106e-05 DIIS
   @DF-RHF iter  12:  -383.94692998447715   -1.43379e-05   7.59856e-06 DIIS
   @DF-RHF iter  13:  -383.94693147820817   -1.49373e-06   2.78902e-06 DIIS
   @DF-RHF iter  14:  -383.94693171055997   -2.32352e-07   1.08641e-06 DIIS
   @DF-RHF iter  15:  -383.94693175483803   -4.42781e-08   3.71684e-07 DIIS
   @DF-RHF iter  16:  -383.94693176088310   -6.04507e-09   1.17902e-07 DIIS
   @DF-RHF iter  17:  -383.94693176141948   -5.36375e-10   5.17811e-08 DIIS
   @DF-RHF iter  18:  -383.94693176151281   -9.33369e-11   2.20113e-08 DIIS
   @DF-RHF iter  19:  -383.94693176153146   -1.86446e-11   7.44239e-09 DIIS

  ==> Post-Iterations <==

    Orbital Energies (a.u.)
    -----------------------

    Doubly Occupied:                                                      

       1A    -20.612824     2A    -20.550308     3A    -11.380131  
       4A    -11.238584     5A    -11.230146     6A    -11.223809  
       7A    -11.221459     8A    -11.213359     9A     -1.474271  
      10A     -1.364617    11A     -1.099588    12A     -1.042446  
      13A     -0.960291    14A     -0.863673    15A     -0.824062  
      16A     -0.790649    17A     -0.700954    18A     -0.685939  
      19A     -0.643447    20A     -0.637654    21A     -0.614413  
      22A     -0.592119    23A     -0.578431    24A     -0.554710  
      25A     -0.540251    26A     -0.519186    27A     -0.500497  
      28A     -0.482472    29A     -0.477425    30A     -0.469896  
      31A     -0.458305    32A     -0.434597  

    Virtual:                                                              

      33A      0.192620    34A      0.221345    35A      0.237189  
      36A      0.262333    37A      0.266232    38A      0.269075  
      39A      0.303702    40A      0.316464    41A      0.327222  
      42A      0.333097    43A      0.338752    44A      0.345806  
      45A      0.357367    46A      0.401991    47A      0.429699  
      48A      0.436637    49A      0.438080    50A      0.452562  
      51A      0.512342    52A      0.555493    53A      0.699243  
      54A      0.703707    55A      0.738310    56A      0.749387  
      57A      0.761692    58A      0.779180    59A      0.799348  
      60A      0.823788    61A      0.853506    62A      0.912051  
      63A      0.939222    64A      0.953782    65A      0.957117  
      66A      0.986974    67A      0.999932    68A      1.031716  
      69A      1.080278    70A      1.102756    71A      1.115488  
      72A      1.133950    73A      1.138069    74A      1.146943  
      75A      1.150459    76A      1.179518    77A      1.189305  
      78A      1.193304    79A      1.214199    80A      1.217385  
      81A      1.226606    82A      1.244904    83A      1.252043  
      84A      1.278178    85A      1.297466    86A      1.330634  
      87A      1.357280    88A      1.372261    89A      1.394688  
      90A      1.454666    91A      1.595955    92A      1.642722  
      93A      1.665089    94A      1.687748    95A      1.727206  
      96A      1.752095    97A      1.828267    98A      1.860596  
      99A      1.923246   100A      1.981745   101A      1.988055  
     102A      2.040118   103A      2.075962   104A      2.088542  
     105A      2.113737   106A      2.133798   107A      2.143888  
     108A      2.189079   109A      2.238353   110A      2.248320  
     111A      2.268420   112A      2.280009   113A      2.305056  
     114A      2.338010   115A      2.365331   116A      2.400952  
     117A      2.496550   118A      2.508992   119A      2.598430  
     120A      2.636566   121A      2.684963   122A      2.701760  
     123A      2.715172   124A      2.752988   125A      2.776193  
     126A      2.791304   127A      2.874177   128A      2.937713  
     129A      2.972392   130A      3.022064   131A      3.066621  
     132A      3.117363   133A      3.149570   134A      3.247995  
     135A      3.379448   136A      3.483075   137A      4.264907  
     138A      4.493132   139A      4.573578   140A      4.676347  
     141A      4.745849   142A      4.811900   143A      4.921115  
     144A      5.010036  

    Final Occupation by Irrep:
              A 
    DOCC [    32 ]

  Energy converged.

  @DF-RHF Final Energy:  -383.94693176153146

   => Energetics <=

    Nuclear Repulsion Energy =            376.7328693046413264
    One-Electron Energy =               -1269.3985751590284963
    Two-Electron Energy =                 508.7187740928554263
    DFT Exchange-Correlation Energy =       0.0000000000000000
    Empirical Dispersion Energy =           0.0000000000000000
    PCM Polarization Energy =               0.0000000000000000
    EFP Energy =                            0.0000000000000000
    Total Energy =                       -383.9469317615317436

    Alert: EFP and PCM quantities not currently incorporated into SCF psivars.

Properties will be evaluated at   0.000000,   0.000000,   0.000000 Bohr
  ==> Properties <==


Properties computed using the SCF density matrix

  Nuclear Dipole Moment: (a.u.)
     X:   -15.9615      Y:     0.1681      Z:     0.9365

  Electronic Dipole Moment: (a.u.)
     X:    15.5054      Y:     0.2551      Z:    -0.4703

  Dipole Moment: (a.u.)
     X:    -0.4561      Y:     0.4232      Z:     0.4662     Total:     0.7775

  Dipole Moment: (Debye)
     X:    -1.1594      Y:     1.0757      Z:     1.1851     Total:     1.9763


  Saving occupied orbitals to File 180.

*** tstop() called on cx1-1-2-3.cx1.hpc.ic.ac.uk at Fri Sep  2 15:34:34 2016
Module time:
	user time   =      21.01 seconds =       0.35 minutes
	system time =       0.27 seconds =       0.00 minutes
	total time  =          7 seconds =       0.12 minutes
Total time:
	user time   =      21.01 seconds =       0.35 minutes
	system time =       0.27 seconds =       0.00 minutes
	total time  =          7 seconds =       0.12 minutes

*** tstart() called on cx1-1-2-3.cx1.hpc.ic.ac.uk
*** at Fri Sep  2 15:34:34 2016


         ------------------------------------------------------------
                                   SCF GRAD                          
                          Rob Parrish, Justin Turney,                
                       Andy Simmonett, and Alex Sokolov              
         ------------------------------------------------------------

  ==> Geometry <==

    Molecular point group: c1
    Full point group: C1

    Geometry (in Angstrom), charge = 0, multiplicity = 1:

       Center              X                  Y                   Z               Mass       
    ------------   -----------------  -----------------  -----------------  -----------------
           H          3.473183161755     0.980872185201     0.465630812636     1.007825032070
           O          2.556682161755     0.849778185201     0.688331812636    15.994914619560
           C          2.088812161755    -0.150207814799    -0.058354187364    12.000000000000
           C          0.635558161755    -0.426239814799     0.229837812636    12.000000000000
           O          2.770866161755    -0.725142814799    -0.842744187364    15.994914619560
           C         -0.254816838245     0.801283185201     0.049652812636    12.000000000000
           H          0.335101161755    -1.246497814799    -0.413804187364     1.007825032070
           H          0.576109161755    -0.808759814799     1.245660812636     1.007825032070
           C         -1.717612838245     0.563424185201     0.438838812636    12.000000000000
           H         -0.198058838245     1.136821185201    -0.981451187364     1.007825032070
           H          0.146144161755     1.610202185201     0.650639812636     1.007825032070
           C         -2.471374838245    -0.425721814799    -0.454688187364    12.000000000000
           H         -2.234179838245     1.520001185201     0.409166812636     1.007825032070
           H         -1.768246838245     0.225699185201     1.473021812636     1.007825032070
           C         -3.949460838245    -0.543673814799    -0.083438187364    12.000000000000
           H         -2.383948838245    -0.109459814799    -1.492175187364     1.007825032070
           H         -2.013764838245    -1.409795814799    -0.394909187364     1.007825032070
           H         -4.461640838245    -1.250652814799    -0.728547187364     1.007825032070
           H         -4.454060838245     0.413859185201    -0.174752187364     1.007825032070
           H         -4.070132838245    -0.883588814799     0.941321812636     1.007825032070

  Nuclear repulsion =  376.732869304641326

  ==> Basis Set <==

  Basis Set: 6-31G*
    Number of shells: 72
    Number of basis function: 144
    Number of Cartesian functions: 144
    Spherical Harmonics?: false
    Max angular momentum: 2

  ==> DFJKGrad: Density-Fitted SCF Gradients <==

    Gradient:                    1
    J tasked:                  Yes
    K tasked:                  Yes
    wK tasked:                  No
    OpenMP threads:              4
    Integrals threads:           4
    Memory (MB):              1430
    Schwarz Cutoff:          0E+00
    Fitting Condition:       1E-12

   => Auxiliary Basis Set <=

  Basis Set: 
    Number of shells: 300
    Number of basis function: 948
    Number of Cartesian functions: 948
    Spherical Harmonics?: false
    Max angular momentum: 3


  -Total Gradient:
     Atom            X                  Y                   Z
    ------   -----------------  -----------------  -----------------
       1       -0.000152066583    -0.000044115925    -0.000120652230
       2       -0.002794880924    -0.000030947931    -0.000220867427
       3        0.001677828331    -0.002044655209     0.000148236481
       4       -0.001667886626     0.012091707421     0.002948748575
       5        0.000606748813     0.000457131727    -0.000527224995
       6        0.001195655199    -0.003538427495    -0.003169461167
       7       -0.001237955331    -0.003421151491     0.000870034654
       8        0.000461644854    -0.003972588738    -0.001953671061
       9        0.000784640713    -0.000150550313     0.000589649899
      10        0.000776964673     0.000529650891     0.001702803984
      11        0.001157991345     0.000404895220    -0.000621869270
      12       -0.000141692667     0.000344903952     0.000250460018
      13       -0.000018108108    -0.000103474759     0.000040325821
      14       -0.000593375256    -0.000170117654     0.000199737657
      15       -0.000030776848    -0.000136060919    -0.000113360290
      16       -0.000013170347     0.000075414543    -0.000052153732
      17        0.000003852040    -0.000246686970     0.000059571058
      18       -0.000112471724    -0.000039782841    -0.000022564278
      19        0.000068403610    -0.000019831128    -0.000003682248
      20        0.000028654822     0.000014687624    -0.000004061450


*** tstop() called on cx1-1-2-3.cx1.hpc.ic.ac.uk at Fri Sep  2 15:34:41 2016
Module time:
	user time   =      25.51 seconds =       0.43 minutes
	system time =       0.27 seconds =       0.00 minutes
	total time  =          7 seconds =       0.12 minutes
Total time:
	user time   =      46.54 seconds =       0.78 minutes
	system time =       0.54 seconds =       0.01 minutes
	total time  =         14 seconds =       0.23 minutes
CURRENT ENERGY: -383.9469317615

			-----------------------------------------
			 OPTKING 2.0: for geometry optimizations 
			  - R.A. King,  Bethel University        
			-----------------------------------------

	Internal coordinates to be generated automatically.
	Detected frag with atoms:  1 2 3 4 5 6 7 8 9 10 11 12 13 14 15 16 17 18 19 20
	---Fragment 1 Bond Connectivity---
	 1 : 2
	 2 : 1 3
	 3 : 2 4 5
	 4 : 3 6 7 8
	 5 : 3
	 6 : 4 9 10 11
	 7 : 4
	 8 : 4
	 9 : 6 12 13 14
	 10 : 6
	 11 : 6
	 12 : 9 15 16 17
	 13 : 9
	 14 : 9
	 15 : 12 18 19 20
	 16 : 12
	 17 : 12
	 18 : 15
	 19 : 15
	 20 : 15

	Assuming in current code that numbering for constraints corresponds to unified fragment.
	Frozen dihedral atom list: 
	     5     3     4     7
	---Fragment 1 Geometry and Gradient---
	 H           6.5633649851        1.8535798014        0.8799147149
	 O           4.8314290946        1.6058480437        1.3007586144
	 C           3.9472829288       -0.2838516330       -0.1102734328
	 C           1.2010308672       -0.8054765169        0.4343305209
	 O           5.2361781966       -1.3703213272       -1.5925557142
	 C          -0.4815340383        1.5142057749        0.0938302176
	 H           0.6332494225       -2.3555394952       -0.7819765868
	 H           1.0886885384       -1.5283345573        2.3539577903
	 C          -3.2458178666        1.0647174067        0.8292851724
	 H          -0.3742769625        2.1482807021       -1.8546739569
	 H           0.2761724416        3.0428411486        1.2295310570
	 C          -4.6702216160       -0.8044976388       -0.8592361500
	 H          -4.2219880259        2.8723859617        0.7732132185
	 H          -3.3415022596        0.4265096484        2.7836078136
	 C          -7.4633993568       -1.0273946156       -0.1576753231
	 H          -4.5050104191       -0.2068490725       -2.8198024464
	 H          -3.8054640403       -2.6641279933       -0.7462702115
	 H          -8.4312792876       -2.3633913073       -1.3767546590
	 H          -8.4169551635        0.7820805176       -0.3302337752
	 H          -7.6914363887       -1.6697408741        1.7788404288
	            -0.0001520666       -0.0000441159       -0.0001206522
	            -0.0027948809       -0.0000309479       -0.0002208674
	             0.0016778283       -0.0020446552        0.0001482365
	            -0.0016678866        0.0120917074        0.0029487486
	             0.0006067488        0.0004571317       -0.0005272250
	             0.0011956552       -0.0035384275       -0.0031694612
	            -0.0012379553       -0.0034211515        0.0008700347
	             0.0004616449       -0.0039725887       -0.0019536711
	             0.0007846407       -0.0001505503        0.0005896499
	             0.0007769647        0.0005296509        0.0017028040
	             0.0011579913        0.0004048952       -0.0006218693
	            -0.0001416927        0.0003449040        0.0002504600
	            -0.0000181081       -0.0001034748        0.0000403258
	            -0.0005933753       -0.0001701177        0.0001997377
	            -0.0000307768       -0.0001360609       -0.0001133603
	            -0.0000131703        0.0000754145       -0.0000521537
	             0.0000038520       -0.0002466870        0.0000595711
	            -0.0001124717       -0.0000397828       -0.0000225643
	             0.0000684036       -0.0000198311       -0.0000036822
	             0.0000286548        0.0000146876       -0.0000040614

	Previous optimization step data not found.  Starting new optimization.

	---Fragment 1 Intrafragment Coordinates---
	 - Coordinate -           - BOHR/RAD -       - ANG/DEG -
	 R(1,2)           =         1.799467	       0.952237
	 R(2,3)           =         2.518668	       1.332822
	 R(3,4)           =         2.847909	       1.507049
	 R(3,5)           =         2.244733	       1.187862
	 R(4,6)           =         2.885809	       1.527104
	 R(4,7)           =         2.050481	       1.085068
	 R(4,8)           =         2.054291	       1.087084
	 R(6,9)           =         2.895548	       1.532258
	 R(6,10)          =         2.051883	       1.085810
	 R(6,11)          =         2.049552	       1.084576
	 R(9,12)          =         2.893786	       1.531326
	 R(9,13)          =         2.055169	       1.087548
	 R(9,14)          =         2.058116	       1.089108
	 R(12,15)         =         2.888549	       1.528554
	 R(12,16)         =         2.056283	       1.088138
	 R(12,17)         =         2.053970	       1.086914
	 R(15,18)         =         2.051300	       1.085501
	 R(15,19)         =         2.052619	       1.086199
	 R(15,20)         =         2.052974	       1.086387
	 B(1,2,3)         =         1.886128	     108.067180
	 B(2,3,4)         =         1.948509	     111.641364
	 B(2,3,5)         =         2.131191	     122.108236
	 B(3,4,6)         =         1.974083	     113.106631
	 B(3,4,7)         =         1.867160	     106.980378
	 B(3,4,8)         =         1.871171	     107.210220
	 B(4,3,5)         =         2.203485	     126.250400
	 B(4,6,9)         =         1.984350	     113.694904
	 B(4,6,10)        =         1.907066	     109.266818
	 B(4,6,11)        =         1.895041	     108.577828
	 B(6,4,7)         =         1.956503	     112.099383
	 B(6,4,8)         =         1.940371	     111.175075
	 B(6,9,12)        =         2.006425	     114.959691
	 B(6,9,13)        =         1.885969	     108.058084
	 B(6,9,14)        =         1.911029	     109.493902
	 B(7,4,8)         =         1.847465	     105.851922
	 B(9,6,10)        =         1.916726	     109.820326
	 B(9,6,11)        =         1.904950	     109.145611
	 B(9,12,15)       =         1.965032	     112.588059
	 B(9,12,16)       =         1.906094	     109.211166
	 B(9,12,17)       =         1.923563	     110.212060
	 B(10,6,11)       =         1.850841	     106.045399
	 B(12,9,13)       =         1.894871	     108.568104
	 B(12,9,14)       =         1.908039	     109.322577
	 B(12,15,18)      =         1.941397	     111.233867
	 B(12,15,19)      =         1.939894	     111.147764
	 B(12,15,20)      =         1.939763	     111.140249
	 B(13,9,14)       =         1.851024	     106.055845
	 B(15,12,16)      =         1.908892	     109.371433
	 B(15,12,17)      =         1.900639	     108.898610
	 B(16,12,17)      =         1.856422	     106.365128
	 B(18,15,19)      =         1.880722	     107.757430
	 B(18,15,20)      =         1.880098	     107.721668
	 B(19,15,20)      =         1.879181	     107.669150
	 D(1,2,3,4)       =        -3.140539	    -179.939624
	 D(1,2,3,5)       =         0.001019	       0.058402
	 D(2,3,4,6)       =         0.978835	      56.083102
	 D(2,3,4,7)       =         3.141556	     179.997925
	 D(2,3,4,8)       =        -1.166317	     -66.825047
	 D(3,4,6,9)       =        -3.066819	    -175.715766
	 D(3,4,6,10)      =         1.068394	      61.214495
	 D(3,4,6,11)      =        -0.942887	     -54.023430
	 D(4,6,9,12)      =        -1.158108	     -66.354675
	 D(4,6,9,13)      =         3.006038	     172.233304
	 D(4,6,9,14)      =         0.997373	      57.145240
	 D(5,3,4,6)       =        -2.162722	    -123.914825
	*D(5,3,4,7)       =        -0.000000	      -0.000000
	 D(5,3,4,8)       =         1.975312	     113.177026
	 D(6,9,12,15)     =        -3.066987	    -175.725421
	 D(6,9,12,16)     =        -0.943009	     -54.030450
	 D(6,9,12,17)     =         1.090349	      62.472417
	 D(7,4,6,9)       =         1.103463	      63.223798
	 D(7,4,6,10)      =        -1.044509	     -59.845940
	 D(7,4,6,11)      =        -3.055790	    -175.083865
	 D(8,4,6,9)       =        -0.960535	     -55.034625
	 D(8,4,6,10)      =        -3.108508	    -178.104363
	 D(8,4,6,11)      =         1.163397	      66.657712
	 D(9,12,15,18)    =        -3.139916	    -179.903948
	 D(9,12,15,19)    =         1.047567	      60.021145
	 D(9,12,15,20)    =        -1.045092	     -59.879360
	 D(10,6,9,12)     =         0.984567	      56.411557
	 D(10,6,9,13)     =        -1.134472	     -65.000464
	 D(10,6,9,14)     =         3.140048	     179.911472
	 D(11,6,9,12)     =         3.006663	     172.269099
	 D(11,6,9,13)     =         0.887623	      50.857078
	 D(11,6,9,14)     =        -1.121042	     -64.230986
	 D(13,9,12,15)    =        -0.952798	     -54.591326
	 D(13,9,12,16)    =         1.171180	      67.103645
	 D(13,9,12,17)    =        -3.078647	    -176.393488
	 D(14,9,12,15)    =         1.059129	      60.683626
	 D(14,9,12,16)    =        -3.100078	    -177.621403
	 D(14,9,12,17)    =        -1.066720	     -61.118536
	 D(16,12,15,18)   =         1.020880	      58.492089
	 D(16,12,15,19)   =        -1.074823	     -61.582817
	 D(16,12,15,20)   =         3.115704	     178.516677
	 D(17,12,15,18)   =        -1.001123	     -57.360128
	 D(17,12,15,19)   =        -3.096826	    -177.435035
	 D(17,12,15,20)   =         1.093701	      62.664460

	Current energy   :      -383.9469317615

	Generating empirical Hessian (Schlegel '84) for each fragment.
	Taking RFO optimization step.
	Going to follow RFO solution 1.
	Using RFO vector 1.
	Norm of target step-size    0.28017
	Projected energy change by RFO approximation:        -0.0013619277

	Back-transformation to cartesian coordinates...
	Successfully converged to displaced geometry.

	Back-transformation to cartesian coordinates to adjust frozen coordinates...
	Successfully converged to displaced geometry.

	--- Internal Coordinate Step in ANG or DEG, aJ/ANG or AJ/DEG ---
	 ---------------------------------------------------------------------------
	   Coordinate                Previous        Force       Change         New 
	   ----------                --------       ------       ------       ------
	    1 R(1,2)          =      0.952237     0.001023     0.000115     0.952352
	    2 R(2,3)          =      1.332822     0.010563     0.001151     1.333973
	    3 R(3,4)          =      1.507049     0.006636     0.001343     1.508392
	    4 R(3,5)          =      1.187862    -0.003916    -0.000226     1.187636
	    5 R(4,6)          =      1.527104     0.033912     0.007314     1.534418
	    6 R(4,7)          =      1.085068    -0.019879    -0.003599     1.081469
	    7 R(4,8)          =      1.087084     0.003732     0.000680     1.087764
	    8 R(6,9)          =      1.532258    -0.002716    -0.000595     1.531663
	    9 R(6,10)         =      1.085810     0.011639     0.002112     1.087922
	   10 R(6,11)         =      1.084576    -0.003176    -0.000574     1.084002
	   11 R(9,12)         =      1.531326    -0.000290    -0.000063     1.531262
	   12 R(9,13)         =      1.087548     0.000688     0.000126     1.087674
	   13 R(9,14)         =      1.089108    -0.002224    -0.000408     1.088700
	   14 R(12,15)        =      1.528554    -0.000196    -0.000042     1.528512
	   15 R(12,16)        =      1.088138    -0.000582    -0.000106     1.088032
	   16 R(12,17)        =      1.086914    -0.001880    -0.000343     1.086572
	   17 R(15,18)        =      1.085501    -0.000761    -0.000138     1.085363
	   18 R(15,19)        =      1.086199     0.000403     0.000073     1.086273
	   19 R(15,20)        =      1.086387     0.000096     0.000017     1.086405
	   20 B(1,2,3)        =    108.067180     0.000017     0.077885   108.145064
	   21 B(2,3,4)        =    111.641364     0.000342     0.941760   112.583124
	   22 B(2,3,5)        =    122.108236    -0.000119    -0.443178   121.665058
	   23 B(3,4,6)        =    113.106631     0.000206     0.350871   113.457502
	   24 B(3,4,7)        =    106.980378    -0.000120    -0.469404   106.510973
	   25 B(3,4,8)        =    107.210220     0.000006     0.071212   107.281432
	   26 B(4,3,5)        =    126.250400    -0.000223    -0.752148   125.498253
	   27 B(4,6,9)        =    113.694904     0.000036    -0.017845   113.677059
	   28 B(4,6,10)       =    109.266818    -0.000017    -0.253663   109.013154
	   29 B(4,6,11)       =    108.577828     0.000036     0.501373   109.079201
	   30 B(6,4,7)        =    112.099383    -0.000030    -0.258944   111.840439
	   31 B(6,4,8)        =    111.175075    -0.000225    -1.395379   109.779696
	   32 B(6,9,12)       =    114.959691     0.000005     0.000296   114.959987
	   33 B(6,9,13)       =    108.058084     0.000003     0.045730   108.103814
	   34 B(6,9,14)       =    109.493902    -0.000037    -0.327086   109.166816
	   35 B(7,4,8)        =    105.851922     0.000167     1.842353   107.694275
	   36 B(9,6,10)       =    109.820326    -0.000050    -0.611910   109.208416
	   37 B(9,6,11)       =    109.145611    -0.000053    -0.210718   108.934893
	   38 B(9,12,15)      =    112.588059    -0.000020    -0.067775   112.520284
	   39 B(9,12,16)      =    109.211166     0.000008     0.030837   109.242003
	   40 B(9,12,17)      =    110.212060     0.000002    -0.015888   110.196172
	   41 B(10,6,11)      =    106.045399     0.000050     0.648846   106.694245
	   42 B(12,9,13)      =    108.568104    -0.000001     0.096861   108.664964
	   43 B(12,9,14)      =    109.322577     0.000024     0.115223   109.437799
	   44 B(12,15,18)     =    111.233867    -0.000011    -0.059881   111.173985
	   45 B(12,15,19)     =    111.147764     0.000007     0.040531   111.188295
	   46 B(12,15,20)     =    111.140249     0.000004     0.019604   111.159853
	   47 B(13,9,14)      =    106.055845     0.000006     0.078995   106.134840
	   48 B(15,12,16)     =    109.371433     0.000006     0.025790   109.397224
	   49 B(15,12,17)     =    108.898610     0.000011     0.053581   108.952192
	   50 B(16,12,17)     =    106.365128    -0.000006    -0.023862   106.341266
	   51 B(18,15,19)     =    107.757430     0.000001     0.000713   107.758142
	   52 B(18,15,20)     =    107.721668     0.000002    -0.005920   107.715748
	   53 B(19,15,20)     =    107.669150    -0.000003     0.005009   107.674159
	   54 D(1,2,3,4)      =   -179.939624    -0.000003    -3.066171  -183.005795
	   55 D(1,2,3,5)      =      0.058402     0.000000     2.420032     2.478434
	   56 D(2,3,4,6)      =     56.083102     0.000001     6.174669    62.257771
	   57 D(2,3,4,7)      =    179.997925     0.000003     5.737143   185.735069
	   58 D(2,3,4,8)      =    -66.825047     0.000035     7.661209   -59.163838
	   59 D(3,4,6,9)      =   -175.715766    -0.000006    -3.476198  -179.191964
	   60 D(3,4,6,10)     =     61.214495     0.000006    -2.484433    58.730062
	   61 D(3,4,6,11)     =    -54.023430    -0.000010    -3.394073   -57.417502
	   62 D(4,6,9,12)     =    -66.354675     0.000005     1.153618   -65.201057
	   63 D(4,6,9,13)     =    172.233304     0.000004     0.994408   173.227712
	   64 D(4,6,9,14)     =     57.145240     0.000007     1.047853    58.193093
	   65 D(5,3,4,6)      =   -123.914825    -0.000002     0.438319  -123.476506
	   66 *D(5,3,4,7)     =      0.000000    -0.000000     0.000000     0.000000
	   67 D(5,3,4,8)      =    113.177026     0.000032     1.924859   115.101885
	   68 D(6,9,12,15)    =   -175.725421    -0.000002    -0.382352  -176.107773
	   69 D(6,9,12,16)    =    -54.030450    -0.000003    -0.373031   -54.403481
	   70 D(6,9,12,17)    =     62.472417    -0.000003    -0.392968    62.079449
	   71 D(7,4,6,9)      =     63.223798     0.000001    -2.924761    60.299037
	   72 D(7,4,6,10)     =    -59.845940     0.000013    -1.932996   -61.778936
	   73 D(7,4,6,11)     =   -175.083865    -0.000003    -2.842636  -177.926501
	   74 D(8,4,6,9)      =    -55.034625    -0.000009    -4.145264   -59.179889
	   75 D(8,4,6,10)     =   -178.104363     0.000003    -3.153499  -181.257862
	   76 D(8,4,6,11)     =     66.657712    -0.000013    -4.063138    62.594573
	   77 D(9,12,15,18)   =   -179.903948     0.000000     0.046655  -179.857294
	   78 D(9,12,15,19)   =     60.021145     0.000001     0.058740    60.079886
	   79 D(9,12,15,20)   =    -59.879360    -0.000000     0.012159   -59.867201
	   80 D(10,6,9,12)    =     56.411557    -0.000003     0.357187    56.768744
	   81 D(10,6,9,13)    =    -65.000464    -0.000004     0.197977   -64.802488
	   82 D(10,6,9,14)    =    179.911472    -0.000001     0.251421   180.162893
	   83 D(11,6,9,12)    =    172.269099    -0.000002     0.675255   172.944354
	   84 D(11,6,9,13)    =     50.857078    -0.000003     0.516045    51.373123
	   85 D(11,6,9,14)    =    -64.230986    -0.000001     0.569489   -63.661497
	   86 D(13,9,12,15)   =    -54.591326    -0.000001    -0.250530   -54.841857
	   87 D(13,9,12,16)   =     67.103645    -0.000001    -0.241210    66.862435
	   88 D(13,9,12,17)   =   -176.393488    -0.000001    -0.261147  -176.654635
	   89 D(14,9,12,15)   =     60.683626     0.000004    -0.041183    60.642443
	   90 D(14,9,12,16)   =   -177.621403     0.000003    -0.031862  -177.653265
	   91 D(14,9,12,17)   =    -61.118536     0.000003    -0.051799   -61.170335
	   92 D(16,12,15,18)  =     58.492089     0.000000     0.034571    58.526661
	   93 D(16,12,15,19)  =    -61.582817     0.000000     0.046657   -61.536160
	   94 D(16,12,15,20)  =    178.516677    -0.000000     0.000076   178.516753
	   95 D(17,12,15,18)  =    -57.360128    -0.000000     0.019006   -57.341122
	   96 D(17,12,15,19)  =   -177.435035    -0.000000     0.031092  -177.403943
	   97 D(17,12,15,20)  =     62.664460    -0.000001    -0.015489    62.648970
	 ---------------------------------------------------------------------------

  ==> Convergence Check <==

  Measures of convergence in internal coordinates in au.
  Criteria marked as inactive (o), active & met (*), and active & unmet ( ).
  --------------------------------------------------------------------------------------------- ~
   Step     Total Energy     Delta E     MAX Force     RMS Force      MAX Disp      RMS Disp    ~
  --------------------------------------------------------------------------------------------- ~
    Convergence Criteria    1.00e-06 *    3.00e-04 *             o    1.20e-03 *             o  ~
  --------------------------------------------------------------------------------------------- ~
      1    -383.94693176   -3.84e+02      4.49e-03      9.90e-04 o    1.34e-01      2.84e-02 o  ~
  ---------------------------------------------------------------------------------------------

	Writing optimization data to binary file.
	Structure for next step:
	Cartesian Geometry (in Angstrom)
	    H     3.5489290210   0.8710879518   0.4487523237
	    O     2.6311233252   0.7899209522   0.6896233096
	    C     2.0753502625  -0.1333172451  -0.0966541822
	    C     0.6307188259  -0.3952553042   0.2492849899
	    O     2.7122624805  -0.7342660209  -0.8989522503
	    C    -0.2718771010   0.8330901125   0.0734256463
	    H     0.3110855750  -1.2215067773  -0.3709718311
	    H     0.6015807051  -0.7282976826   1.2844010942
	    C    -1.7364696942   0.5780279832   0.4420758299
	    H    -0.2161214768   1.1688674728  -0.9598794565
	    H     0.1088709779   1.6430512777   0.6850253266
	    C    -2.4633621224  -0.4266964322  -0.4562114802
	    H    -2.2654899456   1.5275169053   0.4015395691
	    H    -1.7917397247   0.2448397250   1.4770630459
	    C    -3.9428146978  -0.5679725309  -0.0989868492
	    H    -2.3705475023  -0.1126628728  -1.4937958454
	    H    -1.9892577138  -1.4020252120  -0.3884136145
	    H    -4.4356286425  -1.2861639845  -0.7465587225
	    H    -4.4632135184   0.3802440869  -0.1992791903
	    H    -4.0682431269  -0.9062826916   0.9257516134
			--------------------------
			 OPTKING Finished Execution 
			--------------------------

    Structure for next step:
    Molecular point group: c1
    Full point group: C1

    Geometry (in Angstrom), charge = 0, multiplicity = 1:

    H            3.550630008895     0.873458749988     0.456686508393
    O            2.632824383192     0.792291756655     0.697557475900
    C            2.077051362921    -0.130946370171    -0.088719955901
    C            0.632420036614    -0.392884409326     0.257219189788
    O            2.713963532283    -0.731895100041    -0.891017962761
    C           -0.270175821375     0.835460913650     0.081359859595
    H            0.312786810114    -1.219135819270    -0.363037583824
    H            0.603281918049    -0.725926762206     1.292335215057
    C           -1.734768302707     0.580398803780     0.450010015015
    H           -0.214420201367     1.171238248293    -0.951945164248
    H            0.110572228432     1.645422016954     0.692959493254
    C           -2.461660675360    -0.424325534902    -0.448277226406
    H           -2.263788513731     1.529887653347     0.409473757309
    H           -1.790038329000     0.247210571080     1.484997152020
    C           -3.941113137804    -0.565601622797    -0.091052622685
    H           -2.368846062387    -0.110291999468    -1.485861512362
    H           -1.987556302999    -1.399654240219    -0.380479365934
    H           -4.433927044933    -1.283793021512    -0.738624446561
    H           -4.461511918723     0.382614922625    -0.191344956196
    H           -4.066541557344    -0.903911757661     0.933685761633

gradient() will perform analytic gradient computation.

*** tstart() called on cx1-1-2-3.cx1.hpc.ic.ac.uk
*** at Fri Sep  2 15:34:42 2016


         ---------------------------------------------------------
                                   SCF
            by Justin Turney, Rob Parrish, and Andy Simmonett
                              RHF Reference
                        4 Threads,   2000 MiB Core
         ---------------------------------------------------------

  ==> Geometry <==

    Molecular point group: c1
    Full point group: C1

    Geometry (in Angstrom), charge = 0, multiplicity = 1:

       Center              X                  Y                   Z               Mass       
    ------------   -----------------  -----------------  -----------------  -----------------
           H          3.550630008895     0.873458749988     0.456686508393     1.007825032070
           O          2.632824383192     0.792291756655     0.697557475900    15.994914619560
           C          2.077051362921    -0.130946370171    -0.088719955901    12.000000000000
           C          0.632420036614    -0.392884409326     0.257219189788    12.000000000000
           O          2.713963532283    -0.731895100041    -0.891017962761    15.994914619560
           C         -0.270175821375     0.835460913650     0.081359859595    12.000000000000
           H          0.312786810114    -1.219135819270    -0.363037583824     1.007825032070
           H          0.603281918049    -0.725926762206     1.292335215057     1.007825032070
           C         -1.734768302707     0.580398803780     0.450010015015    12.000000000000
           H         -0.214420201367     1.171238248293    -0.951945164248     1.007825032070
           H          0.110572228432     1.645422016954     0.692959493254     1.007825032070
           C         -2.461660675360    -0.424325534902    -0.448277226406    12.000000000000
           H         -2.263788513731     1.529887653347     0.409473757309     1.007825032070
           H         -1.790038329000     0.247210571080     1.484997152020     1.007825032070
           C         -3.941113137804    -0.565601622797    -0.091052622685    12.000000000000
           H         -2.368846062387    -0.110291999468    -1.485861512362     1.007825032070
           H         -1.987556302999    -1.399654240219    -0.380479365934     1.007825032070
           H         -4.433927044933    -1.283793021512    -0.738624446561     1.007825032070
           H         -4.461511918723     0.382614922625    -0.191344956196     1.007825032070
           H         -4.066541557344    -0.903911757661     0.933685761633     1.007825032070

  Running in c1 symmetry.

  Rotational constants: A =      0.19221  B =      0.02455  C =      0.02272 [cm^-1]
  Rotational constants: A =   5762.40290  B =    736.00012  C =    681.02213 [MHz]
  Nuclear repulsion =  376.161736938355375

  Charge       = 0
  Multiplicity = 1
  Electrons    = 64
  Nalpha       = 32
  Nbeta        = 32

  ==> Algorithm <==

  SCF Algorithm Type is DF.
  DIIS enabled.
  MOM disabled.
  Fractional occupation disabled.
  Guess Type is READ.
  Energy threshold   = 1.00e-08
  Density threshold  = 1.00e-08
  Integral threshold = 0.00e+00

  ==> Primary Basis <==

  Basis Set: 6-31G*
    Number of shells: 72
    Number of basis function: 144
    Number of Cartesian functions: 144
    Spherical Harmonics?: false
    Max angular momentum: 2

  ==> Pre-Iterations <==

   -------------------------------------------------------
    Irrep   Nso     Nmo     Nalpha   Nbeta   Ndocc  Nsocc
   -------------------------------------------------------
     A        144     144       0       0       0       0
   -------------------------------------------------------
    Total     144     144      32      32      32       0
   -------------------------------------------------------

 OEINTS: Overlap, kinetic, potential, dipole, and quadrupole integrals
         stored in file 35.

  ==> Integral Setup <==

  ==> DFJK: Density-Fitted J/K Matrices <==

    J tasked:                  Yes
    K tasked:                  Yes
    wK tasked:                  No
    OpenMP threads:              4
    Integrals threads:           4
    Memory (MB):              1430
    Algorithm:                Core
    Integral Cache:           NONE
    Schwarz Cutoff:          1E-12
    Fitting Condition:       1E-12

   => Auxiliary Basis Set <=

  Basis Set: 
    Number of shells: 300
    Number of basis function: 948
    Number of Cartesian functions: 948
    Spherical Harmonics?: false
    Max angular momentum: 3

  Minimum eigenvalue in the overlap matrix is 3.0348470734E-03.
  Using Symmetric Orthogonalization.
  SCF Guess: Reading in previously saved MOs, projecting if necessary.

  Using orbitals from previous SCF, no projection.
  Recomputing DOCC and SOCC from number of alpha and beta electrons from previous calculation.
              A 
    DOCC [    32 ]

  ==> Iterations <==

                           Total Energy        Delta E     RMS |[F,P]|

   @DF-RHF iter   0:  -383.93901587126925   -3.83939e+02   1.29684e-03 
   @DF-RHF iter   1:  -383.94615938500067   -7.14351e-03   1.73017e-04 
   @DF-RHF iter   2:  -383.94668555168369   -5.26167e-04   6.06528e-05 DIIS
   @DF-RHF iter   3:  -383.94676011085994   -7.45592e-05   2.64630e-05 DIIS
   @DF-RHF iter   4:  -383.94676983779175   -9.72693e-06   7.08965e-06 DIIS
   @DF-RHF iter   5:  -383.94677159631101   -1.75852e-06   3.50637e-06 DIIS
   @DF-RHF iter   6:  -383.94677210129646   -5.04985e-07   1.49741e-06 DIIS
   @DF-RHF iter   7:  -383.94677219797154   -9.66751e-08   6.69855e-07 DIIS
   @DF-RHF iter   8:  -383.94677221158156   -1.36100e-08   1.89026e-07 DIIS
   @DF-RHF iter   9:  -383.94677221280767   -1.22611e-09   5.07438e-08 DIIS
   @DF-RHF iter  10:  -383.94677221289680   -8.91305e-11   1.59327e-08 DIIS
   @DF-RHF iter  11:  -383.94677221290397   -7.16227e-12   5.31411e-09 DIIS

  ==> Post-Iterations <==

    Orbital Energies (a.u.)
    -----------------------

    Doubly Occupied:                                                      

       1A    -20.612086     2A    -20.549748     3A    -11.379844  
       4A    -11.239292     5A    -11.231665     6A    -11.224115  
       7A    -11.221714     8A    -11.213532     9A     -1.473510  
      10A     -1.363690    11A     -1.099366    12A     -1.041844  
      13A     -0.960702    14A     -0.863778    15A     -0.823540  
      16A     -0.789873    17A     -0.700091    18A     -0.686048  
      19A     -0.642951    20A     -0.637311    21A     -0.616499  
      22A     -0.592896    23A     -0.578375    24A     -0.553873  
      25A     -0.539820    26A     -0.521733    27A     -0.499184  
      28A     -0.482967    29A     -0.476706    30A     -0.469454  
      31A     -0.459020    32A     -0.434692  

    Virtual:                                                              

      33A      0.189302    34A      0.223688    35A      0.237287  
      36A      0.260739    37A      0.267013    38A      0.269388  
      39A      0.303586    40A      0.316135    41A      0.327250  
      42A      0.333100    43A      0.337729    44A      0.345041  
      45A      0.358813    46A      0.398514    47A      0.425941  
      48A      0.434113    49A      0.438564    50A      0.455354  
      51A      0.513043    52A      0.554578    53A      0.699346  
      54A      0.700129    55A      0.738304    56A      0.748827  
      57A      0.763530    58A      0.781223    59A      0.797850  
      60A      0.819609    61A      0.854298    62A      0.912313  
      63A      0.934389    64A      0.952159    65A      0.957222  
      66A      0.986740    67A      1.005777    68A      1.030288  
      69A      1.081514    70A      1.103891    71A      1.115199  
      72A      1.133640    73A      1.138041    74A      1.147584  
      75A      1.150210    76A      1.177550    77A      1.189402  
      78A      1.192987    79A      1.215032    80A      1.218258  
      81A      1.226553    82A      1.238088    83A      1.248694  
      84A      1.278278    85A      1.300602    86A      1.326965  
      87A      1.363360    88A      1.373799    89A      1.387598  
      90A      1.453006    91A      1.592169    92A      1.640198  
      93A      1.673124    94A      1.686853    95A      1.714048  
      96A      1.758386    97A      1.825544    98A      1.857463  
      99A      1.919098   100A      1.984305   101A      1.990919  
     102A      2.041811   103A      2.071130   104A      2.092509  
     105A      2.115875   106A      2.133681   107A      2.148770  
     108A      2.190389   109A      2.242046   110A      2.245549  
     111A      2.272467   112A      2.281621   113A      2.301888  
     114A      2.332380   115A      2.368309   116A      2.399806  
     117A      2.503411   118A      2.510546   119A      2.597972  
     120A      2.632871   121A      2.683372   122A      2.692466  
     123A      2.711250   124A      2.750260   125A      2.773456  
     126A      2.788677   127A      2.876567   128A      2.939834  
     129A      2.968336   130A      3.015422   131A      3.065078  
     132A      3.119974   133A      3.154125   134A      3.243049  
     135A      3.376624   136A      3.479882   137A      4.265123  
     138A      4.492444   139A      4.567776   140A      4.670559  
     141A      4.753656   142A      4.812516   143A      4.918048  
     144A      5.010483  

    Final Occupation by Irrep:
              A 
    DOCC [    32 ]

  Energy converged.

  @DF-RHF Final Energy:  -383.94677221290397

   => Energetics <=

    Nuclear Repulsion Energy =            376.1617369383553751
    One-Electron Energy =               -1268.2571829891351172
    Two-Electron Energy =                 508.1486738378759469
    DFT Exchange-Correlation Energy =       0.0000000000000000
    Empirical Dispersion Energy =           0.0000000000000000
    PCM Polarization Energy =               0.0000000000000000
    EFP Energy =                            0.0000000000000000
    Total Energy =                       -383.9467722129037952

    Alert: EFP and PCM quantities not currently incorporated into SCF psivars.

Properties will be evaluated at   0.000000,   0.000000,   0.000000 Bohr
  ==> Properties <==


Properties computed using the SCF density matrix

  Nuclear Dipole Moment: (a.u.)
     X:   -15.9201      Y:     0.1945      Z:     1.0855

  Electronic Dipole Moment: (a.u.)
     X:    15.4753      Y:     0.2254      Z:    -0.6147

  Dipole Moment: (a.u.)
     X:    -0.4448      Y:     0.4199      Z:     0.4707     Total:     0.7718

  Dipole Moment: (Debye)
     X:    -1.1305      Y:     1.0672      Z:     1.1964     Total:     1.9617


  Saving occupied orbitals to File 180.

*** tstop() called on cx1-1-2-3.cx1.hpc.ic.ac.uk at Fri Sep  2 15:34:49 2016
Module time:
	user time   =      19.72 seconds =       0.33 minutes
	system time =       0.27 seconds =       0.00 minutes
	total time  =          7 seconds =       0.12 minutes
Total time:
	user time   =      67.71 seconds =       1.13 minutes
	system time =       0.89 seconds =       0.01 minutes
	total time  =         22 seconds =       0.37 minutes

*** tstart() called on cx1-1-2-3.cx1.hpc.ic.ac.uk
*** at Fri Sep  2 15:34:49 2016


         ------------------------------------------------------------
                                   SCF GRAD                          
                          Rob Parrish, Justin Turney,                
                       Andy Simmonett, and Alex Sokolov              
         ------------------------------------------------------------

  ==> Geometry <==

    Molecular point group: c1
    Full point group: C1

    Geometry (in Angstrom), charge = 0, multiplicity = 1:

       Center              X                  Y                   Z               Mass       
    ------------   -----------------  -----------------  -----------------  -----------------
           H          3.550630008895     0.873458749988     0.456686508393     1.007825032070
           O          2.632824383192     0.792291756655     0.697557475900    15.994914619560
           C          2.077051362921    -0.130946370171    -0.088719955901    12.000000000000
           C          0.632420036614    -0.392884409326     0.257219189788    12.000000000000
           O          2.713963532283    -0.731895100041    -0.891017962761    15.994914619560
           C         -0.270175821375     0.835460913650     0.081359859595    12.000000000000
           H          0.312786810114    -1.219135819270    -0.363037583824     1.007825032070
           H          0.603281918049    -0.725926762206     1.292335215057     1.007825032070
           C         -1.734768302707     0.580398803780     0.450010015015    12.000000000000
           H         -0.214420201367     1.171238248293    -0.951945164248     1.007825032070
           H          0.110572228432     1.645422016954     0.692959493254     1.007825032070
           C         -2.461660675360    -0.424325534902    -0.448277226406    12.000000000000
           H         -2.263788513731     1.529887653347     0.409473757309     1.007825032070
           H         -1.790038329000     0.247210571080     1.484997152020     1.007825032070
           C         -3.941113137804    -0.565601622797    -0.091052622685    12.000000000000
           H         -2.368846062387    -0.110291999468    -1.485861512362     1.007825032070
           H         -1.987556302999    -1.399654240219    -0.380479365934     1.007825032070
           H         -4.433927044933    -1.283793021512    -0.738624446561     1.007825032070
           H         -4.461511918723     0.382614922625    -0.191344956196     1.007825032070
           H         -4.066541557344    -0.903911757661     0.933685761633     1.007825032070

  Nuclear repulsion =  376.161736938355375

  ==> Basis Set <==

  Basis Set: 6-31G*
    Number of shells: 72
    Number of basis function: 144
    Number of Cartesian functions: 144
    Spherical Harmonics?: false
    Max angular momentum: 2

  ==> DFJKGrad: Density-Fitted SCF Gradients <==

    Gradient:                    1
    J tasked:                  Yes
    K tasked:                  Yes
    wK tasked:                  No
    OpenMP threads:              4
    Integrals threads:           4
    Memory (MB):              1430
    Schwarz Cutoff:          0E+00
    Fitting Condition:       1E-12

   => Auxiliary Basis Set <=

  Basis Set: 
    Number of shells: 300
    Number of basis function: 948
    Number of Cartesian functions: 948
    Spherical Harmonics?: false
    Max angular momentum: 3


  -Total Gradient:
     Atom            X                  Y                   Z
    ------   -----------------  -----------------  -----------------
       1        0.000334914143     0.000170394540     0.000339602795
       2        0.002312369128    -0.003436806692     0.002268798533
       3       -0.004115100225     0.008896147173    -0.011159559080
       4        0.000537058795    -0.000508177845     0.001992037001
       5        0.001486412005    -0.002722460264     0.005044460743
       6        0.000404107710    -0.000423450763     0.001732554665
       7       -0.000152510918    -0.001150058863     0.000370882988
       8       -0.000653663867    -0.001018279398     0.000415267197
       9        0.000123475515     0.000464977210    -0.000510825988
      10       -0.000003554607    -0.000256253569    -0.000030058537
      11       -0.000642474113     0.000041638214    -0.000259816411
      12       -0.000018143755    -0.000045561438    -0.000092277224
      13       -0.000132601072     0.000024879765    -0.000015424357
      14        0.000277499748     0.000099727853    -0.000132982955
      15        0.000031435521    -0.000017975267     0.000003788295
      16       -0.000008426768    -0.000021683244     0.000009417179
      17        0.000234175862    -0.000106072027    -0.000010973548
      18        0.000025839611     0.000002039229     0.000011769184
      19       -0.000017006908     0.000017311809    -0.000000300886
      20       -0.000023805815    -0.000010336422     0.000023640408


*** tstop() called on cx1-1-2-3.cx1.hpc.ic.ac.uk at Fri Sep  2 15:34:55 2016
Module time:
	user time   =      25.00 seconds =       0.42 minutes
	system time =       0.24 seconds =       0.00 minutes
	total time  =          6 seconds =       0.10 minutes
Total time:
	user time   =      92.73 seconds =       1.55 minutes
	system time =       1.13 seconds =       0.02 minutes
	total time  =         28 seconds =       0.47 minutes
CURRENT ENERGY: -383.9467722129

			-----------------------------------------
			 OPTKING 2.0: for geometry optimizations 
			  - R.A. King,  Bethel University        
			-----------------------------------------

	Previous internal coordinate definitions found.
	---Fragment 1 Geometry and Gradient---
	 H           6.7097183160        1.6505978258        0.8630124294
	 O           4.9753170402        1.4972144374        1.3181925914
	 C           3.9250582399       -0.2474527777       -0.1676564192
	 C           1.1951006701       -0.7424439355        0.4860738248
	 O           5.1286478107       -1.3830812971       -1.6837799291
	 C          -0.5105583101        1.5787923215        0.1537478528
	 H           0.5910814091       -2.3038328172       -0.6860416094
	 H           1.1400376060       -1.3718027731        2.4421596283
	 C          -3.2782369961        1.0967947870        0.8503956854
	 H          -0.4051954579        2.2133195256       -1.7989156540
	 H           0.2089512296        3.1093969851        1.3095036634
	 C          -4.6518645085       -0.8018590522       -0.8471211895
	 H          -4.2779403137        2.8910686789        0.7737932599
	 H          -3.3826822092        0.4671602765        2.8062379254
	 C          -7.4476244892       -1.0688321674       -0.1720645206
	 H          -4.4764703089       -0.2084216736       -2.8078713298
	 H          -3.7559370864       -2.6449631947       -0.7190018008
	 H          -8.3789078081       -2.4260172220       -1.3957979191
	 H          -8.4310356650        0.7230374181       -0.3615895641
	 H          -7.6846498514       -1.7081456703        1.7644103837
	             0.0003349141        0.0001703945        0.0003396028
	             0.0023123691       -0.0034368067        0.0022687985
	            -0.0041151002        0.0088961472       -0.0111595591
	             0.0005370588       -0.0005081778        0.0019920370
	             0.0014864120       -0.0027224603        0.0050444607
	             0.0004041077       -0.0004234508        0.0017325547
	            -0.0001525109       -0.0011500589        0.0003708830
	            -0.0006536639       -0.0010182794        0.0004152672
	             0.0001234755        0.0004649772       -0.0005108260
	            -0.0000035546       -0.0002562536       -0.0000300585
	            -0.0006424741        0.0000416382       -0.0002598164
	            -0.0000181438       -0.0000455614       -0.0000922772
	            -0.0001326011        0.0000248798       -0.0000154244
	             0.0002774997        0.0000997279       -0.0001329830
	             0.0000314355       -0.0000179753        0.0000037883
	            -0.0000084268       -0.0000216832        0.0000094172
	             0.0002341759       -0.0001060720       -0.0000109735
	             0.0000258396        0.0000020392        0.0000117692
	            -0.0000170069        0.0000173118       -0.0000003009
	            -0.0000238058       -0.0000103364        0.0000236404

	---Fragment 1 Intrafragment Coordinates---
	 - Coordinate -           - BOHR/RAD -       - ANG/DEG -
	 R(1,2)           =         1.799684	       0.952352
	 R(2,3)           =         2.520844	       1.333973
	 R(3,4)           =         2.850447	       1.508392
	 R(3,5)           =         2.244306	       1.187636
	 R(4,6)           =         2.899629	       1.534418
	 R(4,7)           =         2.043680	       1.081469
	 R(4,8)           =         2.055577	       1.087764
	 R(6,9)           =         2.894423	       1.531663
	 R(6,10)          =         2.055875	       1.087922
	 R(6,11)          =         2.048467	       1.084002
	 R(9,12)          =         2.893666	       1.531262
	 R(9,13)          =         2.055406	       1.087674
	 R(9,14)          =         2.057345	       1.088700
	 R(12,15)         =         2.888468	       1.528512
	 R(12,16)         =         2.056082	       1.088032
	 R(12,17)         =         2.053323	       1.086572
	 R(15,18)         =         2.051040	       1.085363
	 R(15,19)         =         2.052758	       1.086273
	 R(15,20)         =         2.053007	       1.086405
	 B(1,2,3)         =         1.887487	     108.145064
	 B(2,3,4)         =         1.964946	     112.583124
	 B(2,3,5)         =         2.123456	     121.665058
	 B(3,4,6)         =         1.980207	     113.457502
	 B(3,4,7)         =         1.858967	     106.510973
	 B(3,4,8)         =         1.872414	     107.281432
	 B(4,3,5)         =         2.190358	     125.498253
	 B(4,6,9)         =         1.984039	     113.677059
	 B(4,6,10)        =         1.902638	     109.013154
	 B(4,6,11)        =         1.903791	     109.079201
	 B(6,4,7)         =         1.951984	     111.840439
	 B(6,4,8)         =         1.916017	     109.779696
	 B(6,9,12)        =         2.006430	     114.959987
	 B(6,9,13)        =         1.886767	     108.103814
	 B(6,9,14)        =         1.905320	     109.166816
	 B(7,4,8)         =         1.879620	     107.694275
	 B(9,6,10)        =         1.906046	     109.208416
	 B(9,6,11)        =         1.901273	     108.934893
	 B(9,12,15)       =         1.963849	     112.520284
	 B(9,12,16)       =         1.906633	     109.242003
	 B(9,12,17)       =         1.923286	     110.196172
	 B(10,6,11)       =         1.862166	     106.694245
	 B(12,9,13)       =         1.896561	     108.664964
	 B(12,9,14)       =         1.910050	     109.437799
	 B(12,15,18)      =         1.940352	     111.173985
	 B(12,15,19)      =         1.940602	     111.188295
	 B(12,15,20)      =         1.940105	     111.159853
	 B(13,9,14)       =         1.852402	     106.134840
	 B(15,12,16)      =         1.909342	     109.397224
	 B(15,12,17)      =         1.901574	     108.952192
	 B(16,12,17)      =         1.856005	     106.341266
	 B(18,15,19)      =         1.880734	     107.758142
	 B(18,15,20)      =         1.879994	     107.715748
	 B(19,15,20)      =         1.879269	     107.674159
	 D(1,2,3,4)       =         3.089132	     176.994205
	 D(1,2,3,5)       =         0.043257	       2.478434
	 D(2,3,4,6)       =         1.086603	      62.257771
	 D(2,3,4,7)       =        -3.041497	    -174.264931
	 D(2,3,4,8)       =        -1.032604	     -59.163838
	 D(3,4,6,9)       =        -3.127490	    -179.191964
	 D(3,4,6,10)      =         1.025033	      58.730062
	 D(3,4,6,11)      =        -1.002124	     -57.417502
	 D(4,6,9,12)      =        -1.137973	     -65.201057
	 D(4,6,9,13)      =         3.023394	     173.227712
	 D(4,6,9,14)      =         1.015661	      58.193093
	 D(5,3,4,6)       =        -2.155072	    -123.476506
	*D(5,3,4,7)       =         0.000000	       0.000000
	 D(5,3,4,8)       =         2.008907	     115.101885
	 D(6,9,12,15)     =        -3.073660	    -176.107773
	 D(6,9,12,16)     =        -0.949520	     -54.403481
	 D(6,9,12,17)     =         1.083491	      62.079449
	 D(7,4,6,9)       =         1.052417	      60.299037
	 D(7,4,6,10)      =        -1.078246	     -61.778936
	 D(7,4,6,11)      =        -3.105403	    -177.926501
	 D(8,4,6,9)       =        -1.032884	     -59.179889
	 D(8,4,6,10)      =         3.119639	     178.742138
	 D(8,4,6,11)      =         1.092481	      62.594573
	 D(9,12,15,18)    =        -3.139102	    -179.857294
	 D(9,12,15,19)    =         1.048592	      60.079886
	 D(9,12,15,20)    =        -1.044880	     -59.867201
	 D(10,6,9,12)     =         0.990801	      56.768744
	 D(10,6,9,13)     =        -1.131017	     -64.802488
	 D(10,6,9,14)     =        -3.138750	    -179.837107
	 D(11,6,9,12)     =         3.018448	     172.944354
	 D(11,6,9,13)     =         0.896630	      51.373123
	 D(11,6,9,14)     =        -1.111103	     -63.661497
	 D(13,9,12,15)    =        -0.957171	     -54.841857
	 D(13,9,12,16)    =         1.166970	      66.862435
	 D(13,9,12,17)    =        -3.083205	    -176.654635
	 D(14,9,12,15)    =         1.058410	      60.642443
	 D(14,9,12,16)    =        -3.100634	    -177.653265
	 D(14,9,12,17)    =        -1.067624	     -61.170335
	 D(16,12,15,18)   =         1.021483	      58.526661
	 D(16,12,15,19)   =        -1.074009	     -61.536160
	 D(16,12,15,20)   =         3.115705	     178.516753
	 D(17,12,15,18)   =        -1.000791	     -57.341122
	 D(17,12,15,19)   =        -3.096283	    -177.403943
	 D(17,12,15,20)   =         1.093431	      62.648970

	Current energy   :      -383.9467722129

	Energy change for the previous step:
		Projected    :        -0.0013619277
		Actual       :         0.0001595486

	Performing BFGS update.
	Previous computed or guess Hessian on step 1.
	Steps to be used in Hessian update: 1
	Taking RFO optimization step.
	Going to follow RFO solution 1.
	Using RFO vector 1.
	Norm of target step-size    0.24143
	Projected energy change by RFO approximation:         0.0008967464

	Back-transformation to cartesian coordinates...
	Successfully converged to displaced geometry.

	Back-transformation to cartesian coordinates to adjust frozen coordinates...
	Successfully converged to displaced geometry.

	--- Internal Coordinate Step in ANG or DEG, aJ/ANG or AJ/DEG ---
	 ---------------------------------------------------------------------------
	   Coordinate                Previous        Force       Change         New 
	   ----------                --------       ------       ------       ------
	    1 R(1,2)          =      0.952352    -0.002071     0.000011     0.952363
	    2 R(2,3)          =      1.333973    -0.003128     0.001006     1.334979
	    3 R(3,4)          =      1.508392    -0.010932     0.000355     1.508747
	    4 R(3,5)          =      1.187636     0.010159     0.000036     1.187672
	    5 R(4,6)          =      1.534418     0.003424     0.007684     1.542102
	    6 R(4,7)          =      1.081469    -0.005858    -0.004097     1.077372
	    7 R(4,8)          =      1.087764    -0.005968     0.000195     1.087959
	    8 R(6,9)          =      1.531663     0.005854    -0.000021     1.531642
	    9 R(6,10)         =      1.087922     0.000418     0.002159     1.090081
	   10 R(6,11)         =      1.084002     0.002811    -0.000349     1.083653
	   11 R(9,12)         =      1.531262    -0.000375    -0.000100     1.531162
	   12 R(9,13)         =      1.087674    -0.000715     0.000068     1.087742
	   13 R(9,14)         =      1.088700     0.001409    -0.000294     1.088406
	   14 R(12,15)        =      1.528512     0.000050    -0.000038     1.528474
	   15 R(12,16)        =      1.088032     0.000131    -0.000096     1.087936
	   16 R(12,17)        =      1.086572    -0.001621    -0.000477     1.086094
	   17 R(15,18)        =      1.085363     0.000166    -0.000125     1.085238
	   18 R(15,19)        =      1.086273    -0.000192     0.000058     1.086331
	   19 R(15,20)        =      1.086405    -0.000233    -0.000002     1.086403
	   20 B(1,2,3)        =    108.145064    -0.000055    -0.036832   108.108233
	   21 B(2,3,4)        =    112.583124    -0.000088     0.975609   113.558733
	   22 B(2,3,5)        =    121.665058     0.000120    -0.134867   121.530191
	   23 B(3,4,6)        =    113.457502    -0.000064     0.104449   113.561951
	   24 B(3,4,7)        =    106.510973     0.000064    -0.422784   106.088189
	   25 B(3,4,8)        =    107.281432     0.000002     0.057149   107.338581
	   26 B(4,3,5)        =    125.498253    -0.000005    -0.614380   124.883873
	   27 B(4,6,9)        =    113.677059     0.000019     0.020733   113.697792
	   28 B(4,6,10)       =    109.013154     0.000019    -0.094335   108.918819
	   29 B(4,6,11)       =    109.079201    -0.000052     0.238219   109.317420
	   30 B(6,4,7)        =    111.840439    -0.000089    -0.643644   111.196794
	   31 B(6,4,8)        =    109.779696    -0.000002    -1.422269   108.357428
	   32 B(6,9,12)       =    114.959987     0.000038     0.069196   115.029183
	   33 B(6,9,13)       =    108.103814    -0.000024    -0.051694   108.052119
	   34 B(6,9,14)       =    109.166816     0.000009    -0.227737   108.939079
	   35 B(7,4,8)        =    107.694275     0.000101     2.519576   110.213851
	   36 B(9,6,10)       =    109.208416    -0.000000    -0.475956   108.732460
	   37 B(9,6,11)       =    108.934893     0.000012    -0.265820   108.669073
	   38 B(9,12,15)      =    112.520284    -0.000004    -0.076440   112.443844
	   39 B(9,12,16)      =    109.242003    -0.000001     0.023370   109.265373
	   40 B(9,12,17)      =    110.196172     0.000009     0.016987   110.213159
	   41 B(10,6,11)      =    106.694245     0.000001     0.617894   107.312138
	   42 B(12,9,13)      =    108.664964    -0.000011     0.027125   108.692089
	   43 B(12,9,14)      =    109.437799    -0.000019     0.130217   109.568016
	   44 B(12,15,18)     =    111.173985     0.000002    -0.053737   111.120248
	   45 B(12,15,19)     =    111.188295    -0.000001     0.037971   111.226265
	   46 B(12,15,20)     =    111.159853    -0.000002     0.014252   111.174105
	   47 B(13,9,14)      =    106.134840     0.000004     0.051781   106.186621
	   48 B(15,12,16)     =    109.397224     0.000001     0.015214   109.412438
	   49 B(15,12,17)     =    108.952192    -0.000006     0.037669   108.989861
	   50 B(16,12,17)     =    106.341266     0.000001    -0.013232   106.328034
	   51 B(18,15,19)     =    107.758142    -0.000001    -0.000106   107.758037
	   52 B(18,15,20)     =    107.715748     0.000000    -0.003338   107.712410
	   53 B(19,15,20)     =    107.674159     0.000001     0.005066   107.679225
	   54 D(1,2,3,4)      =    176.994205     0.000037     3.607776   180.601981
	   55 D(1,2,3,5)      =      2.478434    -0.000031    -3.685442    -1.207007
	   56 D(2,3,4,6)      =     62.257771    -0.000048    -6.571113    55.686658
	   57 D(2,3,4,7)      =   -174.264931    -0.000073    -7.615392  -181.880323
	   58 D(2,3,4,8)      =    -59.163838    -0.000039    -4.891626   -64.055464
	   59 D(3,4,6,9)      =   -179.191964     0.000006    -1.224040  -180.416005
	   60 D(3,4,6,10)     =     58.730062    -0.000000    -0.558159    58.171903
	   61 D(3,4,6,11)     =    -57.417502     0.000004    -1.377862   -58.795364
	   62 D(4,6,9,12)     =    -65.201057    -0.000009    -0.330572   -65.531628
	   63 D(4,6,9,13)     =    173.227712    -0.000007    -0.373270   172.854442
	   64 D(4,6,9,14)     =     58.193093    -0.000007    -0.288093    57.905000
	   65 D(5,3,4,6)      =   -123.476506     0.000025     1.042858  -122.433647
	   66 *D(5,3,4,7)     =      0.000000     0.000000     0.000000     0.000000
	   67 D(5,3,4,8)      =    115.101885     0.000034     2.722346   117.824231
	   68 D(6,9,12,15)    =   -176.107773     0.000003     0.212228  -175.895545
	   69 D(6,9,12,16)    =    -54.403481     0.000003     0.197055   -54.206426
	   70 D(6,9,12,17)    =     62.079449     0.000004     0.204463    62.283912
	   71 D(7,4,6,9)      =     60.299037     0.000012    -0.278234    60.020803
	   72 D(7,4,6,10)     =    -61.778936     0.000006     0.387647   -61.391289
	   73 D(7,4,6,11)     =   -177.926501     0.000010    -0.432056  -178.358557
	   74 D(8,4,6,9)      =    -59.179889    -0.000004    -2.074989   -61.254878
	   75 D(8,4,6,10)     =    178.742138    -0.000010    -1.409107   177.333030
	   76 D(8,4,6,11)     =     62.594573    -0.000006    -2.228810    60.365763
	   77 D(9,12,15,18)   =   -179.857294    -0.000001    -0.000058  -179.857352
	   78 D(9,12,15,19)   =     60.079886    -0.000001     0.010699    60.090585
	   79 D(9,12,15,20)   =    -59.867201    -0.000001    -0.030741   -59.897943
	   80 D(10,6,9,12)    =     56.768744    -0.000000    -0.784454    55.984290
	   81 D(10,6,9,13)    =    -64.802488     0.000001    -0.827153   -65.629641
	   82 D(10,6,9,14)    =   -179.837107     0.000002    -0.741975  -180.579082
	   83 D(11,6,9,12)    =    172.944354     0.000002    -0.456535   172.487820
	   84 D(11,6,9,13)    =     51.373123     0.000003    -0.499233    50.873889
	   85 D(11,6,9,14)    =    -63.661497     0.000004    -0.414056   -64.075553
	   86 D(13,9,12,15)   =    -54.841857     0.000000     0.212585   -54.629272
	   87 D(13,9,12,16)   =     66.862435    -0.000000     0.197412    67.059847
	   88 D(13,9,12,17)   =   -176.654635     0.000001     0.204820  -176.449815
	   89 D(14,9,12,15)   =     60.642443    -0.000002     0.360207    61.002650
	   90 D(14,9,12,16)   =   -177.653265    -0.000003     0.345034  -177.308231
	   91 D(14,9,12,17)   =    -61.170335    -0.000001     0.352442   -60.817893
	   92 D(16,12,15,18)  =     58.526661     0.000000     0.010611    58.537271
	   93 D(16,12,15,19)  =    -61.536160     0.000000     0.021368   -61.514792
	   94 D(16,12,15,20)  =    178.516753     0.000000    -0.020073   178.496680
	   95 D(17,12,15,18)  =    -57.341122     0.000000    -0.003008   -57.344130
	   96 D(17,12,15,19)  =   -177.403943     0.000000     0.007750  -177.396193
	   97 D(17,12,15,20)  =     62.648970     0.000001    -0.033691    62.615279
	 ---------------------------------------------------------------------------

  ==> Convergence Check <==

  Measures of convergence in internal coordinates in au.
  Criteria marked as inactive (o), active & met (*), and active & unmet ( ).
  ---------------------------------------------------------------------------------------------
   Step     Total Energy     Delta E     MAX Force     RMS Force      MAX Disp      RMS Disp   
  ---------------------------------------------------------------------------------------------
    Convergence Criteria    1.00e-06 *    3.00e-04 *             o    1.20e-03 *             o
  ---------------------------------------------------------------------------------------------
      2    -383.94677221    1.60e-04      4.17e-03      7.94e-04 o    1.33e-01      2.45e-02 o  ~
  ---------------------------------------------------------------------------------------------

	Writing optimization data to binary file.
	Structure for next step:
	Cartesian Geometry (in Angstrom)
	    H     3.5309444833   0.9430271564   0.3295648624
	    O     2.6279835759   0.8482158610   0.6170844332
	    C     2.0824896065  -0.1671250810  -0.0564791302
	    C     0.6370845443  -0.4174700854   0.2962921744
	    O     2.6967937096  -0.7717195853  -0.8735845548
	    C    -0.2642678889   0.8210995290   0.1185641771
	    H     0.3123535960  -1.2291525688  -0.3333523075
	    H     0.6056711780  -0.7169297979   1.3417547539
	    C    -1.7342458112   0.5676757216   0.4662243183
	    H    -0.2023108944   1.1577284217  -0.9163842986
	    H     0.1058594890   1.6262761891   0.7422633622
	    C    -2.4563489125  -0.4207750447  -0.4535519106
	    H    -2.2575611523   1.5206887652   0.4332238099
	    H    -1.7990673868   0.2214363785   1.4960513984
	    C    -3.9412087259  -0.5537717731  -0.1163041150
	    H    -2.3477721088  -0.0954183092  -1.4860042302
	    H    -1.9907321478  -1.4000311453  -0.3914295358
	    H    -4.4308792120  -1.2603645752  -0.7786419244
	    H    -4.4531822276   0.3995638705  -0.2119522688
	    H    -4.0824226277  -0.9033369154   0.9025847033
			--------------------------
			 OPTKING Finished Execution 
			--------------------------

    Structure for next step:
    Molecular point group: c1
    Full point group: C1

    Geometry (in Angstrom), charge = 0, multiplicity = 1:

    H            3.531726441723     0.947810701326     0.328783064825
    O            2.628765603288     0.852999413119     0.616302613605
    C            2.083271675558    -0.162341451268    -0.057260898340
    C            0.637866723713    -0.412686436569     0.295510379313
    O            2.697575731750    -0.766935909428    -0.874366260483
    C           -0.263485640651     0.825883083272     0.117782395606
    H            0.313135800235    -1.224368858047    -0.334134054474
    H            0.606453359833    -0.712146126213     1.340972879059
    C           -1.733463450684     0.572459295159     0.465442510236
    H           -0.201528650935     1.162511950266    -0.917166001089
    H            0.106641708915     1.631059681840     0.741481533077
    C           -2.455566496864    -0.415991395676    -0.454333648389
    H           -2.256778751834     1.525472265996     0.432442004433
    H           -1.798285021394     0.226219978516     1.495269511715
    C           -3.940426196848    -0.548988113858    -0.117085878513
    H           -2.346989701443    -0.090634684953    -1.486785889124
    H           -1.989949767726    -1.395247421469    -0.392211278354
    H           -4.430096645638    -1.255580861985    -0.779423637400
    H           -4.452399659474     0.404347456908    -0.212734025043
    H           -4.081640087934    -0.898553229515     0.901802861986

gradient() will perform analytic gradient computation.

*** tstart() called on cx1-1-2-3.cx1.hpc.ic.ac.uk
*** at Fri Sep  2 15:34:56 2016


         ---------------------------------------------------------
                                   SCF
            by Justin Turney, Rob Parrish, and Andy Simmonett
                              RHF Reference
                        4 Threads,   2000 MiB Core
         ---------------------------------------------------------

  ==> Geometry <==

    Molecular point group: c1
    Full point group: C1

    Geometry (in Angstrom), charge = 0, multiplicity = 1:

       Center              X                  Y                   Z               Mass       
    ------------   -----------------  -----------------  -----------------  -----------------
           H          3.531726441723     0.947810701326     0.328783064825     1.007825032070
           O          2.628765603288     0.852999413119     0.616302613605    15.994914619560
           C          2.083271675558    -0.162341451268    -0.057260898340    12.000000000000
           C          0.637866723713    -0.412686436569     0.295510379313    12.000000000000
           O          2.697575731750    -0.766935909428    -0.874366260483    15.994914619560
           C         -0.263485640651     0.825883083272     0.117782395606    12.000000000000
           H          0.313135800235    -1.224368858047    -0.334134054474     1.007825032070
           H          0.606453359833    -0.712146126213     1.340972879059     1.007825032070
           C         -1.733463450684     0.572459295159     0.465442510236    12.000000000000
           H         -0.201528650935     1.162511950266    -0.917166001089     1.007825032070
           H          0.106641708915     1.631059681840     0.741481533077     1.007825032070
           C         -2.455566496864    -0.415991395676    -0.454333648389    12.000000000000
           H         -2.256778751834     1.525472265996     0.432442004433     1.007825032070
           H         -1.798285021394     0.226219978516     1.495269511715     1.007825032070
           C         -3.940426196848    -0.548988113858    -0.117085878513    12.000000000000
           H         -2.346989701443    -0.090634684953    -1.486785889124     1.007825032070
           H         -1.989949767726    -1.395247421469    -0.392211278354     1.007825032070
           H         -4.430096645638    -1.255580861985    -0.779423637400     1.007825032070
[...]
	 B(3,4,8)         =         1.877242	     107.558050
	 B(4,3,5)         =         2.190117	     125.484485
	 B(4,6,9)         =         1.982012	     113.560930
	 B(4,6,10)        =         1.906279	     109.221737
	 B(4,6,11)        =         1.898221	     108.760042
	 B(6,4,7)         =         1.947979	     111.610978
	 B(6,4,8)         =         1.912300	     109.566693
	 B(6,9,12)        =         2.007244	     115.006624
	 B(6,9,13)        =         1.885057	     108.005792
	 B(6,9,14)        =         1.907592	     109.296985
	 B(7,4,8)         =         1.890110	     108.295336
	 B(9,6,10)        =         1.909289	     109.394230
	 B(9,6,11)        =         1.901977	     108.975280
	 B(9,12,15)       =         1.963837	     112.519572
	 B(9,12,16)       =         1.906358	     109.226279
	 B(9,12,17)       =         1.923819	     110.226697
	 B(10,6,11)       =         1.862255	     106.699371
	 B(12,9,13)       =         1.895612	     108.610541
	 B(12,9,14)       =         1.910003	     109.435134
	 B(12,15,18)      =         1.940642	     111.190572
	 B(12,15,19)      =         1.940413	     111.177494
	 B(12,15,20)      =         1.939951	     111.151027
	 B(13,9,14)       =         1.851867	     106.104166
	 B(15,12,16)      =         1.909143	     109.385862
	 B(15,12,17)      =         1.901332	     108.938313
	 B(16,12,17)      =         1.856209	     106.352927
	 B(18,15,19)      =         1.880723	     107.757466
	 B(18,15,20)      =         1.880042	     107.718498
	 B(19,15,20)      =         1.879288	     107.675294
	 D(1,2,3,4)       =         3.134625	     179.600789
	 D(1,2,3,5)       =         0.005887	       0.337281
	 D(2,3,4,6)       =         1.008828	      57.801586
	 D(2,3,4,7)       =        -3.128205	    -179.232940
	 D(2,3,4,8)       =        -1.104164	     -63.263958
	 D(3,4,6,9)       =        -3.107632	    -178.054220
	 D(3,4,6,10)      =         1.039422	      59.554506
	 D(3,4,6,11)      =        -0.986764	     -56.537403
	 D(4,6,9,12)      =        -1.156291	     -66.250592
	 D(4,6,9,13)      =         3.007034	     172.290379
	 D(4,6,9,14)      =         0.999666	      57.276615
	 D(5,3,4,6)       =        -2.146162	    -122.966014
	*D(5,3,4,7)       =        -0.000000	      -0.000000
	 D(5,3,4,8)       =         2.024031	     115.968442
	 D(6,9,12,15)     =        -3.065688	    -175.650958
	 D(6,9,12,16)     =        -0.942000	     -53.972630
	 D(6,9,12,17)     =         1.091402	      62.532710
	 D(7,4,6,9)       =         1.078777	      61.809370
	 D(7,4,6,10)      =        -1.057354	     -60.581904
	 D(7,4,6,11)      =        -3.083540	    -176.673813
	 D(8,4,6,9)       =        -1.014633	     -58.134184
	 D(8,4,6,10)      =         3.132422	     179.474542
	 D(8,4,6,11)      =         1.106236	      63.382633
	 D(9,12,15,18)    =        -3.139951	    -179.905949
	 D(9,12,15,19)    =         1.047690	      60.028197
	 D(9,12,15,20)    =        -1.045577	     -59.907177
	 D(10,6,9,12)     =         0.978174	      56.045247
	 D(10,6,9,13)     =        -1.141686	     -65.413782
	 D(10,6,9,14)     =         3.134131	     179.572454
	 D(11,6,9,12)     =         3.008124	     172.352830
	 D(11,6,9,13)     =         0.888264	      50.893801
	 D(11,6,9,14)     =        -1.119104	     -64.119964
	 D(13,9,12,15)    =        -0.951573	     -54.521105
	 D(13,9,12,16)    =         1.172115	      67.157223
	 D(13,9,12,17)    =        -3.077669	    -176.337437
	 D(14,9,12,15)    =         1.062822	      60.895225
	 D(14,9,12,16)    =        -3.096676	    -177.426447
	 D(14,9,12,17)    =        -1.063274	     -60.921107
	 D(16,12,15,18)   =         1.021131	      58.506477
	 D(16,12,15,19)   =        -1.074414	     -61.559377
	 D(16,12,15,20)   =         3.115504	     178.505249
	 D(17,12,15,18)   =        -1.001142	     -57.361232
	 D(17,12,15,19)   =        -3.096687	    -177.427086
	 D(17,12,15,20)   =         1.093231	      62.637540

	Current energy   :      -383.9472957762

	Energy change for the previous step:
		Projected    :        -0.0000036633
		Actual       :        -0.0000008369
	Energy ratio indicates iffy step: Trust radius decreased to 3.125e-02.


	Performing BFGS update.
	Previous computed or guess Hessian on step 1.
	Steps to be used in Hessian update: 6 5
	Taking RFO optimization step.
	Going to follow RFO solution 1.
	Using RFO vector 1.
	Norm of target step-size    0.02084
	Projected energy change by RFO approximation:        -0.0000014202

	Back-transformation to cartesian coordinates...
	Successfully converged to displaced geometry.

	Back-transformation to cartesian coordinates to adjust frozen coordinates...
	Successfully converged to displaced geometry.

	--- Internal Coordinate Step in ANG or DEG, aJ/ANG or AJ/DEG ---
	 ---------------------------------------------------------------------------
	   Coordinate                Previous        Force       Change         New 
	   ----------                --------       ------       ------       ------
	    1 R(1,2)          =      0.952253     0.000052    -0.000008     0.952245
	    2 R(2,3)          =      1.333152     0.000194     0.000030     1.333182
	    3 R(3,4)          =      1.506840     0.000111     0.000015     1.506855
	    4 R(3,5)          =      1.188206    -0.000150    -0.000003     1.188203
	    5 R(4,6)          =      1.536129     0.000083     0.000031     1.536160
	    6 R(4,7)          =      1.080484    -0.000049    -0.000014     1.080470
	    7 R(4,8)          =      1.086863     0.000107     0.000029     1.086892
	    8 R(6,9)          =      1.532460    -0.000182    -0.000033     1.532426
	    9 R(6,10)         =      1.087745     0.000123     0.000038     1.087784
	   10 R(6,11)         =      1.084036     0.000039    -0.000003     1.084033
	   11 R(9,12)         =      1.531102     0.000148     0.000029     1.531130
	   12 R(9,13)         =      1.087631     0.000012    -0.000006     1.087626
	   13 R(9,14)         =      1.088863    -0.000032     0.000000     1.088863
	   14 R(12,15)        =      1.528559    -0.000025    -0.000005     1.528554
	   15 R(12,16)        =      1.088033     0.000033     0.000008     1.088040
	   16 R(12,17)        =      1.086487    -0.000061    -0.000012     1.086475
	   17 R(15,18)        =      1.085396    -0.000018    -0.000002     1.085394
	   18 R(15,19)        =      1.086242    -0.000012    -0.000002     1.086240
	   19 R(15,20)        =      1.086375     0.000031     0.000004     1.086379
	   20 B(1,2,3)        =    107.987666     0.000001    -0.003784   107.983882
	   21 B(2,3,4)        =    112.577700     0.000004     0.008897   112.586596
	   22 B(2,3,5)        =    121.933259    -0.000002     0.001384   121.934644
	   23 B(3,4,6)        =    113.011166    -0.000000     0.003686   113.014851
	   24 B(3,4,7)        =    106.597932     0.000000    -0.005094   106.592838
	   25 B(3,4,8)        =    107.558050    -0.000000    -0.009212   107.548839
	   26 B(4,3,5)        =    125.484485    -0.000002    -0.010610   125.473875
	   27 B(4,6,9)        =    113.560930     0.000002     0.004477   113.565407
	   28 B(4,6,10)       =    109.221737    -0.000001    -0.004204   109.217534
	   29 B(4,6,11)       =    108.760042    -0.000000     0.002898   108.762940
	   30 B(6,4,7)        =    111.610978     0.000000    -0.002568   111.608410
	   31 B(6,4,8)        =    109.566693    -0.000000    -0.001941   109.564752
	   32 B(6,9,12)       =    115.006624     0.000002     0.007705   115.014330
	   33 B(6,9,13)       =    108.005792    -0.000002    -0.012715   107.993077
	   34 B(6,9,14)       =    109.296985    -0.000001     0.000719   109.297704
	   35 B(7,4,8)        =    108.295336     0.000001     0.015506   108.310841
	   36 B(9,6,10)       =    109.394230    -0.000001    -0.000907   109.393323
	   37 B(9,6,11)       =    108.975280    -0.000001    -0.009801   108.965480
	   38 B(9,12,15)      =    112.519572    -0.000000     0.000128   112.519701
	   39 B(9,12,16)      =    109.226279     0.000000     0.004913   109.231192
	   40 B(9,12,17)      =    110.226697     0.000000    -0.003292   110.223405
	   41 B(10,6,11)      =    106.699371     0.000001     0.007833   106.707204
	   42 B(12,9,13)      =    108.610541     0.000000     0.001542   108.612083
	   43 B(12,9,14)      =    109.435134    -0.000001     0.001899   109.437033
	   44 B(12,15,18)     =    111.190572    -0.000000    -0.000753   111.189820
	   45 B(12,15,19)     =    111.177494    -0.000000    -0.000628   111.176866
	   46 B(12,15,20)     =    111.151027     0.000000     0.001216   111.152243
	   47 B(13,9,14)      =    106.104166     0.000000     0.000107   106.104272
	   48 B(15,12,16)     =    109.385862     0.000000     0.002569   109.388431
	   49 B(15,12,17)     =    108.938313    -0.000000    -0.005435   108.932878
	   50 B(16,12,17)     =    106.352927     0.000000     0.001205   106.354132
	   51 B(18,15,19)     =    107.757466     0.000000     0.000352   107.757818
	   52 B(18,15,20)     =    107.718498    -0.000000    -0.000309   107.718190
	   53 B(19,15,20)     =    107.675294    -0.000000     0.000132   107.675427
	   54 D(1,2,3,4)      =    179.600789    -0.000000    -0.009994   179.590795
	   55 D(1,2,3,5)      =      0.337281     0.000000     0.016234     0.353515
	   56 D(2,3,4,6)      =     57.801586     0.000000     0.031688    57.833274
	   57 D(2,3,4,7)      =   -179.232940     0.000000     0.027223  -179.205717
	   58 D(2,3,4,8)      =    -63.263958     0.000000     0.038139   -63.225819
	   59 D(3,4,6,9)      =   -178.054220     0.000000    -0.041984  -178.096204
	   60 D(3,4,6,10)     =     59.554506     0.000000    -0.040800    59.513706
	   61 D(3,4,6,11)     =    -56.537403     0.000000    -0.049443   -56.586846
	   62 D(4,6,9,12)     =    -66.250592    -0.000000    -0.269583   -66.520174
	   63 D(4,6,9,13)     =    172.290379    -0.000000    -0.267222   172.023157
	   64 D(4,6,9,14)     =     57.276615     0.000000    -0.260883    57.015732
	   65 D(5,3,4,6)      =   -122.966014    -0.000000     0.004469  -122.961545
	   66 *D(5,3,4,7)     =      0.000000    -0.000000     0.000000     0.000000
	   67 D(5,3,4,8)      =    115.968442     0.000000     0.010920   115.979362
	   68 D(6,9,12,15)    =   -175.650958    -0.000000    -0.281911  -175.932869
	   69 D(6,9,12,16)    =    -53.972630    -0.000000    -0.275110   -54.247740
	   70 D(6,9,12,17)    =     62.532710     0.000000    -0.272662    62.260048
	   71 D(7,4,6,9)      =     61.809370     0.000000    -0.036133    61.773237
	   72 D(7,4,6,10)     =    -60.581904     0.000000    -0.034949   -60.616852
	   73 D(7,4,6,11)     =   -176.673813     0.000000    -0.043592  -176.717405
	   74 D(8,4,6,9)      =    -58.134184    -0.000000    -0.052603   -58.186787
	   75 D(8,4,6,10)     =    179.474542    -0.000000    -0.051419   179.423123
	   76 D(8,4,6,11)     =     63.382633    -0.000000    -0.060063    63.322570
	   77 D(9,12,15,18)   =   -179.905949     0.000000     0.073593  -179.832356
	   78 D(9,12,15,19)   =     60.028197     0.000000     0.074076    60.102274
	   79 D(9,12,15,20)   =    -59.907177     0.000000     0.073514   -59.833662
	   80 D(10,6,9,12)    =     56.045247    -0.000000    -0.272585    55.772663
	   81 D(10,6,9,13)    =    -65.413782    -0.000000    -0.270224   -65.684006
	   82 D(10,6,9,14)    =    179.572454     0.000000    -0.263885   179.308569
	   83 D(11,6,9,12)    =    172.352830    -0.000000    -0.269222   172.083608
	   84 D(11,6,9,13)    =     50.893801    -0.000000    -0.266862    50.626939
	   85 D(11,6,9,14)    =    -64.119964    -0.000000    -0.260522   -64.380486
	   86 D(13,9,12,15)   =    -54.521105    -0.000000    -0.292005   -54.813109
	   87 D(13,9,12,16)   =     67.157223    -0.000000    -0.285203    66.872020
	   88 D(13,9,12,17)   =   -176.337437    -0.000000    -0.282755  -176.620192
	   89 D(14,9,12,15)   =     60.895225    -0.000000    -0.290002    60.605223
	   90 D(14,9,12,16)   =   -177.426447    -0.000000    -0.283201  -177.709648
	   91 D(14,9,12,17)   =    -60.921107    -0.000000    -0.280753   -61.201860
	   92 D(16,12,15,18)  =     58.506477    -0.000000     0.065452    58.571929
	   93 D(16,12,15,19)  =    -61.559377    -0.000000     0.065935   -61.493442
	   94 D(16,12,15,20)  =    178.505249    -0.000000     0.065373   178.570622
	   95 D(17,12,15,18)  =    -57.361232     0.000000     0.065623   -57.295609
	   96 D(17,12,15,19)  =   -177.427086     0.000000     0.066106  -177.360980
	   97 D(17,12,15,20)  =     62.637540     0.000000     0.065544    62.703084
	 ---------------------------------------------------------------------------

  ==> Convergence Check <==

  Measures of convergence in internal coordinates in au.
  Criteria marked as inactive (o), active & met (*), and active & unmet ( ).
  ---------------------------------------------------------------------------------------------
   Step     Total Energy     Delta E     MAX Force     RMS Force      MAX Disp      RMS Disp   
  ---------------------------------------------------------------------------------------------
    Convergence Criteria    1.00e-06 *    3.00e-04 *             o    1.20e-03 *             o
  ---------------------------------------------------------------------------------------------
      7    -383.94729578   -8.37e-07 *    4.87e-05 *    1.07e-05 o    5.10e-03      2.12e-03 o  ~
  ---------------------------------------------------------------------------------------------


  **** Optimization is complete! (in 7 steps) ****

  ==> Optimization Summary <==

  Measures of convergence in internal coordinates in au.
  --------------------------------------------------------------------------------------------------------------- ~
   Step         Total Energy             Delta E       MAX Force       RMS Force        MAX Disp        RMS Disp  ~
  --------------------------------------------------------------------------------------------------------------- ~
      1    -383.946931761531   -383.946931761531      0.00449375      0.00099008      0.13371333      0.02844348  ~
      2    -383.946772212904      0.000159548627      0.00417397      0.00079441      0.13291366      0.02450053  ~
      3    -383.946847797445     -0.000075584541      0.00449157      0.00117647      0.04949744      0.01447490  ~
      4    -383.947288762896     -0.000440965451      0.00046562      0.00012273      0.03425536      0.01269241  ~
      5    -383.947277607434      0.000011155462      0.00071101      0.00015511      0.02278514      0.00898273  ~
      6    -383.947294939378     -0.000017331944      0.00014521      0.00003147      0.00865378      0.00287898  ~
      7    -383.947295776233     -0.000000836855      0.00004870      0.00001075      0.00509644      0.00211635  ~
  --------------------------------------------------------------------------------------------------------------- ~

	Writing optimization data to binary file.
	Final energy is   -383.9472957762330
	Final (previous) structure:
	Cartesian Geometry (in Angstrom)
	    H     3.5094054231   0.9500944967   0.4162771282
	    O     2.5980986573   0.8395138227   0.6694130514
	    C     2.0840081390  -0.1479621549  -0.0640008672
	    C     0.6378529277  -0.4181602606   0.2618731672
	    O     2.7316316943  -0.7367994753  -0.8675473662
	    C    -0.2598497745   0.8145522750   0.0768308062
	    H     0.3262978703  -1.2360475588  -0.3717188170
	    H     0.5912572905  -0.7505032504   1.2956280105
	    C    -1.7253506886   0.5666858088   0.4500621022
	    H    -0.2018047292   1.1478997401  -0.9569487969
	    H     0.1274410033   1.6226104709   0.6868976477
	    C    -2.4648784708  -0.4234711631  -0.4537967410
	    H    -2.2462584769   1.5209518667   0.4188600787
	    H    -1.7809814383   0.2258382781   1.4827043403
	    C    -3.9460244084  -0.5480471726  -0.0971751815
	    H    -2.3683796536  -0.1041908735  -1.4894428580
	    H    -2.0035432953  -1.4052126077  -0.3920952257
	    H    -4.4484104551  -1.2555388136  -0.7492098502
	    H    -4.4539906375   0.4074969691  -0.1911303586
	    H    -4.0754905866  -0.8912901837   0.9253871772
	Saving final (previous) structure.
			--------------------------
			 OPTKING Finished Execution 
			--------------------------

    Final optimized geometry and variables:
    Molecular point group: c1
    Full point group: C1

    Geometry (in Angstrom), charge = 0, multiplicity = 1:

    H            3.509405155089     0.950094424119     0.416277096430
    O            2.598098458913     0.839513758638     0.669413000286
    C            2.084007979863    -0.147962143634    -0.064000862276
    C            0.637852878980    -0.418160228620     0.261873147192
    O            2.731631485752    -0.736799419015    -0.867547299903
    C           -0.259849754639     0.814552212803     0.076830800346
    H            0.326297845366    -1.236047464370    -0.371718788646
    H            0.591257245332    -0.750503193062     1.295627911585
    C           -1.725350556892     0.566685765484     0.450062067795
    H           -0.201804713773     1.147899652428    -0.956948723827
    H            0.127440993603     1.622610346988     0.686897595279
    C           -2.464878282558    -0.423471130728    -0.453796706388
    H           -2.246258305386     1.520951750510     0.418860046713
    H           -1.780981302327     0.225838260849     1.482704227060
    C           -3.946024107064    -0.548047130740    -0.097175174062
    H           -2.368379472718    -0.104190865503    -1.489442744224
    H           -2.003543142305    -1.405212500426    -0.392095195710
    H           -4.448410115428    -1.255538717702    -0.749209793033
    H           -4.453990297368     0.407496937935    -0.191130344017
    H           -4.075490275413    -0.891290115609     0.925387106525

	Cleaning optimization helper files.


Properties will be evaluated at   0.000000,   0.000000,   0.000000 Bohr

Properties computed using the  density matrix

  Nuclear Dipole Moment: (a.u.)
     X:   -15.9343      Y:     0.2181      Z:     1.0070

  Electronic Dipole Moment: (a.u.)
     X:    15.4886      Y:     0.2074      Z:    -0.5369

  Dipole Moment: (a.u.)
     X:    -0.4457      Y:     0.4254      Z:     0.4701     Total:     0.7750

  Dipole Moment: (Debye)
     X:    -1.1329      Y:     1.0814      Z:     1.1949     Total:     1.9699

  Quadrupole Moment: (Debye Ang)
    XX:   -50.3961     YY:   -51.0710     ZZ:   -52.4445
    XY:     4.9910     XZ:     4.3486     YZ:    -2.8196

  Traceless Quadrupole Moment: (Debye Ang)
    XX:     0.9078     YY:     0.2329     ZZ:    -1.1407
    XY:     4.9910     XZ:     4.3486     YZ:    -2.8196

  Mulliken Charges: (a.u.)
   Center  Symbol    Alpha    Beta     Spin     Total
       1     H     0.26747  0.26747  0.00000  0.46507
       2     O     4.34752  4.34752  0.00000 -0.69504
       3     C     2.62923  2.62923  0.00000  0.74154
       4     C     3.20479  3.20479  0.00000 -0.40959
       5     O     4.27913  4.27913  0.00000 -0.55826
       6     C     3.16597  3.16597  0.00000 -0.33194
       7     H     0.39462  0.39462  0.00000  0.21075
       8     H     0.40251  0.40251  0.00000  0.19499
       9     C     3.15434  3.15434  0.00000 -0.30867
      10     H     0.41491  0.41491  0.00000  0.17018
      11     H     0.40369  0.40369  0.00000  0.19262
      12     C     3.15499  3.15499  0.00000 -0.30998
      13     H     0.41798  0.41798  0.00000  0.16405
      14     H     0.42202  0.42202  0.00000  0.15596
      15     C     3.23957  3.23957  0.00000 -0.47914
      16     H     0.42095  0.42095  0.00000  0.15810
      17     H     0.42069  0.42069  0.00000  0.15863
      18     H     0.41757  0.41757  0.00000  0.16487
      19     H     0.42093  0.42093  0.00000  0.15814
      20     H     0.42114  0.42114  0.00000  0.15771

   Total alpha = 32.00000, Total beta = 32.00000, Total charge = -0.00000


*** PSI4 exiting successfully. Buy a developer a beer!
