    -----------------------------------------------------------------------
          Psi4: An Open-Source Ab Initio Electronic Structure Package
                              Psi4 1.0.54 Driver

                          Git: Rev {master} 8d4cec3 dirty

    J. M. Turney, A. C. Simmonett, R. M. Parrish, E. G. Hohenstein,
    F. A. Evangelista, J. T. Fermann, B. J. Mintz, L. A. Burns, J. J. Wilke,
    M. L. Abrams, N. J. Russ, M. L. Leininger, C. L. Janssen, E. T. Seidl,
    W. D. Allen, H. F. Schaefer, R. A. King, E. F. Valeev, C. D. Sherrill,
    and T. D. Crawford, WIREs Comput. Mol. Sci. 2, 556-565 (2012)
    (doi: 10.1002/wcms.93)

                         Additional Contributions by
    A. E. DePrince, U. Bozkaya, A. Yu. Sokolov, D. G. A. Smith, R. Di Remigio,
    R. M. Richard, J. F. Gonthier, H. R. McAlexander, M. Saitow, and
    B. P. Pritchard
    -----------------------------------------------------------------------


    Psi4 started on: Sat Sep 10 17:00:45 2016

    Process ID:  10765
    PSI4DATADIR: /export131/home/mjharvey/miniconda3/share/psi4
    Memory level set to 256.000 MB

  ==> Input File <==

--------------------------------------------------------------------------
set {
	reference rhf
	basis cc-pvtz
}


set_num_threads( 4 )
memory 2 gb

molecule MOL {
0 1

H	 1.907317	 1.637021	 -0.469852
O	 1.028081	 1.290312	 -0.491621
C	 1.050374	 0.054877	 0.000135
C	 -0.318151	 -0.570512	 0.000144
O	 2.047903	 -0.453099	 0.380746
C	 -1.454884	 0.441630	 -0.000560
H	 -0.371613	 -1.223646	 -0.864985
H	 -0.371920	 -1.222758	 0.865929
C	 -2.822577	 -0.232186	 0.000063
H	 -1.359760	 1.084704	 -0.867077
H	 -1.359641	 1.085996	 0.864983
H	 -2.954352	 -0.858985	 -0.875745
H	 -3.615886	 0.505352	 0.000019
H	 -2.953878	 -0.858359	 0.876394

	symmetry c1
}
set optking {
	frozen_dihedral = ("
		2 3 4 7
	")
}

ee,wfn = optimize('scf', return_wfn=True)
oeprop( wfn, 'DIPOLE', 'QUADRUPOLE', 'MULLIKEN_CHARGES')
f=open( 'psi4out.xyz', 'w' )
f.write( "14  " )
f.write( str(ee) + "\n" )
f.write( MOL.save_string_xyz() )
f.close()
--------------------------------------------------------------------------

  Memory set to   2.000 GiB by Python script.
gradient() will perform analytic gradient computation.

*** tstart() called on cx1-27-3-1
*** at Sat Sep 10 17:00:46 2016


         ---------------------------------------------------------
                                   SCF
            by Justin Turney, Rob Parrish, and Andy Simmonett
                              RHF Reference
                        4 Threads,   2000 MiB Core
         ---------------------------------------------------------

  ==> Geometry <==

    Molecular point group: c1
    Full point group: C1

    Geometry (in Angstrom), charge = 0, multiplicity = 1:

       Center              X                  Y                   Z               Mass       
    ------------   -----------------  -----------------  -----------------  -----------------
           H          1.958527248721     1.524958766365    -0.444298286718     1.007825032070
           O          1.079291248721     1.178249766365    -0.466067286718    15.994914619560
           C          1.101584248721    -0.057185233635     0.025688713282    12.000000000000
           C         -0.266940751279    -0.682574233635     0.025697713282    12.000000000000
           O          2.099113248721    -0.565161233635     0.406299713282    15.994914619560
           C         -1.403673751279     0.329567766365     0.024993713282    12.000000000000
           H         -0.320402751279    -1.335708233635    -0.839431286718     1.007825032070
           H         -0.320709751279    -1.334820233635     0.891482713282     1.007825032070
           C         -2.771366751279    -0.344248233635     0.025616713282    12.000000000000
           H         -1.308549751279     0.972641766365    -0.841523286718     1.007825032070
           H         -1.308430751279     0.973933766365     0.890536713282     1.007825032070
           H         -2.903141751279    -0.971047233635    -0.850191286718     1.007825032070
           H         -3.564675751279     0.393289766365     0.025572713282     1.007825032070
           H         -2.902667751279    -0.970421233635     0.901947713282     1.007825032070

  Running in c1 symmetry.

  Rotational constants: A =      0.30369  B =      0.06368  C =      0.05472 [cm^-1]
  Rotational constants: A =   9104.29336  B =   1909.20782  C =   1640.47662 [MHz]
  Nuclear repulsion =  241.981704911121625

  Charge       = 0
  Multiplicity = 1
  Electrons    = 48
  Nalpha       = 24
  Nbeta        = 24

  ==> Algorithm <==

  SCF Algorithm Type is DF.
  DIIS enabled.
  MOM disabled.
  Fractional occupation disabled.
  Guess Type is SAD.
  Energy threshold   = 1.00e-08
  Density threshold  = 1.00e-08
  Integral threshold = 0.00e+00

  ==> Primary Basis <==

  Basis Set: CC-PVTZ
    Number of shells: 108
    Number of basis function: 292
    Number of Cartesian functions: 330
    Spherical Harmonics?: true
    Max angular momentum: 3

  ==> Pre-Iterations <==

   -------------------------------------------------------
    Irrep   Nso     Nmo     Nalpha   Nbeta   Ndocc  Nsocc
   -------------------------------------------------------
     A        292     292       0       0       0       0
   -------------------------------------------------------
    Total     292     292      24      24      24       0
   -------------------------------------------------------

  ==> Integral Setup <==

  ==> DFJK: Density-Fitted J/K Matrices <==

    J tasked:                  Yes
    K tasked:                  Yes
    wK tasked:                  No
    OpenMP threads:              4
    Integrals threads:           4
    Memory (MB):              1430
    Algorithm:                Core
    Integral Cache:           NONE
    Schwarz Cutoff:          1E-12
    Fitting Condition:       1E-12

   => Auxiliary Basis Set <=

  Basis Set: 
    Number of shells: 230
    Number of basis function: 714
    Number of Cartesian functions: 856
    Spherical Harmonics?: true
    Max angular momentum: 4

  Minimum eigenvalue in the overlap matrix is 3.6719422659E-04.
  Using Symmetric Orthogonalization.
  SCF Guess: Superposition of Atomic Densities via on-the-fly atomic UHF.

  ==> Iterations <==

                           Total Energy        Delta E     RMS |[F,P]|

   @DF-RHF iter   0:  -308.73480022192552   -3.08735e+02   1.67101e-02 
   @DF-RHF iter   1:  -305.80094520599243    2.93386e+00   1.95445e-03 
   @DF-RHF iter   2:  -305.93907933644834   -1.38134e-01   1.31868e-03 DIIS
   @DF-RHF iter   3:  -305.99067669339775   -5.15974e-02   2.66874e-04 DIIS
   @DF-RHF iter   4:  -305.99650040773690   -5.82371e-03   1.15495e-04 DIIS
   @DF-RHF iter   5:  -305.99740924777302   -9.08840e-04   4.38693e-05 DIIS
   @DF-RHF iter   6:  -305.99762092418916   -2.11676e-04   1.79235e-05 DIIS
   @DF-RHF iter   7:  -305.99765511261364   -3.41884e-05   5.87252e-06 DIIS
   @DF-RHF iter   8:  -305.99766019690196   -5.08429e-06   1.92507e-06 DIIS
   @DF-RHF iter   9:  -305.99766078798882   -5.91087e-07   6.81123e-07 DIIS
   @DF-RHF iter  10:  -305.99766086874115   -8.07523e-08   2.48704e-07 DIIS
   @DF-RHF iter  11:  -305.99766087834053   -9.59938e-09   9.87099e-08 DIIS
   @DF-RHF iter  12:  -305.99766087989894   -1.55842e-09   3.28506e-08 DIIS
   @DF-RHF iter  13:  -305.99766088008300   -1.84059e-10   8.56437e-09 DIIS

  ==> Post-Iterations <==

    Orbital Energies (a.u.)
    -----------------------

    Doubly Occupied:                                                      

       1A    -20.605512     2A    -20.538898     3A    -11.374168  
       4A    -11.239378     5A    -11.227051     6A    -11.217022  
       7A     -1.478610     8A     -1.368958     9A     -1.087838  
      10A     -0.979561    11A     -0.846893    12A     -0.820899  
      13A     -0.704666    14A     -0.684401    15A     -0.665598  
      16A     -0.619765    17A     -0.592886    18A     -0.566936  
      19A     -0.549740    20A     -0.526607    21A     -0.499745  
      22A     -0.490374    23A     -0.473032    24A     -0.440241  

    Virtual:                                                              

      25A      0.132645    26A      0.156992    27A      0.170836  
      28A      0.177564    29A      0.188192    30A      0.202520  
      31A      0.227426    32A      0.240375    33A      0.256735  
      34A      0.293706    35A      0.347618    36A      0.357622  
      37A      0.366843    38A      0.391094    39A      0.401982  
      40A      0.425758    41A      0.442136    42A      0.463847  
      43A      0.477386    44A      0.500570    45A      0.533475  
      46A      0.560505    47A      0.573262    48A      0.587553  
      49A      0.597429    50A      0.617617    51A      0.634160  
      52A      0.635618    53A      0.646547    54A      0.657848  
      55A      0.672972    56A      0.681526    57A      0.695452  
      58A      0.714815    59A      0.736140    60A      0.763652  
      61A      0.810473    62A      0.811587    63A      0.825610  
      64A      0.833260    65A      0.845467    66A      0.867981  
      67A      0.900974    68A      0.919292    69A      0.930277  
      70A      0.943789    71A      0.967799    72A      1.030669  
      73A      1.049298    74A      1.062802    75A      1.087239  
      76A      1.098123    77A      1.149037    78A      1.175981  
      79A      1.201375    80A      1.212900    81A      1.236530  
      82A      1.256529    83A      1.272088    84A      1.277903  
      85A      1.286260    86A      1.310720    87A      1.333469  
      88A      1.352422    89A      1.376144    90A      1.397478  
      91A      1.409715    92A      1.416884    93A      1.429190  
      94A      1.468519    95A      1.476235    96A      1.483419  
      97A      1.506257    98A      1.534737    99A      1.554647  
     100A      1.560861   101A      1.591823   102A      1.604735  
     103A      1.612061   104A      1.639047   105A      1.651548  
     106A      1.704803   107A      1.730048   108A      1.764252  
     109A      1.781104   110A      1.803663   111A      1.822454  
     112A      1.866783   113A      1.890649   114A      1.967804  
     115A      1.989297   116A      2.039318   117A      2.070009  
     118A      2.255676   119A      2.274467   120A      2.361330  
     121A      2.377691   122A      2.414767   123A      2.456280  
     124A      2.494677   125A      2.543975   126A      2.571058  
     127A      2.595454   128A      2.627911   129A      2.683323  
     130A      2.717698   131A      2.730240   132A      2.772071  
     133A      2.790854   134A      2.820680   135A      2.842361  
     136A      2.845602   137A      2.894759   138A      2.910743  
     139A      2.918904   140A      2.963444   141A      2.994374  
     142A      2.999058   143A      3.021329   144A      3.092815  
     145A      3.108345   146A      3.122656   147A      3.153642  
     148A      3.177339   149A      3.206485   150A      3.213000  
     151A      3.226996   152A      3.256104   153A      3.292297  
     154A      3.314808   155A      3.339540   156A      3.346236  
     157A      3.363815   158A      3.398009   159A      3.402895  
     160A      3.409809   161A      3.416675   162A      3.429647  
     163A      3.447473   164A      3.463753   165A      3.486636  
     166A      3.511270   167A      3.530348   168A      3.538688  
     169A      3.546412   170A      3.576932   171A      3.586733  
     172A      3.619558   173A      3.626614   174A      3.662374  
     175A      3.663558   176A      3.697179   177A      3.750623  
     178A      3.776207   179A      3.793980   180A      3.813963  
     181A      3.832596   182A      3.848723   183A      3.864644  
     184A      3.877198   185A      3.935347   186A      3.951597  
     187A      3.979836   188A      3.995290   189A      4.001869  
     190A      4.034729   191A      4.071253   192A      4.108413  
     193A      4.124562   194A      4.132949   195A      4.152242  
     196A      4.167479   197A      4.169053   198A      4.185787  
     199A      4.207586   200A      4.217186   201A      4.237471  
     202A      4.262588   203A      4.305074   204A      4.326137  
     205A      4.347634   206A      4.358613   207A      4.377133  
     208A      4.406167   209A      4.430134   210A      4.459458  
     211A      4.462404   212A      4.482603   213A      4.508951  
     214A      4.550892   215A      4.576734   216A      4.594144  
     217A      4.617623   218A      4.637295   219A      4.640807  
     220A      4.650807   221A      4.663118   222A      4.689700  
     223A      4.715059   224A      4.747733   225A      4.811560  
     226A      4.833359   227A      4.874658   228A      4.917239  
     229A      4.967693   230A      5.006163   231A      5.055239  
     232A      5.112907   233A      5.133613   234A      5.165949  
     235A      5.208939   236A      5.232944   237A      5.243928  
     238A      5.266295   239A      5.313867   240A      5.339561  
     241A      5.374591   242A      5.420492   243A      5.443934  
     244A      5.465700   245A      5.549721   246A      5.584995  
     247A      5.595943   248A      5.624868   249A      5.647416  
     250A      5.694408   251A      5.714957   252A      5.745596  
     253A      5.756346   254A      5.767942   255A      5.804550  
     256A      5.863106   257A      5.881337   258A      5.889017  
     259A      5.923779   260A      5.931994   261A      6.013924  
     262A      6.043651   263A      6.091232   264A      6.256103  
     265A      6.301791   266A      6.316854   267A      6.334095  
     268A      6.419815   269A      6.502703   270A      6.679073  
     271A      6.776777   272A      6.811352   273A      6.875635  
     274A      6.964839   275A      7.032190   276A      7.055941  
     277A      7.098702   278A      7.209156   279A      7.282320  
     280A      7.343030   281A      7.395078   282A      7.494964  
     283A      7.606077   284A      7.732492   285A      7.859265  
     286A      8.042727   287A     10.139702   288A     13.183729  
     289A     13.388683   290A     13.586904   291A     14.231649  
     292A     14.392776  

    Final Occupation by Irrep:
              A 
    DOCC [    24 ]

  Energy converged.

  @DF-RHF Final Energy:  -305.99766088008300

   => Energetics <=

    Nuclear Repulsion Energy =            241.9817049111216249
    One-Electron Energy =                -896.7611729132881919
    Two-Electron Energy =                 348.7818071220835918
    DFT Exchange-Correlation Energy =       0.0000000000000000
    Empirical Dispersion Energy =           0.0000000000000000
    PCM Polarization Energy =               0.0000000000000000
    EFP Energy =                            0.0000000000000000
    Total Energy =                       -305.9976608800830036


  Saving occupied orbitals to File 180.

*** tstop() called on cx1-27-3-1 at Sat Sep 10 17:00:52 2016
Module time:
	user time   =      20.18 seconds =       0.34 minutes
	system time =       0.54 seconds =       0.01 minutes
	total time  =          6 seconds =       0.10 minutes
Total time:
	user time   =      20.18 seconds =       0.34 minutes
	system time =       0.54 seconds =       0.01 minutes
	total time  =          6 seconds =       0.10 minutes


Properties will be evaluated at   0.000000,   0.000000,   0.000000 Bohr

Properties computed using the SCF density matrix

  Nuclear Dipole Moment: (a.u.)
     X:    -9.9876      Y:    -0.6975      Z:    -0.2496

  Electronic Dipole Moment: (a.u.)
     X:     9.3178      Y:     1.1064      Z:    -0.0180

  Dipole Moment: (a.u.)
     X:    -0.6697      Y:     0.4088      Z:    -0.2676     Total:     0.8291

  Dipole Moment: (Debye)
     X:    -1.7023      Y:     1.0392      Z:    -0.6802     Total:     2.1072


*** tstart() called on cx1-27-3-1
*** at Sat Sep 10 17:00:52 2016


         ------------------------------------------------------------
                                   SCF GRAD                          
                          Rob Parrish, Justin Turney,                
                       Andy Simmonett, and Alex Sokolov              
         ------------------------------------------------------------

  ==> Geometry <==

    Molecular point group: c1
    Full point group: C1

    Geometry (in Angstrom), charge = 0, multiplicity = 1:

       Center              X                  Y                   Z               Mass       
    ------------   -----------------  -----------------  -----------------  -----------------
           H          1.958527248721     1.524958766365    -0.444298286718     1.007825032070
           O          1.079291248721     1.178249766365    -0.466067286718    15.994914619560
           C          1.101584248721    -0.057185233635     0.025688713282    12.000000000000
           C         -0.266940751279    -0.682574233635     0.025697713282    12.000000000000
           O          2.099113248721    -0.565161233635     0.406299713282    15.994914619560
           C         -1.403673751279     0.329567766365     0.024993713282    12.000000000000
           H         -0.320402751279    -1.335708233635    -0.839431286718     1.007825032070
           H         -0.320709751279    -1.334820233635     0.891482713282     1.007825032070
           C         -2.771366751279    -0.344248233635     0.025616713282    12.000000000000
           H         -1.308549751279     0.972641766365    -0.841523286718     1.007825032070
           H         -1.308430751279     0.973933766365     0.890536713282     1.007825032070
           H         -2.903141751279    -0.971047233635    -0.850191286718     1.007825032070
           H         -3.564675751279     0.393289766365     0.025572713282     1.007825032070
           H         -2.902667751279    -0.970421233635     0.901947713282     1.007825032070

  Nuclear repulsion =  241.981704911121625

  ==> Basis Set <==

  Basis Set: CC-PVTZ
    Number of shells: 108
    Number of basis function: 292
    Number of Cartesian functions: 330
    Spherical Harmonics?: true
    Max angular momentum: 3

  ==> DFJKGrad: Density-Fitted SCF Gradients <==

    Gradient:                    1
    J tasked:                  Yes
    K tasked:                  Yes
    wK tasked:                  No
    OpenMP threads:              4
    Integrals threads:           4
    Memory (MB):              1430
    Schwarz Cutoff:          0E+00
    Fitting Condition:       1E-12

   => Auxiliary Basis Set <=

  Basis Set: 
    Number of shells: 230
    Number of basis function: 714
    Number of Cartesian functions: 856
    Spherical Harmonics?: true
    Max angular momentum: 4


  -Total Gradient:
     Atom            X                  Y                   Z
    ------   -----------------  -----------------  -----------------
       1       -0.000347067404     0.000353580583     0.000280906491
       2       -0.006478371318    -0.000807806337     0.000704952763
       3        0.000351028100    -0.003535710065    -0.000042288193
       4       -0.000818124950     0.003658055102    -0.004956452348
       5        0.001443790765     0.001382739331     0.000385157883
       6        0.004764456020     0.001072538478     0.003458826194
       7       -0.000092880856    -0.001385198077     0.001696932138
       8       -0.001058715979    -0.001315567310     0.001309388613
       9        0.000181652420    -0.000216929403    -0.000993868913
      10        0.001557824925     0.001107804568    -0.000971407439
      11        0.000601663093    -0.000171124439    -0.001000249164
      12       -0.000305591556    -0.000143823986     0.000017260366
      13        0.000145165322    -0.000008311198    -0.000006784575
      14        0.000055171417     0.000009752752     0.000117626184


*** tstop() called on cx1-27-3-1 at Sat Sep 10 17:00:57 2016
Module time:
	user time   =      20.84 seconds =       0.35 minutes
	system time =       0.58 seconds =       0.01 minutes
	total time  =          5 seconds =       0.08 minutes
Total time:
	user time   =      41.08 seconds =       0.68 minutes
	system time =       1.13 seconds =       0.02 minutes
	total time  =         11 seconds =       0.18 minutes

			-----------------------------------------
			 OPTKING 2.0: for geometry optimizations 
			  - R.A. King,  Bethel University        
			-----------------------------------------

	Internal coordinates to be generated automatically.
	Detected frag 1 with atoms:  1 2 3 4 5 6 7 8 9 10 11 12 13 14
	---Fragment 1 Bond Connectivity---
	 1 : 2
	 2 : 1 3
	 3 : 2 4 5
	 4 : 3 6 7 8
	 5 : 3
	 6 : 4 9 10 11
	 7 : 4
	 8 : 4
	 9 : 6 12 13 14
	 10 : 6
	 11 : 6
	 12 : 9
	 13 : 9
	 14 : 9

	Assuming in current code that numbering for constraints corresponds to unified fragment.
	Frozen dihedral atom list: 
	     2     3     4     7
	---Fragment 1 Geometry and Gradient---
	 H           3.7010801239        2.8817544324       -0.8396020832
	 O           2.0395648777        2.2265693746       -0.8807395314
	 C           2.0816925424       -0.1080644304        0.0485446328
	 C          -0.5044449136       -1.2898783669        0.0485616403
	 O           3.9667491620       -1.0679999525        0.7677951860
	 C          -2.6525589698        0.6227928207        0.0472312731
	 H          -0.6054734521       -2.5241227550       -1.5862952393
	 H          -0.6060535981       -2.5224446782        1.6846581803
	 C          -5.2371241737       -0.6505348833        0.0484085725
	 H          -2.4728006612        1.8380265638       -1.5902485463
	 H          -2.4725757838        1.8404680900        1.6828704994
	 H          -5.4861428349       -1.8350133337       -1.6066286925
	 H          -6.7362609225        0.7432099493        0.0483254246
	 H          -5.4852471047       -1.8338303651        1.7044341643
	            -0.0003470674        0.0003535806        0.0002809065
	            -0.0064783713       -0.0008078063        0.0007049528
	             0.0003510281       -0.0035357101       -0.0000422882
	            -0.0008181249        0.0036580551       -0.0049564523
	             0.0014437908        0.0013827393        0.0003851579
	             0.0047644560        0.0010725385        0.0034588262
	            -0.0000928809       -0.0013851981        0.0016969321
	            -0.0010587160       -0.0013155673        0.0013093886
	             0.0001816524       -0.0002169294       -0.0009938689
	             0.0015578249        0.0011078046       -0.0009714074
	             0.0006016631       -0.0001711244       -0.0010002492
	            -0.0003055916       -0.0001438240        0.0000172604
	             0.0001451653       -0.0000083112       -0.0000067846
	             0.0000551714        0.0000097528        0.0001176262

	Previous optimization step data not found.  Starting new optimization.

	---Fragment 1 Intrafragment Coordinates---
	 - Coordinate -           - BOHR/RAD -       - ANG/DEG -
	 R(1,2)           =         1.786503	       0.945377
	 R(2,3)           =         2.513137	       1.329895
	 R(3,4)           =         2.843377	       1.504650
	 R(3,5)           =         2.234331	       1.182357
	 R(4,6)           =         2.876231	       1.522036
	 R(4,7)           =         2.050932	       1.085307
	 R(4,8)           =         2.050940	       1.085311
	 R(6,9)           =         2.881205	       1.524668
	 R(6,10)          =         2.047058	       1.083256
	 R(6,11)          =         2.047057	       1.083256
	 R(9,12)          =         2.050402	       1.085026
	 R(9,13)          =         2.046933	       1.083190
	 R(9,14)          =         2.050408	       1.085029
	 B(1,2,3)         =         1.892926	     108.456698
	 B(2,3,4)         =         1.950743	     111.769363
	 B(2,3,5)         =         2.132098	     122.160244
	 B(3,4,6)         =         1.985466	     113.758803
	 B(3,4,7)         =         1.870176	     107.153209
	 B(3,4,8)         =         1.870098	     107.148747
	 B(4,3,5)         =         2.200343	     126.070392
	 B(4,6,9)         =         1.956346	     112.090352
	 B(4,6,10)        =         1.906632	     109.241992
	 B(4,6,11)        =         1.906602	     109.240272
	 B(6,4,7)         =         1.942316	     111.286500
	 B(6,4,8)         =         1.942295	     111.285326
	 B(6,9,12)        =         1.943266	     111.340942
	 B(6,9,13)        =         1.934846	     110.858538
	 B(6,9,14)        =         1.943279	     111.341672
	 B(7,4,8)         =         1.846046	     105.770658
	 B(9,6,10)        =         1.919264	     109.965714
	 B(9,6,11)        =         1.919234	     109.964034
	 B(10,6,11)       =         1.852823	     106.158940
	 B(12,9,13)       =         1.880063	     107.719668
	 B(12,9,14)       =         1.879521	     107.688626
	 B(13,9,14)       =         1.880054	     107.719172
	 D(1,2,3,4)       =         3.141564	     179.998354
	 D(1,2,3,5)       =         0.000073	       0.004165
	 D(2,3,4,6)       =        -0.409006	     -23.434325
	*D(2,3,4,7)       =         1.745330	     100.000022
	 D(2,3,4,8)       =        -2.563259	    -146.863909
	 D(3,4,6,9)       =        -3.141174	    -179.976018
	 D(3,4,6,10)      =         1.010273	      57.884392
	 D(3,4,6,11)      =        -1.009494	     -57.839760
	 D(4,6,9,12)      =        -1.049330	     -60.122178
	 D(4,6,9,13)      =         3.141127	     179.973308
	 D(4,6,9,14)      =         1.048401	      60.068936
	 D(5,3,4,6)       =         2.732480	     156.559588
	 D(5,3,4,7)       =        -1.396369	     -80.006065
	 D(5,3,4,8)       =         0.578228	      33.130004
	 D(7,4,6,9)       =         1.027479	      58.870239
	 D(7,4,6,10)      =        -1.104258	     -63.269351
	 D(7,4,6,11)      =        -3.124026	    -178.993504
	 D(8,4,6,9)       =        -1.026760	     -58.828996
	 D(8,4,6,10)      =         3.124688	     179.031414
	 D(8,4,6,11)      =         1.104920	      63.307261
	 D(10,6,9,12)     =         1.075190	      61.603826
	 D(10,6,9,13)     =        -1.017539	     -58.300687
	 D(10,6,9,14)     =        -3.110265	    -178.205060
	 D(11,6,9,12)     =         3.109395	     178.155188
	 D(11,6,9,13)     =         1.016666	      58.250674
	 D(11,6,9,14)     =        -1.076060	     -61.653698

	Current energy   :      -305.9976608801

	Generating empirical Hessian (Schlegel '84) for each fragment.
	Taking RFO optimization step.
	Going to follow RFO solution 1.
	Using RFO vector 1.
	Norm of target step-size    0.21283
	Projected energy change by RFO approximation:        -0.0007126721

	Back-transformation to cartesian coordinates...
	Successfully converged to displaced geometry.

	Back-transformation to cartesian coordinates to adjust frozen coordinates...
	Successfully converged to displaced geometry.

	--- Internal Coordinate Step in ANG or DEG, aJ/ANG or AJ/DEG ---
	 ---------------------------------------------------------------------------
	   Coordinate                Previous        Force       Change         New 
	   ----------                --------       ------       ------       ------
	    1 R(1,2)          =      0.945377     0.001538     0.000167     0.945544
	    2 R(2,3)          =      1.329895     0.005537     0.000595     1.330490
	    3 R(3,4)          =      1.504650     0.046624     0.009308     1.513958
	    4 R(3,5)          =      1.182357    -0.006163    -0.000346     1.182011
	    5 R(4,6)          =      1.522036     0.034037     0.007179     1.529215
	    6 R(4,7)          =      1.085307     0.004239     0.000764     1.086070
	    7 R(4,8)          =      1.085311    -0.015552    -0.002803     1.082508
	    8 R(6,9)          =      1.524668    -0.000741    -0.000158     1.524510
	    9 R(6,10)         =      1.083256    -0.012947    -0.002317     1.080939
	   10 R(6,11)         =      1.083256     0.006987     0.001251     1.084507
	   11 R(9,12)         =      1.085026    -0.000875    -0.000158     1.084868
	   12 R(9,13)         =      1.083190     0.000923     0.000165     1.083356
	   13 R(9,14)         =      1.085029    -0.000681    -0.000123     1.084907
	   14 B(1,2,3)        =    108.456698    -0.000041    -0.276572   108.180126
	   15 B(2,3,4)        =    111.769363     0.000973     2.928636   114.697999
	   16 B(2,3,5)        =    122.160244    -0.000334    -0.999285   121.160959
	   17 B(3,4,6)        =    113.758803     0.001043     3.859396   117.618199
	   18 B(3,4,7)        =    107.153209    -0.000351    -1.012572   106.140638
	   19 B(3,4,8)        =    107.148747    -0.000409    -1.579197   105.569550
	   20 B(4,3,5)        =    126.070392    -0.000639    -2.026785   124.043608
	   21 B(4,6,9)        =    112.090352    -0.000027    -0.149803   111.940549
	   22 B(4,6,10)       =    109.241992     0.000075     0.719447   109.961439
	   23 B(4,6,11)       =    109.240272     0.000022     0.005205   109.245477
	   24 B(6,4,7)        =    111.286500    -0.000289    -0.570724   110.715777
	   25 B(6,4,8)        =    111.285326    -0.000232    -0.611053   110.674273
	   26 B(6,9,12)       =    111.340942    -0.000040    -0.204620   111.136322
	   27 B(6,9,13)       =    110.858538     0.000015     0.092710   110.951248
	   28 B(6,9,14)       =    111.341672     0.000015     0.075037   111.416708
	   29 B(7,4,8)        =    105.770658     0.000173    -0.483717   105.286941
	   30 B(9,6,10)       =    109.965714    -0.000043    -0.262002   109.703711
	   31 B(9,6,11)       =    109.964034    -0.000040    -0.591611   109.372423
	   32 B(10,6,11)      =    106.158940     0.000017     0.303680   106.462620
	   33 B(12,9,13)      =    107.719668     0.000009     0.012580   107.732248
	   34 B(12,9,14)      =    107.688626     0.000009    -0.000063   107.688563
	   35 B(13,9,14)      =    107.719172    -0.000008     0.026748   107.745920
	   36 D(1,2,3,4)      =    179.998354     0.000017     2.991635   182.989989
	   37 D(1,2,3,5)      =      0.004165    -0.000004    -0.463356    -0.459191
	   38 D(2,3,4,6)      =    -23.434325    -0.000014    -1.108121   -24.542446
	   39 *D(2,3,4,7)     =    100.000022    -0.000000     0.000000   100.000022
	   40 D(2,3,4,8)      =   -146.863909    -0.000036    -1.693723  -148.557633
	   41 D(3,4,6,9)      =   -179.976018     0.000009     3.421735  -176.554283
	   42 D(3,4,6,10)     =     57.884392     0.000014     3.351401    61.235794
	   43 D(3,4,6,11)     =    -57.839760    -0.000003     2.578232   -55.261528
	   44 D(4,6,9,12)     =    -60.122178    -0.000005    -0.517677   -60.639855
	   45 D(4,6,9,13)     =    179.973308    -0.000004    -0.459625   179.513683
	   46 D(4,6,9,14)     =     60.068936    -0.000007    -0.605793    59.463143
	   47 D(5,3,4,6)      =    156.559588     0.000008     2.460117   159.019705
	   48 D(5,3,4,7)      =    -80.006065     0.000022     3.568238   -76.437827
	   49 D(5,3,4,8)      =     33.130004    -0.000014     1.874515    35.004519
	   50 D(7,4,6,9)      =     58.870239    -0.000008     2.347156    61.217395
	   51 D(7,4,6,10)     =    -63.269351    -0.000004     2.276822   -60.992529
	   52 D(7,4,6,11)     =   -178.993504    -0.000020     1.503654  -177.489850
	   53 D(8,4,6,9)      =    -58.828996     0.000019     3.687743   -55.141253
	   54 D(8,4,6,10)     =    179.031414     0.000024     3.617409   182.648823
	   55 D(8,4,6,11)     =     63.307261     0.000007     2.844240    66.151502
	   56 D(10,6,9,12)    =     61.603826     0.000006     0.113374    61.717201
	   57 D(10,6,9,13)    =    -58.300687     0.000007     0.171426   -58.129261
	   58 D(10,6,9,14)    =   -178.205060     0.000004     0.025258  -178.179802
	   59 D(11,6,9,12)    =    178.155188    -0.000001    -0.014518   178.140670
	   60 D(11,6,9,13)    =     58.250674     0.000000     0.043534    58.294208
	   61 D(11,6,9,14)    =    -61.653698    -0.000002    -0.102634   -61.756332
	 ---------------------------------------------------------------------------
	Successfully symmetrized geometry.

  ==> Convergence Check <==

  Measures of convergence in internal coordinates in au.
  Criteria marked as inactive (o), active & met (*), and active & unmet ( ).
  --------------------------------------------------------------------------------------------- ~
   Step     Total Energy     Delta E     MAX Force     RMS Force      MAX Disp      RMS Disp    ~
  --------------------------------------------------------------------------------------------- ~
    Convergence Criteria    1.00e-06 *    3.00e-04 *             o    1.20e-03 *             o  ~
  --------------------------------------------------------------------------------------------- ~
      1    -305.99766088   -3.06e+02      1.37e-02      3.12e-03 o    6.74e-02      2.74e-02 o  ~
  ---------------------------------------------------------------------------------------------

	Writing optimization data to binary file.
	Structure for next step:
	Cartesian Geometry (in Angstrom)
	    H     2.2277895778   1.2729701975  -0.2989162122
	    O     1.3038489848   1.0789764434  -0.3513909882
	    C     1.1150347760  -0.1633540566   0.0858351105
	    C    -0.3144503076  -0.6542926181  -0.0014587301
	    O     2.0223725585  -0.8289889865   0.4475246414
	    C    -1.4258748576   0.3960560277  -0.0031945062
	    H    -0.3677648982  -1.2715114583  -0.8935055700
	    H    -0.4374636306  -1.3395163745   0.8274924221
	    C    -2.8111373040  -0.2404447359  -0.0100432235
	    H    -1.3188156930   1.0451826582  -0.8608668929
	    H    -1.3237592311   1.0260047979   0.8736701626
	    H    -2.9560716278  -0.8524601380  -0.8939948265
	    H    -3.5855665691   0.5170928024  -0.0026035199
	    H    -2.9601852959  -0.8742388304   0.8577771189
			--------------------------
			 OPTKING Finished Execution 
			--------------------------

    Structure for next step:
    Molecular point group: c1
    Full point group: C1

    Geometry (in Angstrom), charge = 0, multiplicity = 1:

    H            2.214618320753     1.323236855459    -0.321599367000
    O            1.290677727725     1.129243101338    -0.374074143040
    C            1.101863518913    -0.113087398641     0.063151955690
    C           -0.327621564640    -0.604025960139    -0.024141884933
    O            2.009201301451    -0.778722328543     0.424841486578
    C           -1.439046114650     0.446322685590    -0.025877661026
    H           -0.380936155227    -1.221244800338    -0.916188724827
    H           -0.450634887675    -1.289249716607     0.804809267256
    C           -2.824308561035    -0.190178078021    -0.032726378265
    H           -1.331986950036     1.095449316116    -0.883550047663
    H           -1.336930488105     1.076271455800     0.850987007786
    H           -2.969242884880    -0.802193480053    -0.916677981345
    H           -3.598737826126     0.567359460358    -0.025286674679
    H           -2.973356552988    -0.823972172448     0.835093964131

gradient() will perform analytic gradient computation.

*** tstart() called on cx1-27-3-1
*** at Sat Sep 10 17:00:58 2016


         ---------------------------------------------------------
                                   SCF
            by Justin Turney, Rob Parrish, and Andy Simmonett
                              RHF Reference
                        4 Threads,   2000 MiB Core
         ---------------------------------------------------------

  ==> Geometry <==

    Molecular point group: c1
    Full point group: C1

    Geometry (in Angstrom), charge = 0, multiplicity = 1:

       Center              X                  Y                   Z               Mass       
    ------------   -----------------  -----------------  -----------------  -----------------
           H          2.214618320753     1.323236855459    -0.321599367000     1.007825032070
           O          1.290677727725     1.129243101338    -0.374074143040    15.994914619560
           C          1.101863518913    -0.113087398641     0.063151955690    12.000000000000
           C         -0.327621564640    -0.604025960139    -0.024141884933    12.000000000000
           O          2.009201301451    -0.778722328543     0.424841486578    15.994914619560
           C         -1.439046114650     0.446322685590    -0.025877661026    12.000000000000
           H         -0.380936155227    -1.221244800338    -0.916188724827     1.007825032070
           H         -0.450634887675    -1.289249716607     0.804809267256     1.007825032070
           C         -2.824308561035    -0.190178078021    -0.032726378265    12.000000000000
           H         -1.331986950036     1.095449316116    -0.883550047663     1.007825032070
           H         -1.336930488105     1.076271455800     0.850987007786     1.007825032070
           H         -2.969242884880    -0.802193480053    -0.916677981345     1.007825032070
           H         -3.598737826126     0.567359460358    -0.025286674679     1.007825032070
           H         -2.973356552988    -0.823972172448     0.835093964131     1.007825032070

  Running in c1 symmetry.

  Rotational constants: A =      0.30082  B =      0.06165  C =      0.05303 [cm^-1]
  Rotational constants: A =   9018.34897  B =   1848.20116  C =   1589.91766 [MHz]
  Nuclear repulsion =  240.130855906093672

  Charge       = 0
  Multiplicity = 1
  Electrons    = 48
  Nalpha       = 24
  Nbeta        = 24

  ==> Algorithm <==

  SCF Algorithm Type is DF.
  DIIS enabled.
  MOM disabled.
  Fractional occupation disabled.
  Guess Type is READ.
  Energy threshold   = 1.00e-08
  Density threshold  = 1.00e-08
  Integral threshold = 0.00e+00

  ==> Primary Basis <==

  Basis Set: CC-PVTZ
    Number of shells: 108
    Number of basis function: 292
    Number of Cartesian functions: 330
    Spherical Harmonics?: true
    Max angular momentum: 3

  ==> Pre-Iterations <==

   -------------------------------------------------------
    Irrep   Nso     Nmo     Nalpha   Nbeta   Ndocc  Nsocc
   -------------------------------------------------------
     A        292     292       0       0       0       0
   -------------------------------------------------------
    Total     292     292      24      24      24       0
   -------------------------------------------------------

  ==> Integral Setup <==

  ==> DFJK: Density-Fitted J/K Matrices <==

    J tasked:                  Yes
    K tasked:                  Yes
    wK tasked:                  No
    OpenMP threads:              4
    Integrals threads:           4
    Memory (MB):              1430
    Algorithm:                Core
    Integral Cache:           NONE
    Schwarz Cutoff:          1E-12
    Fitting Condition:       1E-12

   => Auxiliary Basis Set <=

  Basis Set: 
    Number of shells: 230
    Number of basis function: 714
    Number of Cartesian functions: 856
    Spherical Harmonics?: true
    Max angular momentum: 4

  Minimum eigenvalue in the overlap matrix is 3.8445262896E-04.
  Using Symmetric Orthogonalization.
  SCF Guess: Reading in previously saved MOs, projecting if necessary.

  Using orbitals from previous SCF, no projection.
  Recomputing DOCC and SOCC from number of alpha and beta electrons from previous calculation.
              A 
    DOCC [    24 ]

  ==> Iterations <==

                           Total Energy        Delta E     RMS |[F,P]|

   @DF-RHF iter   0:  -305.91921335493430   -3.05919e+02   1.44940e-03 
   @DF-RHF iter   1:  -305.99535409760028   -7.61407e-02   2.29600e-04 
   @DF-RHF iter   2:  -305.99791897663977   -2.56488e-03   8.79193e-05 DIIS
   @DF-RHF iter   3:  -305.99821981889920   -3.00842e-04   2.83121e-05 DIIS
   @DF-RHF iter   4:  -305.99826967108743   -4.98522e-05   5.95845e-06 DIIS
   @DF-RHF iter   5:  -305.99827214666504   -2.47558e-06   2.97425e-06 DIIS
   @DF-RHF iter   6:  -305.99827286610378   -7.19439e-07   9.25222e-07 DIIS
   @DF-RHF iter   7:  -305.99827294083968   -7.47359e-08   3.80348e-07 DIIS
   @DF-RHF iter   8:  -305.99827295081855   -9.97886e-09   1.10063e-07 DIIS
   @DF-RHF iter   9:  -305.99827295197372   -1.15517e-09   3.99666e-08 DIIS
   @DF-RHF iter  10:  -305.99827295212253   -1.48816e-10   1.24327e-08 DIIS
   @DF-RHF iter  11:  -305.99827295213947   -1.69393e-11   3.15215e-09 DIIS

  ==> Post-Iterations <==

    Orbital Energies (a.u.)
    -----------------------

    Doubly Occupied:                                                      

       1A    -20.605403     2A    -20.537415     3A    -11.374937  
       4A    -11.241622     5A    -11.229911     6A    -11.218645  
       7A     -1.478287     8A     -1.367323     9A     -1.085567  
      10A     -0.979280    11A     -0.848827    12A     -0.820068  
      13A     -0.702844    14A     -0.683467    15A     -0.665133  
      16A     -0.621177    17A     -0.593754    18A     -0.566029  
      19A     -0.550527    20A     -0.526669    21A     -0.498184  
      22A     -0.492907    23A     -0.472732    24A     -0.440690  

    Virtual:                                                              

      25A      0.131868    26A      0.157462    27A      0.170962  
      28A      0.177983    29A      0.187106    30A      0.199554  
      31A      0.227287    32A      0.240519    33A      0.257986  
      34A      0.294780    35A      0.348211    36A      0.360589  
      37A      0.363152    38A      0.392372    39A      0.399086  
      40A      0.413280    41A      0.440695    42A      0.462286  
      43A      0.478063    44A      0.505073    45A      0.527254  
      46A      0.562364    47A      0.573105    48A      0.585114  
      49A      0.597599    50A      0.615474    51A      0.631933  
      52A      0.634366    53A      0.644889    54A      0.660640  
      55A      0.670499    56A      0.677617    57A      0.699820  
      58A      0.719973    59A      0.739923    60A      0.759472  
      61A      0.802361    62A      0.807131    63A      0.824341  
      64A      0.826862    65A      0.850884    66A      0.856105  
      67A      0.897088    68A      0.928639    69A      0.929593  
      70A      0.941911    71A      0.961216    72A      1.003847  
      73A      1.031657    74A      1.059257    75A      1.084407  
      76A      1.095297    77A      1.138773    78A      1.171202  
      79A      1.191675    80A      1.210276    81A      1.232685  
      82A      1.254613    83A      1.271469    84A      1.280089  
      85A      1.286168    86A      1.311717    87A      1.332224  
      88A      1.346040    89A      1.370683    90A      1.395317  
      91A      1.404680    92A      1.415167    93A      1.423456  
      94A      1.471334    95A      1.481988    96A      1.492797  
      97A      1.501789    98A      1.536085    99A      1.540723  
     100A      1.563338   101A      1.587911   102A      1.600509  
     103A      1.614503   104A      1.633704   105A      1.656175  
     106A      1.706665   107A      1.734902   108A      1.756245  
     109A      1.777770   110A      1.806601   111A      1.824987  
     112A      1.871594   113A      1.895331   114A      1.949878  
     115A      1.981009   116A      2.041958   117A      2.051917  
     118A      2.239077   119A      2.278639   120A      2.352984  
     121A      2.363508   122A      2.409004   123A      2.449884  
     124A      2.502851   125A      2.548573   126A      2.555088  
     127A      2.603994   128A      2.630229   129A      2.679432  
     130A      2.714305   131A      2.722510   132A      2.762747  
     133A      2.786131   134A      2.808225   135A      2.829645  
     136A      2.833317   137A      2.891468   138A      2.909549  
     139A      2.911444   140A      2.960363   141A      2.993241  
     142A      3.004010   143A      3.020696   144A      3.086915  
     145A      3.109821   146A      3.115180   147A      3.144120  
     148A      3.173490   149A      3.199182   150A      3.215178  
     151A      3.231678   152A      3.257276   153A      3.292855  
     154A      3.311852   155A      3.342153   156A      3.348465  
     157A      3.360407   158A      3.385870   159A      3.401616  
     160A      3.410973   161A      3.415443   162A      3.423714  
     163A      3.433971   164A      3.454243   165A      3.476015  
     166A      3.507493   167A      3.528851   168A      3.531749  
     169A      3.540787   170A      3.574970   171A      3.592008  
     172A      3.615228   173A      3.636230   174A      3.659739  
     175A      3.668017   176A      3.696804   177A      3.751840  
     178A      3.772723   179A      3.792151   180A      3.806557  
     181A      3.823654   182A      3.844832   183A      3.857576  
     184A      3.869898   185A      3.921103   186A      3.946406  
     187A      3.978013   188A      3.980553   189A      3.997999  
     190A      4.022221   191A      4.057495   192A      4.091780  
     193A      4.124959   194A      4.133547   195A      4.149579  
     196A      4.164843   197A      4.165480   198A      4.185388  
     199A      4.203569   200A      4.212405   201A      4.232084  
     202A      4.252597   203A      4.292295   204A      4.322631  
     205A      4.335787   206A      4.360514   207A      4.375384  
     208A      4.410608   209A      4.431594   210A      4.453016  
     211A      4.466069   212A      4.483431   213A      4.511059  
     214A      4.546362   215A      4.569889   216A      4.593686  
     217A      4.610281   218A      4.626430   219A      4.641849  
     220A      4.646847   221A      4.651086   222A      4.682187  
     223A      4.701029   224A      4.755536   225A      4.793621  
     226A      4.814859   227A      4.850280   228A      4.918517  
     229A      4.971376   230A      4.995336   231A      5.041081  
     232A      5.107210   233A      5.131533   234A      5.157218  
     235A      5.204920   236A      5.228394   237A      5.242418  
     238A      5.253527   239A      5.308429   240A      5.336915  
     241A      5.362722   242A      5.414435   243A      5.438660  
     244A      5.457005   245A      5.549693   246A      5.583000  
     247A      5.591555   248A      5.625883   249A      5.654440  
     250A      5.695712   251A      5.713614   252A      5.743457  
     253A      5.758010   254A      5.762727   255A      5.814807  
     256A      5.852389   257A      5.879198   258A      5.882677  
     259A      5.920547   260A      5.923716   261A      6.005818  
     262A      6.056409   263A      6.105074   264A      6.267804  
     265A      6.298735   266A      6.315643   267A      6.330106  
     268A      6.414355   269A      6.495874   270A      6.671575  
     271A      6.756267   272A      6.800959   273A      6.874293  
     274A      6.962113   275A      7.011897   276A      7.040424  
     277A      7.098825   278A      7.206218   279A      7.282328  
     280A      7.335288   281A      7.393864   282A      7.499884  
     283A      7.603901   284A      7.730780   285A      7.850353  
     286A      8.018507   287A     10.067381   288A     13.175781  
     289A     13.354575   290A     13.531259   291A     14.207170  
     292A     14.349494  

    Final Occupation by Irrep:
              A 
    DOCC [    24 ]

  Energy converged.

  @DF-RHF Final Energy:  -305.99827295213947

   => Energetics <=

    Nuclear Repulsion Energy =            240.1308559060936716
    One-Electron Energy =                -893.0554565689453739
    Two-Electron Energy =                 346.9263277107125418
    DFT Exchange-Correlation Energy =       0.0000000000000000
    Empirical Dispersion Energy =           0.0000000000000000
    PCM Polarization Energy =               0.0000000000000000
    EFP Energy =                            0.0000000000000000
    Total Energy =                       -305.9982729521391889


  Saving occupied orbitals to File 180.

*** tstop() called on cx1-27-3-1 at Sat Sep 10 17:01:04 2016
Module time:
	user time   =      19.20 seconds =       0.32 minutes
	system time =       0.42 seconds =       0.01 minutes
	total time  =          6 seconds =       0.10 minutes
Total time:
	user time   =      61.81 seconds =       1.03 minutes
	system time =       1.62 seconds =       0.03 minutes
	total time  =         18 seconds =       0.30 minutes


Properties will be evaluated at   0.000000,   0.000000,   0.000000 Bohr

Properties computed using the SCF density matrix

  Nuclear Dipole Moment: (a.u.)
     X:   -10.1343      Y:    -0.0680      Z:    -0.5364

  Electronic Dipole Moment: (a.u.)
     X:     9.5039      Y:     0.5286      Z:     0.2823

  Dipole Moment: (a.u.)
     X:    -0.6304      Y:     0.4606      Z:    -0.2541     Total:     0.8211

  Dipole Moment: (Debye)
     X:    -1.6023      Y:     1.1708      Z:    -0.6459     Total:     2.0869


*** tstart() called on cx1-27-3-1
*** at Sat Sep 10 17:01:04 2016


         ------------------------------------------------------------
                                   SCF GRAD                          
                          Rob Parrish, Justin Turney,                
                       Andy Simmonett, and Alex Sokolov              
         ------------------------------------------------------------

  ==> Geometry <==

    Molecular point group: c1
    Full point group: C1

    Geometry (in Angstrom), charge = 0, multiplicity = 1:

       Center              X                  Y                   Z               Mass       
    ------------   -----------------  -----------------  -----------------  -----------------
           H          2.214618320753     1.323236855459    -0.321599367000     1.007825032070
           O          1.290677727725     1.129243101338    -0.374074143040    15.994914619560
           C          1.101863518913    -0.113087398641     0.063151955690    12.000000000000
           C         -0.327621564640    -0.604025960139    -0.024141884933    12.000000000000
           O          2.009201301451    -0.778722328543     0.424841486578    15.994914619560
           C         -1.439046114650     0.446322685590    -0.025877661026    12.000000000000
           H         -0.380936155227    -1.221244800338    -0.916188724827     1.007825032070
           H         -0.450634887675    -1.289249716607     0.804809267256     1.007825032070
           C         -2.824308561035    -0.190178078021    -0.032726378265    12.000000000000
           H         -1.331986950036     1.095449316116    -0.883550047663     1.007825032070
           H         -1.336930488105     1.076271455800     0.850987007786     1.007825032070
           H         -2.969242884880    -0.802193480053    -0.916677981345     1.007825032070
           H         -3.598737826126     0.567359460358    -0.025286674679     1.007825032070
           H         -2.973356552988    -0.823972172448     0.835093964131     1.007825032070

  Nuclear repulsion =  240.130855906093672

  ==> Basis Set <==

  Basis Set: CC-PVTZ
    Number of shells: 108
    Number of basis function: 292
    Number of Cartesian functions: 330
    Spherical Harmonics?: true
    Max angular momentum: 3

  ==> DFJKGrad: Density-Fitted SCF Gradients <==

    Gradient:                    1
    J tasked:                  Yes
    K tasked:                  Yes
    wK tasked:                  No
    OpenMP threads:              4
    Integrals threads:           4
    Memory (MB):              1430
    Schwarz Cutoff:          0E+00
    Fitting Condition:       1E-12

   => Auxiliary Basis Set <=

  Basis Set: 
    Number of shells: 230
    Number of basis function: 714
    Number of Cartesian functions: 856
    Spherical Harmonics?: true
    Max angular momentum: 4


  -Total Gradient:
     Atom            X                  Y                   Z
    ------   -----------------  -----------------  -----------------
       1        0.000158374457     0.000444594479    -0.000350625535
       2        0.005012955723     0.000483349877    -0.000992239291
       3       -0.000725526277    -0.002017403998     0.008144140666
       4        0.000010439249     0.000380793667    -0.004125312816
       5        0.000451445647     0.002731676051    -0.003843026140
       6       -0.002734077146     0.000149265019    -0.001271941993
       7       -0.000847246855    -0.001778256946     0.001352843324
       8       -0.000043673932    -0.000216254463    -0.000411382145
       9       -0.000073236084     0.001026797037     0.000391490470
      10       -0.000692086666    -0.000693048779     0.000984271995
      11       -0.000191233871    -0.000345584275    -0.000032563440
      12        0.000168751449     0.000105470576     0.000027772205
      13       -0.000309637509    -0.000109782602     0.000054395452
      14       -0.000185248186    -0.000161615643     0.000072177249


*** tstop() called on cx1-27-3-1 at Sat Sep 10 17:01:09 2016
Module time:
	user time   =      20.80 seconds =       0.35 minutes
	system time =       0.45 seconds =       0.01 minutes
	total time  =          5 seconds =       0.08 minutes
Total time:
	user time   =      82.68 seconds =       1.38 minutes
	system time =       2.07 seconds =       0.03 minutes
	total time  =         23 seconds =       0.38 minutes

			-----------------------------------------
			 OPTKING 2.0: for geometry optimizations 
			  - R.A. King,  Bethel University        
			-----------------------------------------

	Previous internal coordinate definitions found.
	---Fragment 1 Geometry and Gradient---
	 H           4.1850221151        2.5005552658       -0.6077347281
	 O           2.4390274312        2.1339601990       -0.7068976837
	 C           2.0822202866       -0.2137042125        0.1193399010
	 C          -0.6191150324       -1.1414436418       -0.0456215509
	 O           3.7968402056       -1.4715719345        0.8028340595
	 C          -2.7194030493        0.8434276427       -0.0489016923
	 H          -0.7198650075       -2.3078182138       -1.7313457760
	 H          -0.8515765236       -2.4363288813        1.5208691043
	 C          -5.3371696951       -0.3593844839       -0.0618438922
	 H          -2.5170905481        2.0700991999       -1.6696676148
	 H          -2.5264324812        2.0338582961        1.6081323874
	 H          -5.6110558744       -1.5159259829       -1.7322703368
	 H          -6.8006289154        1.0721539990       -0.0477848900
	 H          -5.6188295806       -1.5570817470        1.5780988874
	             0.0001583745        0.0004445945       -0.0003506255
	             0.0050129557        0.0004833499       -0.0009922393
	            -0.0007255263       -0.0020174040        0.0081441407
	             0.0000104392        0.0003807937       -0.0041253128
	             0.0004514456        0.0027316761       -0.0038430261
	            -0.0027340771        0.0001492650       -0.0012719420
	            -0.0008472469       -0.0017782569        0.0013528433
	            -0.0000436739       -0.0002162545       -0.0004113821
	            -0.0000732361        0.0010267970        0.0003914905
	            -0.0006920867       -0.0006930488        0.0009842720
	            -0.0001912339       -0.0003455843       -0.0000325634
	             0.0001687514        0.0001054706        0.0000277722
	            -0.0003096375       -0.0001097826        0.0000543955
	            -0.0001852482       -0.0001616156        0.0000721772

	---Fragment 1 Intrafragment Coordinates---
	 - Coordinate -           - BOHR/RAD -       - ANG/DEG -
	 R(1,2)           =         1.786819	       0.945544
	 R(2,3)           =         2.514261	       1.330490
	 R(3,4)           =         2.860966	       1.513958
	 R(3,5)           =         2.233678	       1.182011
	 R(4,6)           =         2.889798	       1.529215
	 R(4,7)           =         2.052376	       1.086070
	 R(4,8)           =         2.045644	       1.082508
	 R(6,9)           =         2.880907	       1.524510
	 R(6,10)          =         2.042679	       1.080939
	 R(6,11)          =         2.049421	       1.084507
	 R(9,12)          =         2.050104	       1.084868
	 R(9,13)          =         2.047245	       1.083356
	 R(9,14)          =         2.050176	       1.084907
	 B(1,2,3)         =         1.888099	     108.180126
	 B(2,3,4)         =         2.001858	     114.697999
	 B(2,3,5)         =         2.114658	     121.160959
	 B(3,4,6)         =         2.052825	     117.618199
	 B(3,4,7)         =         1.852504	     106.140638
	 B(3,4,8)         =         1.842536	     105.569550
	 B(4,3,5)         =         2.164969	     124.043608
	 B(4,6,9)         =         1.953731	     111.940549
	 B(4,6,10)        =         1.919189	     109.961439
	 B(4,6,11)        =         1.906693	     109.245477
	 B(6,4,7)         =         1.932355	     110.715777
	 B(6,4,8)         =         1.931630	     110.674273
	 B(6,9,12)        =         1.939695	     111.136322
	 B(6,9,13)        =         1.936465	     110.951248
	 B(6,9,14)        =         1.944588	     111.416708
	 B(7,4,8)         =         1.837604	     105.286941
	 B(9,6,10)        =         1.914691	     109.703711
	 B(9,6,11)        =         1.908909	     109.372423
	 B(10,6,11)       =         1.858123	     106.462620
	 B(12,9,13)       =         1.880282	     107.732248
	 B(12,9,14)       =         1.879520	     107.688563
	 B(13,9,14)       =         1.880521	     107.745920
	 D(1,2,3,4)       =        -3.089408	    -177.010011
	 D(1,2,3,5)       =        -0.008014	      -0.459191
	 D(2,3,4,6)       =        -0.428346	     -24.542446
	*D(2,3,4,7)       =         1.745330	     100.000022
	 D(2,3,4,8)       =        -2.592820	    -148.557633
	 D(3,4,6,9)       =        -3.081454	    -176.554283
	 D(3,4,6,10)      =         1.068766	      61.235794
	 D(3,4,6,11)      =        -0.964496	     -55.261528
	 D(4,6,9,12)      =        -1.058365	     -60.639855
	 D(4,6,9,13)      =         3.133105	     179.513683
	 D(4,6,9,14)      =         1.037828	      59.463143
	 D(5,3,4,6)       =         2.775417	     159.019705
	 D(5,3,4,7)       =        -1.334092	     -76.437827
	 D(5,3,4,8)       =         0.610944	      35.004519
	 D(7,4,6,9)       =         1.068445	      61.217395
	 D(7,4,6,10)      =        -1.064520	     -60.992529
	 D(7,4,6,11)      =        -3.097782	    -177.489850
	 D(8,4,6,9)       =        -0.962396	     -55.141253
	 D(8,4,6,10)      =        -3.095362	    -177.351177
	 D(8,4,6,11)      =         1.154562	      66.151502
	 D(10,6,9,12)     =         1.077168	      61.717201
	 D(10,6,9,13)     =        -1.014547	     -58.129261
	 D(10,6,9,14)     =        -3.109824	    -178.179802
	 D(11,6,9,12)     =         3.109141	     178.140670
	 D(11,6,9,13)     =         1.017426	      58.294208
	 D(11,6,9,14)     =        -1.077851	     -61.756332

	Current energy   :      -305.9982729521

	Energy change for the previous step:
		Projected    :        -0.0007126721
		Actual       :        -0.0006120721
	Energy ratio indicates good step: Trust radius increased to 1.000e+00.


	Performing BFGS update.
	Previous computed or guess Hessian on step 1.
	Steps to be used in Hessian update: 1
	Taking RFO optimization step.
	Going to follow RFO solution 1.
	Using RFO vector 1.
	Norm of target step-size    0.25964
	Projected energy change by RFO approximation:         0.0014186732

	Back-transformation to cartesian coordinates...
	Could not converge backtransformation.
	Using first guess instead.

	Back-transformation to cartesian coordinates to adjust frozen coordinates...
	Successfully converged to displaced geometry.

	--- Internal Coordinate Step in ANG or DEG, aJ/ANG or AJ/DEG ---
	 ---------------------------------------------------------------------------
	   Coordinate                Previous        Force       Change         New 
	   ----------                --------       ------       ------       ------
	    1 R(1,2)          =      0.945544    -0.001866     0.001019     0.946563
	    2 R(2,3)          =      1.330490    -0.016820    -0.001005     1.329485
	    3 R(3,4)          =      1.513958    -0.043888    -0.003623     1.510335
	    4 R(3,5)          =      1.182011     0.019507     0.005870     1.187881
	    5 R(4,6)          =      1.529215    -0.023889    -0.001711     1.527505
	    6 R(4,7)          =      1.086070     0.000486     0.000446     1.086517
	    7 R(4,8)          =      1.082508     0.001427    -0.000447     1.082061
	    8 R(6,9)          =      1.524510    -0.000008    -0.000013     1.524497
	    9 R(6,10)         =      1.080939     0.010428     0.000748     1.081687
	   10 R(6,11)         =      1.084507     0.002019     0.000582     1.085088
	   11 R(9,12)         =      1.084868     0.000862     0.000091     1.084959
	   12 R(9,13)         =      1.083356    -0.001194    -0.000102     1.083254
	   13 R(9,14)         =      1.084907    -0.001463    -0.000195     1.084711
	   14 B(1,2,3)        =    108.180126    -0.000069    -0.250486   107.929640
	   15 B(2,3,4)        =    114.697999    -0.000383     0.027688   114.725686
	   16 B(2,3,5)        =    121.160959     0.000447     0.596190   121.757149
	   17 B(3,4,6)        =    117.618199    -0.000310    -0.035961   117.582238
	   18 B(3,4,7)        =    106.140638     0.000035    -0.777867   105.362771
	   19 B(3,4,8)        =    105.569550     0.000135     0.231572   105.801122
	   20 B(4,3,5)        =    124.043608    -0.000055    -0.699743   123.343865
	   21 B(4,6,9)        =    111.940549    -0.000092    -0.265591   111.674957
	   22 B(4,6,10)       =    109.961439    -0.000007    -0.042793   109.918646
	   23 B(4,6,11)       =    109.245477     0.000033     0.151153   109.396630
	   24 B(6,4,7)        =    110.715777     0.000061    -0.448860   110.266917
	   25 B(6,4,8)        =    110.674273     0.000086     0.353886   111.028159
	   26 B(6,9,12)       =    111.136322     0.000028     0.055038   111.191360
	   27 B(6,9,13)       =    110.951248    -0.000033    -0.099465   110.851783
	   28 B(6,9,14)       =    111.416708    -0.000018    -0.039557   111.377151
	   29 B(7,4,8)        =    105.286941     0.000026     0.757573   106.044514
	   30 B(9,6,10)       =    109.703711     0.000047     0.019003   109.722714
	   31 B(9,6,11)       =    109.372423     0.000043     0.098801   109.471224
	   32 B(10,6,11)      =    106.462620    -0.000021     0.057173   106.519793
	   33 B(12,9,13)      =    107.732248     0.000003     0.020796   107.753044
	   34 B(12,9,14)      =    107.688563    -0.000000     0.029755   107.718319
	   35 B(13,9,14)      =    107.745920     0.000021     0.038396   107.784316
	   36 D(1,2,3,4)      =   -177.010011    -0.000020    -4.092570  -181.102581
	   37 D(1,2,3,5)      =     -0.459191     0.000015     3.990212     3.531021
	   38 D(2,3,4,6)      =    -24.542446     0.000025     1.256464   -23.285982
	   39 *D(2,3,4,7)     =    100.000022    -0.000000     0.000000   100.000022
	   40 D(2,3,4,8)      =   -148.557633     0.000023     0.621121  -147.936511
	   41 D(3,4,6,9)      =   -176.554283    -0.000016    -0.661075  -177.215357
	   42 D(3,4,6,10)     =     61.235794    -0.000014    -0.474845    60.760949
	   43 D(3,4,6,11)     =    -55.261528    -0.000012    -0.607204   -55.868732
	   44 D(4,6,9,12)     =    -60.639855     0.000004     0.285476   -60.354379
	   45 D(4,6,9,13)     =    179.513683     0.000003     0.288996   179.802679
	   46 D(4,6,9,14)     =     59.463143     0.000005     0.333819    59.796962
	   47 D(5,3,4,6)      =    159.019705    -0.000015    -7.022118   151.997587
	   48 D(5,3,4,7)      =    -76.437827    -0.000041    -8.278583   -84.716409
	   49 D(5,3,4,8)      =     35.004519    -0.000018    -7.657461    27.347057
	   50 D(7,4,6,9)      =     61.217395     0.000017     0.801913    62.019308
	   51 D(7,4,6,10)     =    -60.992529     0.000018     0.988143   -60.004386
	   52 D(7,4,6,11)     =   -177.489850     0.000020     0.855784  -176.634067
	   53 D(8,4,6,9)      =    -55.141253    -0.000011    -0.071604   -55.212857
	   54 D(8,4,6,10)     =   -177.351177    -0.000009     0.114626  -177.236551
	   55 D(8,4,6,11)     =     66.151502    -0.000007    -0.017733    66.133768
	   56 D(10,6,9,12)    =     61.717201    -0.000005     0.064779    61.781979
	   57 D(10,6,9,13)    =    -58.129261    -0.000005     0.068299   -58.060962
	   58 D(10,6,9,14)    =   -178.179802    -0.000003     0.113122  -178.066679
	   59 D(11,6,9,12)    =    178.140670     0.000001     0.201569   178.342239
	   60 D(11,6,9,13)    =     58.294208     0.000001     0.205089    58.499297
	   61 D(11,6,9,14)    =    -61.756332     0.000003     0.249912   -61.506420
	 ---------------------------------------------------------------------------
	Successfully symmetrized geometry.

  ==> Convergence Check <==

  Measures of convergence in internal coordinates in au.
  Criteria marked as inactive (o), active & met (*), and active & unmet ( ).
  ---------------------------------------------------------------------------------------------
   Step     Total Energy     Delta E     MAX Force     RMS Force      MAX Disp      RMS Disp   
  ---------------------------------------------------------------------------------------------
    Convergence Criteria    1.00e-06 *    3.00e-04 *             o    1.20e-03 *             o
  ---------------------------------------------------------------------------------------------
      2    -305.99827295   -6.12e-04      5.87e-03      1.59e-03 o    1.44e-01      3.30e-02 o  ~
  ---------------------------------------------------------------------------------------------

	Writing optimization data to binary file.
	Structure for next step:
	Cartesian Geometry (in Angstrom)
	    H     2.2031953362   1.3295545114  -0.3013526540
	    O     1.2847140376   1.1218329117  -0.3974044347
	    C     1.1008173891  -0.1253287006   0.0248504329
	    C    -0.3286102457  -0.6090452190  -0.0373358956
	    O     1.9865828923  -0.7642228681   0.4920711890
	    C    -1.4333028781   0.4458644406  -0.0278398871
	    H    -0.3900360172  -1.2102134051  -0.9402988744
	    H    -0.4426879721  -1.2981624942   0.7890781301
	    C    -2.8189238812  -0.1898570680  -0.0259279612
	    H    -1.3305855581   1.0947727639  -0.8871501347
	    H    -1.3229475328   1.0753393310   0.8490865762
	    H    -2.9700155569  -0.8036963979  -0.9076930384
	    H    -3.5914893860   0.5694030356  -0.0156908061
	    H    -2.9631517436  -0.8210319015   0.8443681768
			--------------------------
			 OPTKING Finished Execution 
			--------------------------

    Structure for next step:
    Molecular point group: c1
    Full point group: C1

    Geometry (in Angstrom), charge = 0, multiplicity = 1:

    H            2.206925039900     1.330519755433    -0.302999817469
    O            1.288443741325     1.122798155679    -0.399051598182
    C            1.104547092801    -0.124363456635     0.023203269419
    C           -0.324880541930    -0.608079974970    -0.038983059102
    O            1.990312596063    -0.763257624103     0.490424025510
    C           -1.429573174316     0.446829684611    -0.029487050525
    H           -0.386306313492    -1.209248161160    -0.941946037873
    H           -0.438958268341    -1.297197250243     0.787430966646
    C           -2.815194177495    -0.188891824004    -0.027575124680
    H           -1.326855854407     1.095738007921    -0.888797298172
    H           -1.319217829082     1.076304574986     0.847439412748
    H           -2.966285853163    -0.802731153907    -0.909340201815
    H           -3.587759682217     0.570368279545    -0.017337969511
    H           -2.959422039867    -0.820066657494     0.842721013326

gradient() will perform analytic gradient computation.

*** tstart() called on cx1-27-3-1
*** at Sat Sep 10 17:01:09 2016


         ---------------------------------------------------------
                                   SCF
            by Justin Turney, Rob Parrish, and Andy Simmonett
                              RHF Reference
                        4 Threads,   2000 MiB Core
         ---------------------------------------------------------

  ==> Geometry <==

    Molecular point group: c1
    Full point group: C1

    Geometry (in Angstrom), charge = 0, multiplicity = 1:

       Center              X                  Y                   Z               Mass       
    ------------   -----------------  -----------------  -----------------  -----------------
           H          2.206925039900     1.330519755433    -0.302999817469     1.007825032070
           O          1.288443741325     1.122798155679    -0.399051598182    15.994914619560
           C          1.104547092801    -0.124363456635     0.023203269419    12.000000000000
           C         -0.324880541930    -0.608079974970    -0.038983059102    12.000000000000
           O          1.990312596063    -0.763257624103     0.490424025510    15.994914619560
           C         -1.429573174316     0.446829684611    -0.029487050525    12.000000000000
           H         -0.386306313492    -1.209248161160    -0.941946037873     1.007825032070
           H         -0.438958268341    -1.297197250243     0.787430966646     1.007825032070
           C         -2.815194177495    -0.188891824004    -0.027575124680    12.000000000000
           H         -1.326855854407     1.095738007921    -0.888797298172     1.007825032070
           H         -1.319217829082     1.076304574986     0.847439412748     1.007825032070
           H         -2.966285853163    -0.802731153907    -0.909340201815     1.007825032070
           H         -3.587759682217     0.570368279545    -0.017337969511     1.007825032070
           H         -2.959422039867    -0.820066657494     0.842721013326     1.007825032070

  Running in c1 symmetry.

  Rotational constants: A =      0.29728  B =      0.06209  C =      0.05341 [cm^-1]
  Rotational constants: A =   8912.31208  B =   1861.38821  C =   1601.05830 [MHz]
  Nuclear repulsion =  240.284227180786530

  Charge       = 0
  Multiplicity = 1
  Electrons    = 48
  Nalpha       = 24
  Nbeta        = 24

  ==> Algorithm <==

  SCF Algorithm Type is DF.
  DIIS enabled.
  MOM disabled.
  Fractional occupation disabled.
  Guess Type is READ.
  Energy threshold   = 1.00e-08
  Density threshold  = 1.00e-08
  Integral threshold = 0.00e+00

  ==> Primary Basis <==

  Basis Set: CC-PVTZ
    Number of shells: 108
    Number of basis function: 292
    Number of Cartesian functions: 330
    Spherical Harmonics?: true
    Max angular momentum: 3

  ==> Pre-Iterations <==

   -------------------------------------------------------
    Irrep   Nso     Nmo     Nalpha   Nbeta   Ndocc  Nsocc
   -------------------------------------------------------
     A        292     292       0       0       0       0
   -------------------------------------------------------
    Total     292     292      24      24      24       0
   -------------------------------------------------------

  ==> Integral Setup <==

  ==> DFJK: Density-Fitted J/K Matrices <==

    J tasked:                  Yes
    K tasked:                  Yes
    wK tasked:                  No
    OpenMP threads:              4
    Integrals threads:           4
    Memory (MB):              1430
    Algorithm:                Core
    Integral Cache:           NONE
    Schwarz Cutoff:          1E-12
    Fitting Condition:       1E-12

   => Auxiliary Basis Set <=

  Basis Set: 
    Number of shells: 230
    Number of basis function: 714
    Number of Cartesian functions: 856
    Spherical Harmonics?: true
    Max angular momentum: 4

  Minimum eigenvalue in the overlap matrix is 3.7979001269E-04.
  Using Symmetric Orthogonalization.
  SCF Guess: Reading in previously saved MOs, projecting if necessary.

  Using orbitals from previous SCF, no projection.
  Recomputing DOCC and SOCC from number of alpha and beta electrons from previous calculation.
              A 
    DOCC [    24 ]

  ==> Iterations <==

                           Total Energy        Delta E     RMS |[F,P]|

   @DF-RHF iter   0:  -305.97669781411184   -3.05977e+02   6.77408e-04 
   @DF-RHF iter   1:  -305.99699403526483   -2.02962e-02   1.02354e-04 
   @DF-RHF iter   2:  -305.99764437450324   -6.50339e-04   4.75802e-05 DIIS
   @DF-RHF iter   3:  -305.99775024541736   -1.05871e-04   2.28011e-05 DIIS
   @DF-RHF iter   4:  -305.99778478373798   -3.45383e-05   6.70113e-06 DIIS
   @DF-RHF iter   5:  -305.99778854931401   -3.76558e-06   2.80432e-06 DIIS
   @DF-RHF iter   6:  -305.99778960593858   -1.05662e-06   8.14599e-07 DIIS
   @DF-RHF iter   7:  -305.99778967824250   -7.23039e-08   2.63586e-07 DIIS
   @DF-RHF iter   8:  -305.99778968300609   -4.76359e-09   8.46771e-08 DIIS
   @DF-RHF iter   9:  -305.99778968393957   -9.33483e-10   3.67118e-08 DIIS
   @DF-RHF iter  10:  -305.99778968420060   -2.61025e-10   1.45697e-08 DIIS
   @DF-RHF iter  11:  -305.99778968424175   -4.11546e-11   4.48935e-09 DIIS

  ==> Post-Iterations <==

    Orbital Energies (a.u.)
    -----------------------

    Doubly Occupied:                                                      

       1A    -20.607622     2A    -20.537273     3A    -11.375538  
       4A    -11.240589     5A    -11.230107     6A    -11.218547  
       7A     -1.477435     8A     -1.365946     9A     -1.086138  
      10A     -0.979627    11A     -0.849187    12A     -0.819940  
      13A     -0.703237    14A     -0.683139    15A     -0.664743  
      16A     -0.621569    17A     -0.593819    18A     -0.564791  
      19A     -0.551596    20A     -0.525958    21A     -0.498121  
      22A     -0.492988    23A     -0.472117    24A     -0.440073  

    Virtual:                                                              

      25A      0.132751    26A      0.156624    27A      0.171884  
      28A      0.177379    29A      0.188458    30A      0.197474  
      31A      0.227243    32A      0.239631    33A      0.256137  
      34A      0.297212    35A      0.347155    36A      0.358571  
      37A      0.363223    38A      0.389987    39A      0.401016  
      40A      0.413508    41A      0.440997    42A      0.465705  
      43A      0.474577    44A      0.508159    45A      0.531204  
      46A      0.562499    47A      0.570549    48A      0.584261  
      49A      0.598393    50A      0.615538    51A      0.631794  
      52A      0.634784    53A      0.647310    54A      0.658224  
      55A      0.670236    56A      0.677257    57A      0.695767  
      58A      0.721117    59A      0.742228    60A      0.759928  
      61A      0.797586    62A      0.811398    63A      0.820823  
      64A      0.823590    65A      0.845521    66A      0.857977  
      67A      0.892508    68A      0.926945    69A      0.928572  
      70A      0.935854    71A      0.966078    72A      1.009461  
      73A      1.031284    74A      1.066394    75A      1.083748  
      76A      1.096271    77A      1.136599    78A      1.172836  
      79A      1.202090    80A      1.214368    81A      1.233715  
      82A      1.253762    83A      1.269499    84A      1.281799  
      85A      1.290962    86A      1.302663    87A      1.335648  
      88A      1.350589    89A      1.369301    90A      1.395249  
      91A      1.405509    92A      1.412612    93A      1.418638  
      94A      1.470638    95A      1.483909    96A      1.486855  
      97A      1.502579    98A      1.541146    99A      1.543656  
     100A      1.560225   101A      1.584353   102A      1.599424  
     103A      1.614595   104A      1.638660   105A      1.655599  
     106A      1.702731   107A      1.729534   108A      1.758389  
     109A      1.778464   110A      1.809852   111A      1.823395  
     112A      1.868295   113A      1.895160   114A      1.943742  
     115A      1.976587   116A      2.039154   117A      2.055018  
     118A      2.246199   119A      2.269439   120A      2.347378  
     121A      2.363284   122A      2.402905   123A      2.459193  
     124A      2.503617   125A      2.543124   126A      2.563154  
     127A      2.588770   128A      2.627832   129A      2.682996  
     130A      2.714044   131A      2.726619   132A      2.762051  
     133A      2.788943   134A      2.811440   135A      2.831937  
     136A      2.833989   137A      2.890902   138A      2.905960  
     139A      2.924448   140A      2.951748   141A      2.991526  
     142A      3.005704   143A      3.015699   144A      3.088748  
     145A      3.113879   146A      3.120114   147A      3.147047  
     148A      3.172814   149A      3.200856   150A      3.213922  
     151A      3.225843   152A      3.263090   153A      3.296096  
     154A      3.306273   155A      3.334448   156A      3.347322  
     157A      3.359158   158A      3.376505   159A      3.398087  
     160A      3.408882   161A      3.414649   162A      3.424203  
     163A      3.434975   164A      3.467305   165A      3.479418  
     166A      3.513904   167A      3.523840   168A      3.535546  
     169A      3.542276   170A      3.572577   171A      3.595601  
     172A      3.616262   173A      3.626202   174A      3.660007  
     175A      3.667535   176A      3.700087   177A      3.753101  
     178A      3.773290   179A      3.792531   180A      3.804552  
     181A      3.814596   182A      3.849247   183A      3.859668  
     184A      3.873588   185A      3.926576   186A      3.945350  
     187A      3.977431   188A      3.979086   189A      3.994940  
     190A      4.035536   191A      4.061869   192A      4.096298  
     193A      4.124373   194A      4.131797   195A      4.143325  
     196A      4.161885   197A      4.174922   198A      4.186681  
     199A      4.199829   200A      4.210175   201A      4.233498  
     202A      4.257778   203A      4.296104   204A      4.325022  
     205A      4.337444   206A      4.358183   207A      4.372082  
     208A      4.411621   209A      4.427102   210A      4.451259  
     211A      4.466616   212A      4.483355   213A      4.505980  
     214A      4.543260   215A      4.568228   216A      4.592055  
     217A      4.613273   218A      4.629215   219A      4.632931  
     220A      4.647121   221A      4.650841   222A      4.687947  
     223A      4.706637   224A      4.744148   225A      4.794114  
     226A      4.828144   227A      4.850445   228A      4.911261  
     229A      4.968814   230A      5.003700   231A      5.036648  
     232A      5.113960   233A      5.137265   234A      5.153143  
     235A      5.202210   236A      5.228344   237A      5.240227  
     238A      5.255447   239A      5.306851   240A      5.341787  
     241A      5.366250   242A      5.415091   243A      5.431272  
     244A      5.455831   245A      5.556422   246A      5.587639  
     247A      5.596108   248A      5.625174   249A      5.654866  
     250A      5.693655   251A      5.712655   252A      5.742593  
     253A      5.759806   254A      5.763330   255A      5.811493  
     256A      5.853541   257A      5.881417   258A      5.883485  
     259A      5.917338   260A      5.927146   261A      6.006562  
     262A      6.048404   263A      6.103867   264A      6.256865  
     265A      6.297947   266A      6.315448   267A      6.327899  
     268A      6.411543   269A      6.496413   270A      6.665589  
     271A      6.745769   272A      6.784642   273A      6.873866  
     274A      6.959740   275A      7.017638   276A      7.037074  
     277A      7.094095   278A      7.203588   279A      7.282033  
     280A      7.331998   281A      7.391402   282A      7.494631  
     283A      7.596644   284A      7.724556   285A      7.850288  
     286A      8.014968   287A     10.062184   288A     13.174844  
     289A     13.320321   290A     13.554631   291A     14.173858  
     292A     14.265579  

    Final Occupation by Irrep:
              A 
    DOCC [    24 ]

  Energy converged.

  @DF-RHF Final Energy:  -305.99778968424175

   => Energetics <=

    Nuclear Repulsion Energy =            240.2842271807865302
[...]

  Nuclear repulsion =  240.854765790870715

  ==> Basis Set <==

  Basis Set: CC-PVTZ
    Number of shells: 108
    Number of basis function: 292
    Number of Cartesian functions: 330
    Spherical Harmonics?: true
    Max angular momentum: 3

  ==> DFJKGrad: Density-Fitted SCF Gradients <==

    Gradient:                    1
    J tasked:                  Yes
    K tasked:                  Yes
    wK tasked:                  No
    OpenMP threads:              4
    Integrals threads:           4
    Memory (MB):              1430
    Schwarz Cutoff:          0E+00
    Fitting Condition:       1E-12

   => Auxiliary Basis Set <=

  Basis Set: 
    Number of shells: 230
    Number of basis function: 714
    Number of Cartesian functions: 856
    Spherical Harmonics?: true
    Max angular momentum: 4


  -Total Gradient:
     Atom            X                  Y                   Z
    ------   -----------------  -----------------  -----------------
       1       -0.000019534576    -0.000050321454     0.000013748030
       2       -0.000196716184     0.000308298938     0.000593390969
       3        0.000188624494    -0.000371293868    -0.000785645126
       4       -0.000234229862     0.000871461011    -0.000242362977
       5        0.000014687090    -0.000120965596     0.000038643900
       6        0.000004412142    -0.000000902958    -0.000072202130
       7        0.000214792966    -0.000621546797     0.000410482114
       8        0.000009331890     0.000002943354     0.000005213675
       9       -0.000000815273    -0.000005244962     0.000032309790
      10        0.000009589679    -0.000004405126    -0.000001237586
      11        0.000008213690    -0.000008911529     0.000007171356
      12        0.000006620397     0.000010392538    -0.000003007304
      13        0.000002807353    -0.000001833245     0.000006745039
      14       -0.000007783800    -0.000007670305    -0.000003249749


*** tstop() called on cx1-27-3-1 at Sat Sep 10 17:01:50 2016
Module time:
	user time   =      20.10 seconds =       0.33 minutes
	system time =       0.47 seconds =       0.01 minutes
	total time  =          5 seconds =       0.08 minutes
Total time:
	user time   =     227.75 seconds =       3.80 minutes
	system time =       5.52 seconds =       0.09 minutes
	total time  =         64 seconds =       1.07 minutes

			-----------------------------------------
			 OPTKING 2.0: for geometry optimizations 
			  - R.A. King,  Bethel University        
			-----------------------------------------

	Previous internal coordinate definitions found.
	---Fragment 1 Geometry and Gradient---
	 H           4.0855075138        2.5682777631       -0.6425641490
	 O           2.3526182907        2.1427639596       -0.7376714104
	 C           2.0792175447       -0.2110205247        0.0880340977
	 C          -0.6015706077       -1.1710937491       -0.0193619625
	 O           3.8163222658       -1.4254224271        0.8001320430
	 C          -2.6859406204        0.8203019410       -0.0197645942
	 H          -0.7142807969       -2.3282781828       -1.7118523002
	 H          -0.8056536830       -2.4574290307        1.5570896260
	 C          -5.3067241494       -0.3770222845       -0.0501242412
	 H          -2.4656520259        2.0482070929       -1.6407015227
	 H          -2.4935001310        2.0099018877        1.6385252063
	 H          -5.5745790973       -1.5328047832       -1.7221508947
	 H          -6.7653646396        1.0591484367       -0.0437231279
	 H          -5.5988392545       -1.5732109174        1.5885686353
	            -0.0000195346       -0.0000503215        0.0000137480
	            -0.0001967162        0.0003082989        0.0005933910
	             0.0001886245       -0.0003712939       -0.0007856451
	            -0.0002342299        0.0008714610       -0.0002423630
	             0.0000146871       -0.0001209656        0.0000386439
	             0.0000044121       -0.0000009030       -0.0000722021
	             0.0002147930       -0.0006215468        0.0004104821
	             0.0000093319        0.0000029434        0.0000052137
	            -0.0000008153       -0.0000052450        0.0000323098
	             0.0000095897       -0.0000044051       -0.0000012376
	             0.0000082137       -0.0000089115        0.0000071714
	             0.0000066204        0.0000103925       -0.0000030073
	             0.0000028074       -0.0000018332        0.0000067450
	            -0.0000077838       -0.0000076703       -0.0000032497

	---Fragment 1 Intrafragment Coordinates---
	 - Coordinate -           - BOHR/RAD -       - ANG/DEG -
	 R(1,2)           =         1.786900	       0.945587
	 R(2,3)           =         2.509350	       1.327891
	 R(3,4)           =         2.849544	       1.507914
	 R(3,5)           =         2.235931	       1.183204
	 R(4,6)           =         2.882751	       1.525486
	 R(4,7)           =         2.053364	       1.086593
	 R(4,8)           =         2.044874	       1.082100
	 R(6,9)           =         2.881495	       1.524821
	 R(6,10)          =         2.045413	       1.082386
	 R(6,11)          =         2.049904	       1.084762
	 R(9,12)          =         2.050184	       1.084910
	 R(9,13)          =         2.047012	       1.083232
	 R(9,14)          =         2.049759	       1.084686
	 B(1,2,3)         =         1.887581	     108.150421
	 B(2,3,4)         =         1.989015	     113.962164
	 B(2,3,5)         =         2.128936	     121.979068
	 B(3,4,6)         =         2.034752	     116.582710
	 B(3,4,7)         =         1.846869	     105.817791
	 B(3,4,8)         =         1.851236	     106.068014
	 B(4,3,5)         =         2.165068	     124.049249
	 B(4,6,9)         =         1.950440	     111.751958
	 B(4,6,10)        =         1.914461	     109.690509
	 B(4,6,11)        =         1.910165	     109.444397
	 B(6,4,7)         =         1.927832	     110.456659
	 B(6,4,8)         =         1.941739	     111.253445
	 B(6,9,12)        =         1.940855	     111.202781
	 B(6,9,13)        =         1.935356	     110.887745
	 B(6,9,14)        =         1.943015	     111.326547
	 B(7,4,8)         =         1.849859	     105.989132
	 B(9,6,10)        =         1.916705	     109.819101
	 B(9,6,11)        =         1.912447	     109.575140
	 B(10,6,11)       =         1.857290	     106.414889
	 B(12,9,13)       =         1.880707	     107.756597
	 B(12,9,14)       =         1.880093	     107.721419
	 B(13,9,14)       =         1.881137	     107.781202
	 D(1,2,3,4)       =        -3.116152	    -178.542382
	 D(1,2,3,5)       =         0.006594	       0.377781
	 D(2,3,4,6)       =        -0.405385	     -23.226840
	*D(2,3,4,7)       =         1.745330	     100.000022
	 D(2,3,4,8)       =        -2.577764	    -147.695015
	 D(3,4,6,9)       =        -3.110794	    -178.235395
	 D(3,4,6,10)      =         1.042401	      59.725175
	 D(3,4,6,11)      =        -0.989158	     -56.674555
	 D(4,6,9,12)      =        -1.052625	     -60.310969
	 D(4,6,9,13)      =         3.138278	     179.810093
	 D(4,6,9,14)      =         1.044019	      59.817861
	 D(5,3,4,6)       =         2.755502	     157.878656
	 D(5,3,4,7)       =        -1.376968	     -78.894483
	 D(5,3,4,8)       =         0.583123	      33.410480
	 D(7,4,6,9)       =         1.064118	      60.969460
	 D(7,4,6,10)      =        -1.065872	     -61.069970
	 D(7,4,6,11)      =        -3.097431	    -177.469700
	 D(8,4,6,9)       =        -0.985278	     -56.452288
	 D(8,4,6,10)      =        -3.115268	    -178.491718
	 D(8,4,6,11)      =         1.136359	      65.108552
	 D(10,6,9,12)     =         1.076075	      61.654562
	 D(10,6,9,13)     =        -1.016207	     -58.224376
	 D(10,6,9,14)     =        -3.110467	    -178.216608
	 D(11,6,9,12)     =         3.110242	     178.203716
	 D(11,6,9,13)     =         1.017959	      58.324778
	 D(11,6,9,14)     =        -1.076300	     -61.667454

	Current energy   :      -305.9986243433

	Energy change for the previous step:
		Projected    :        -0.0000052856
		Actual       :        -0.0000006730
	Energy ratio indicates iffy step: Trust radius decreased to 2.500e-01.


	Performing BFGS update.
	Previous computed or guess Hessian on step 1.
	Steps to be used in Hessian update: 5 4
	Taking RFO optimization step.
	Going to follow RFO solution 1.
	Using RFO vector 1.
	Norm of target step-size    0.00581
	Projected energy change by RFO approximation:        -0.0000009628

	Back-transformation to cartesian coordinates...
	Successfully converged to displaced geometry.

	Back-transformation to cartesian coordinates to adjust frozen coordinates...
	Successfully converged to displaced geometry.

	--- Internal Coordinate Step in ANG or DEG, aJ/ANG or AJ/DEG ---
	 ---------------------------------------------------------------------------
	   Coordinate                Previous        Force       Change         New 
	   ----------                --------       ------       ------       ------
	    1 R(1,2)          =      0.945587     0.000249     0.000013     0.945600
	    2 R(2,3)          =      1.327891    -0.000154    -0.000002     1.327889
	    3 R(3,4)          =      1.507914     0.000794     0.000134     1.508047
	    4 R(3,5)          =      1.183204    -0.000737    -0.000044     1.183159
	    5 R(4,6)          =      1.525486     0.000243     0.000033     1.525519
	    6 R(4,7)          =      1.086593    -0.000001     0.000003     1.086596
	    7 R(4,8)          =      1.082100    -0.000010    -0.000004     1.082097
	    8 R(6,9)          =      1.524821    -0.000006    -0.000002     1.524820
	    9 R(6,10)         =      1.082386     0.000005    -0.000000     1.082386
	   10 R(6,11)         =      1.084762    -0.000012     0.000001     1.084763
	   11 R(9,12)         =      1.084910     0.000035     0.000006     1.084916
	   12 R(9,13)         =      1.083232     0.000027     0.000001     1.083234
	   13 R(9,14)         =      1.084686    -0.000025    -0.000000     1.084686
	   14 B(1,2,3)        =    108.150421     0.000006     0.021069   108.171490
	   15 B(2,3,4)        =    113.962164     0.000005     0.004221   113.966384
	   16 B(2,3,5)        =    121.979068    -0.000010    -0.016610   121.962458
	   17 B(3,4,6)        =    116.582710     0.000001     0.001838   116.584547
	   18 B(3,4,7)        =    105.817791    -0.000000     0.005178   105.822969
	   19 B(3,4,8)        =    106.068014     0.000001     0.001116   106.069130
	   20 B(4,3,5)        =    124.049249     0.000005     0.012443   124.061692
	   21 B(4,6,9)        =    111.751958    -0.000000    -0.000752   111.751206
	   22 B(4,6,10)       =    109.690509     0.000000    -0.004185   109.686324
	   23 B(4,6,11)       =    109.444397     0.000001     0.011245   109.455642
	   24 B(6,4,7)        =    110.456659     0.000000     0.004610   110.461268
	   25 B(6,4,8)        =    111.253445    -0.000001    -0.005923   111.247522
	   26 B(6,9,12)       =    111.202781     0.000001     0.005273   111.208054
	   27 B(6,9,13)       =    110.887745     0.000000    -0.000665   110.887080
	   28 B(6,9,14)       =    111.326547    -0.000001    -0.004747   111.321800
	   29 B(7,4,8)        =    105.989132    -0.000000    -0.007431   105.981701
	   30 B(9,6,10)       =    109.819101    -0.000001    -0.008348   109.810753
	   31 B(9,6,11)       =    109.575140     0.000000     0.005004   109.580144
	   32 B(10,6,11)      =    106.414889    -0.000000    -0.002978   106.411910
	   33 B(12,9,13)      =    107.756597    -0.000000     0.000268   107.756865
	   34 B(12,9,14)      =    107.721419    -0.000000    -0.000384   107.721036
	   35 B(13,9,14)      =    107.781202     0.000000     0.000271   107.781472
	   36 D(1,2,3,4)      =   -178.542382    -0.000000    -0.007203  -178.549585
	   37 D(1,2,3,5)      =      0.377781    -0.000000    -0.003967     0.373814
	   38 D(2,3,4,6)      =    -23.226840    -0.000000    -0.011285   -23.238125
	   39 *D(2,3,4,7)     =    100.000022    -0.000000     0.000000   100.000022
	   40 D(2,3,4,8)      =   -147.695015    -0.000000    -0.005664  -147.700680
	   41 D(3,4,6,9)      =   -178.235395    -0.000000    -0.056858  -178.292254
	   42 D(3,4,6,10)     =     59.725175     0.000000    -0.042854    59.682322
	   43 D(3,4,6,11)     =    -56.674555    -0.000000    -0.043331   -56.717886
	   44 D(4,6,9,12)     =    -60.310969     0.000000     0.106830   -60.204139
	   45 D(4,6,9,13)     =    179.810093     0.000000     0.103439   179.913532
	   46 D(4,6,9,14)     =     59.817861     0.000000     0.106705    59.924566
	   47 D(5,3,4,6)      =    157.878656    -0.000000    -0.014237   157.864419
	   48 D(5,3,4,7)      =    -78.894483    -0.000000    -0.002952   -78.897435
	   49 D(5,3,4,8)      =     33.410480    -0.000000    -0.008616    33.401864
	   50 D(7,4,6,9)      =     60.969460    -0.000000    -0.068838    60.900622
	   51 D(7,4,6,10)     =    -61.069970    -0.000000    -0.054833   -61.124803
	   52 D(7,4,6,11)     =   -177.469700    -0.000000    -0.055310  -177.525010
	   53 D(8,4,6,9)      =    -56.452288    -0.000000    -0.058849   -56.511137
	   54 D(8,4,6,10)     =   -178.491718     0.000000    -0.044844  -178.536562
	   55 D(8,4,6,11)     =     65.108552     0.000000    -0.045321    65.063231
	   56 D(10,6,9,12)    =     61.654562     0.000000     0.095206    61.749768
	   57 D(10,6,9,13)    =    -58.224376     0.000000     0.091815   -58.132561
	   58 D(10,6,9,14)    =   -178.216608     0.000000     0.095081  -178.121527
	   59 D(11,6,9,12)    =    178.203716    -0.000000     0.089686   178.293402
	   60 D(11,6,9,13)    =     58.324778    -0.000000     0.086295    58.411073
	   61 D(11,6,9,14)    =    -61.667454    -0.000000     0.089561   -61.577893
	 ---------------------------------------------------------------------------
	Successfully symmetrized geometry.

  ==> Convergence Check <==

  Measures of convergence in internal coordinates in au.
  Criteria marked as inactive (o), active & met (*), and active & unmet ( ).
  ---------------------------------------------------------------------------------------------
   Step     Total Energy     Delta E     MAX Force     RMS Force      MAX Disp      RMS Disp   
  ---------------------------------------------------------------------------------------------
    Convergence Criteria    1.00e-06 *    3.00e-04 *             o    1.20e-03 *             o
  ---------------------------------------------------------------------------------------------
      6    -305.99862434   -6.73e-07 *    1.33e-04 *    3.02e-05 o    1.86e-03      7.44e-04 o  ~
  ---------------------------------------------------------------------------------------------


  **** Optimization is complete! (in 6 steps) ****

  ==> Optimization Summary <==

  Measures of convergence in internal coordinates in au.
  --------------------------------------------------------------------------------------------------------------- ~
   Step         Total Energy             Delta E       MAX Force       RMS Force        MAX Disp        RMS Disp  ~
  --------------------------------------------------------------------------------------------------------------- ~
      1    -305.997660880083   -305.997660880083      0.01371050      0.00312282      0.06735918      0.02735065  ~
      2    -305.998272952139     -0.000612072056      0.00586895      0.00158863      0.14448852      0.03300875  ~
      3    -305.997789684242      0.000483267898      0.00813929      0.00183768      0.10066355      0.02400009  ~
      4    -305.998603733143     -0.000814048901      0.00325318      0.00053861      0.02046295      0.00663501  ~
      5    -305.998623670292     -0.000019937149      0.00032804      0.00006761      0.00510943      0.00210024  ~
      6    -305.998624343281     -0.000000672989      0.00013277      0.00003019      0.00186453      0.00074424  ~
  --------------------------------------------------------------------------------------------------------------- ~

	Writing optimization data to binary file.
	Final energy is   -305.9986243432807
	Final (previous) structure:
	Cartesian Geometry (in Angstrom)
	    H     2.1619574618   1.3590740576  -0.3400303027
	    O     1.2449519800   1.1339018508  -0.3903588978
	    C     1.1002745364  -0.1116672522   0.0465856381
	    C    -0.3183374550  -0.6197161211  -0.0102459092
	    O     2.0195107637  -0.7543010610   0.4234116410
	    C    -1.4213385600   0.4340850913  -0.0104589728
	    H    -0.3779811183  -1.2320717496  -0.9058732217
	    H    -0.4263335671  -1.3004154348   0.8239763418
	    C    -2.8081974721  -0.1995116001  -0.0265246060
	    H    -1.3047668564   1.0838645121  -0.8682218519
	    H    -1.3195034389   1.0635942704   0.8670701949
	    H    -2.9499402058  -0.8111253565  -0.9113230032
	    H    -3.5800767751   0.5604772132  -0.0231372828
	    H    -2.9627781280  -0.8325073618   0.8406343161
	Saving final (previous) structure.
			--------------------------
			 OPTKING Finished Execution 
			--------------------------

    Final optimized geometry and variables:
    Molecular point group: c1
    Full point group: C1

    Geometry (in Angstrom), charge = 0, multiplicity = 1:

    H            2.161957461833     1.359074057570    -0.340030302694
    O            1.244951979953     1.133901850786    -0.390358897791
    C            1.100274536375    -0.111667252197     0.046585638101
    C           -0.318337454953    -0.619716121126    -0.010245909244
    O            2.019510763670    -0.754301061008     0.423411641000
    C           -1.421338559966     0.434085091345    -0.010458972775
    H           -0.377981118279    -1.232071749616    -0.905873221746
    H           -0.426333567063    -1.300415434770     0.823976341801
    C           -2.808197472134    -0.199511600069    -0.026524606021
    H           -1.304766856415     1.083864512051    -0.868221851907
    H           -1.319503438915     1.063594270447     0.867070194891
    H           -2.949940205756    -0.811125356496    -0.911323003226
    H           -3.580076775103     0.560477213204    -0.023137282773
    H           -2.962778128040    -0.832507361778     0.840634316073

	Cleaning optimization helper files.


Properties will be evaluated at   0.000000,   0.000000,   0.000000 Bohr

Properties computed using the  density matrix

  Nuclear Dipole Moment: (a.u.)
     X:   -10.0709      Y:    -0.1005      Z:    -0.4844

  Electronic Dipole Moment: (a.u.)
     X:     9.4457      Y:     0.5709      Z:     0.2186

  Dipole Moment: (a.u.)
     X:    -0.6253      Y:     0.4704      Z:    -0.2658     Total:     0.8264

  Dipole Moment: (Debye)
     X:    -1.5893      Y:     1.1958      Z:    -0.6756     Total:     2.1005

  Quadrupole Moment: (Debye Ang)
    XX:   -38.6352     YY:   -37.6964     ZZ:   -36.5642
    XY:     5.7774     XZ:    -2.3669     YZ:     1.2563

  Traceless Quadrupole Moment: (Debye Ang)
    XX:    -1.0033     YY:    -0.0645     ZZ:     1.0678
    XY:     5.7774     XZ:    -2.3669     YZ:     1.2563

  Mulliken Charges: (a.u.)
   Center  Symbol    Alpha    Beta     Spin     Total
       1     H     0.38283  0.38283  0.00000  0.23435
       2     O     4.15405  4.15405  0.00000 -0.30810
       3     C     2.81235  2.81235  0.00000  0.37531
       4     C     3.09409  3.09409  0.00000 -0.18819
       5     O     4.19617  4.19617  0.00000 -0.39233
       6     C     3.08535  3.08535  0.00000 -0.17070
       7     H     0.44186  0.44186  0.00000  0.11629
       8     H     0.43513  0.43513  0.00000  0.12974
       9     C     3.15129  3.15129  0.00000 -0.30259
      10     H     0.44461  0.44461  0.00000  0.11079
      11     H     0.44843  0.44843  0.00000  0.10314
      12     H     0.45455  0.45455  0.00000  0.09091
      13     H     0.44547  0.44547  0.00000  0.10907
      14     H     0.45384  0.45384  0.00000  0.09232

   Total alpha = 24.00000, Total beta = 24.00000, Total charge =  0.00000


*** Psi4 exiting successfully. Buy a developer a beer!
