    -----------------------------------------------------------------------
          Psi4: An Open-Source Ab Initio Electronic Structure Package
                              Psi4 1.0.54 Driver

                          Git: Rev {master} 8d4cec3 dirty

    J. M. Turney, A. C. Simmonett, R. M. Parrish, E. G. Hohenstein,
    F. A. Evangelista, J. T. Fermann, B. J. Mintz, L. A. Burns, J. J. Wilke,
    M. L. Abrams, N. J. Russ, M. L. Leininger, C. L. Janssen, E. T. Seidl,
    W. D. Allen, H. F. Schaefer, R. A. King, E. F. Valeev, C. D. Sherrill,
    and T. D. Crawford, WIREs Comput. Mol. Sci. 2, 556-565 (2012)
    (doi: 10.1002/wcms.93)

                         Additional Contributions by
    A. E. DePrince, U. Bozkaya, A. Yu. Sokolov, D. G. A. Smith, R. Di Remigio,
    R. M. Richard, J. F. Gonthier, H. R. McAlexander, M. Saitow, and
    B. P. Pritchard
    -----------------------------------------------------------------------


    Psi4 started on: Sat Sep 10 15:51:35 2016

    Process ID:  36616
    PSI4DATADIR: /export131/home/mjharvey/miniconda3/share/psi4
    Memory level set to 256.000 MB

  ==> Input File <==

--------------------------------------------------------------------------
set {
	reference rhf
	basis cc-pvtz
}


set_num_threads( 4 )
memory 2 gb

molecule MOL {
0 1

H	 2.190573	 -0.629143	 -0.208718
O	 1.355408	 -0.529451	 0.208662
C	 0.700177	 0.619554	 -0.266242
C	 -0.713111	 0.588314	 0.266177
H	 0.678680	 0.627133	 -1.351786
H	 1.199747	 1.521489	 0.077736
O	 -1.421673	 -0.521378	 -0.196983
H	 -1.244794	 1.469161	 -0.069059
H	 -0.685100	 0.604721	 1.352683
H	 -0.846332	 -1.266360	 -0.194068

	symmetry c1
}
set optking {
	frozen_dihedral = ("
		10 7 4 3
	")
}

ee,wfn = optimize('scf', return_wfn=True)
oeprop( wfn, 'DIPOLE', 'QUADRUPOLE', 'MULLIKEN_CHARGES')
f=open( 'psi4out.xyz', 'w' )
f.write( "10  " )
f.write( str(ee) + "\n" )
f.write( MOL.save_string_xyz() )
f.close()
--------------------------------------------------------------------------

  Memory set to   2.000 GiB by Python script.
gradient() will perform analytic gradient computation.

*** tstart() called on cx1-27-1-2
*** at Sat Sep 10 15:51:36 2016


         ---------------------------------------------------------
                                   SCF
            by Justin Turney, Rob Parrish, and Andy Simmonett
                              RHF Reference
                        4 Threads,   2000 MiB Core
         ---------------------------------------------------------

  ==> Geometry <==

    Molecular point group: c1
    Full point group: C1

    Geometry (in Angstrom), charge = 0, multiplicity = 1:

       Center              X                  Y                   Z               Mass       
    ------------   -----------------  -----------------  -----------------  -----------------
           H          2.189158049360    -0.629654079443    -0.205328651123     1.007825032070
           O          1.353993049360    -0.529962079443     0.212051348877    15.994914619560
           C          0.698762049360     0.619042920557    -0.262852651123    12.000000000000
           C         -0.714525950640     0.587802920557     0.269566348877    12.000000000000
           H          0.677265049360     0.626621920557    -1.348396651123     1.007825032070
           H          1.198332049360     1.520977920557     0.081125348877     1.007825032070
           O         -1.423087950640    -0.521889079443    -0.193593651123    15.994914619560
           H         -1.246208950640     1.468649920557    -0.065669651123     1.007825032070
           H         -0.686514950640     0.604209920557     1.356072348877     1.007825032070
           H         -0.847746950640    -1.266871079443    -0.190678651123     1.007825032070

  Running in c1 symmetry.

  Rotational constants: A =      0.53361  B =      0.18730  C =      0.15585 [cm^-1]
  Rotational constants: A =  15997.36509  B =   5615.23433  C =   4672.12499 [MHz]
  Nuclear repulsion =  134.660589957024598

  Charge       = 0
  Multiplicity = 1
  Electrons    = 34
  Nalpha       = 17
  Nbeta        = 17

  ==> Algorithm <==

  SCF Algorithm Type is DF.
  DIIS enabled.
  MOM disabled.
  Fractional occupation disabled.
  Guess Type is SAD.
  Energy threshold   = 1.00e-08
  Density threshold  = 1.00e-08
  Integral threshold = 0.00e+00

  ==> Primary Basis <==

  Basis Set: CC-PVTZ
    Number of shells: 76
    Number of basis function: 204
    Number of Cartesian functions: 230
    Spherical Harmonics?: true
    Max angular momentum: 3

  ==> Pre-Iterations <==

   -------------------------------------------------------
    Irrep   Nso     Nmo     Nalpha   Nbeta   Ndocc  Nsocc
   -------------------------------------------------------
     A        204     204       0       0       0       0
   -------------------------------------------------------
    Total     204     204      17      17      17       0
   -------------------------------------------------------

  ==> Integral Setup <==

  ==> DFJK: Density-Fitted J/K Matrices <==

    J tasked:                  Yes
    K tasked:                  Yes
    wK tasked:                  No
    OpenMP threads:              4
    Integrals threads:           4
    Memory (MB):              1430
    Algorithm:                Core
    Integral Cache:           NONE
    Schwarz Cutoff:          1E-12
    Fitting Condition:       1E-12

   => Auxiliary Basis Set <=

  Basis Set: 
    Number of shells: 160
    Number of basis function: 496
    Number of Cartesian functions: 594
    Spherical Harmonics?: true
    Max angular momentum: 4

  Minimum eigenvalue in the overlap matrix is 8.0824536520E-04.
  Using Symmetric Orthogonalization.
  SCF Guess: Superposition of Atomic Densities via on-the-fly atomic UHF.

  ==> Iterations <==

                           Total Energy        Delta E     RMS |[F,P]|

   @DF-RHF iter   0:  -230.30168485982935   -2.30302e+02   1.88461e-02 
   @DF-RHF iter   1:  -228.93973599022550    1.36195e+00   1.81788e-03 
   @DF-RHF iter   2:  -229.01658944399108   -7.68535e-02   6.71370e-04 DIIS
   @DF-RHF iter   3:  -229.02585193012035   -9.26249e-03   2.92878e-04 DIIS
   @DF-RHF iter   4:  -229.02807434216592   -2.22241e-03   6.98936e-05 DIIS
   @DF-RHF iter   5:  -229.02829624607674   -2.21904e-04   2.17087e-05 DIIS
   @DF-RHF iter   6:  -229.02832124163720   -2.49956e-05   6.74582e-06 DIIS
   @DF-RHF iter   7:  -229.02832310073924   -1.85910e-06   1.65337e-06 DIIS
   @DF-RHF iter   8:  -229.02832325725277   -1.56514e-07   3.75611e-07 DIIS
   @DF-RHF iter   9:  -229.02832326611545   -8.86268e-09   9.64462e-08 DIIS
   @DF-RHF iter  10:  -229.02832326660817   -4.92719e-10   3.43908e-08 DIIS
   @DF-RHF iter  11:  -229.02832326664580   -3.76303e-11   1.21769e-08 DIIS
   @DF-RHF iter  12:  -229.02832326665092   -5.11591e-12   2.91910e-09 DIIS

  ==> Post-Iterations <==

    Orbital Energies (a.u.)
    -----------------------

    Doubly Occupied:                                                      

       1A    -20.563397     2A    -20.541726     3A    -11.276466  
       4A    -11.266516     5A     -1.387495     6A     -1.356044  
       7A     -1.004534     8A     -0.847289     9A     -0.731096  
      10A     -0.676692    11A     -0.658778    12A     -0.607273  
      13A     -0.576811    14A     -0.540410    15A     -0.488882  
      16A     -0.458797    17A     -0.436676  

    Virtual:                                                              

      18A      0.134383    19A      0.166593    20A      0.190006  
      21A      0.200264    22A      0.214403    23A      0.238433  
      24A      0.311069    25A      0.316858    26A      0.337653  
      27A      0.401284    28A      0.502408    29A      0.523746  
      30A      0.538057    31A      0.549904    32A      0.573438  
      33A      0.593038    34A      0.602655    35A      0.635721  
      36A      0.644029    37A      0.654793    38A      0.669023  
      39A      0.717921    40A      0.727911    41A      0.749655  
      42A      0.774372    43A      0.798419    44A      0.841646  
      45A      0.850996    46A      0.884370    47A      0.918872  
      48A      0.935154    49A      0.968060    50A      1.014110  
      51A      1.043647    52A      1.086694    53A      1.158370  
      54A      1.175081    55A      1.235524    56A      1.248773  
      57A      1.280823    58A      1.284734    59A      1.313311  
      60A      1.333443    61A      1.342111    62A      1.369457  
      63A      1.390588    64A      1.447557    65A      1.467270  
      66A      1.486034    67A      1.524095    68A      1.533790  
      69A      1.549436    70A      1.601188    71A      1.630314  
      72A      1.658187    73A      1.753632    74A      1.772823  
      75A      1.803486    76A      1.965293    77A      2.116908  
      78A      2.122979    79A      2.192414    80A      2.249051  
      81A      2.279521    82A      2.305771    83A      2.334275  
      84A      2.361783    85A      2.392411    86A      2.457507  
      87A      2.614043    88A      2.624369    89A      2.663950  
      90A      2.719002    91A      2.760901    92A      2.794694  
      93A      2.824630    94A      2.915700    95A      3.024500  
      96A      3.036303    97A      3.067418    98A      3.162996  
      99A      3.197842   100A      3.241167   101A      3.254006  
     102A      3.263581   103A      3.286929   104A      3.297754  
     105A      3.323072   106A      3.358281   107A      3.375734  
     108A      3.409945   109A      3.432763   110A      3.451335  
     111A      3.472044   112A      3.477387   113A      3.517740  
     114A      3.572953   115A      3.645273   116A      3.704011  
     117A      3.718968   118A      3.738910   119A      3.756193  
     120A      3.790735   121A      3.817139   122A      3.821206  
     123A      3.842461   124A      3.873632   125A      3.938608  
     126A      3.971434   127A      3.976590   128A      4.030453  
     129A      4.046385   130A      4.102202   131A      4.149442  
     132A      4.165782   133A      4.184615   134A      4.193886  
     135A      4.242585   136A      4.261795   137A      4.285690  
     138A      4.312420   139A      4.329725   140A      4.354929  
     141A      4.368536   142A      4.408454   143A      4.434958  
     144A      4.472816   145A      4.492572   146A      4.532660  
     147A      4.562113   148A      4.599566   149A      4.669618  
     150A      4.705359   151A      4.708487   152A      4.762753  
     153A      4.806869   154A      4.853796   155A      4.907463  
     156A      5.027196   157A      5.105891   158A      5.122483  
     159A      5.167799   160A      5.206779   161A      5.231476  
     162A      5.240413   163A      5.287876   164A      5.296779  
     165A      5.383944   166A      5.421034   167A      5.458420  
     168A      5.555401   169A      5.688475   170A      5.742345  
     171A      5.750033   172A      5.810860   173A      5.874505  
     174A      5.938495   175A      5.980430   176A      6.090377  
     177A      6.195775   178A      6.215534   179A      6.253180  
     180A      6.321728   181A      6.445754   182A      6.568478  
     183A      6.668270   184A      6.728693   185A      7.054421  
     186A      7.062762   187A      7.150606   188A      7.170999  
     189A      7.205951   190A      7.254098   191A      7.284311  
     192A      7.296043   193A      7.403966   194A      7.437465  
     195A      7.525064   196A      7.555091   197A      7.682959  
     198A      7.755457   199A      8.020543   200A      8.025902  
     201A     12.505840   202A     12.966601   203A     13.274784  
     204A     13.738746  

    Final Occupation by Irrep:
              A 
    DOCC [    17 ]

  Energy converged.

  @DF-RHF Final Energy:  -229.02832326665092

   => Energetics <=

    Nuclear Repulsion Energy =            134.6605899570245981
    One-Electron Energy =                -580.5400617661674687
    Two-Electron Energy =                 216.8511485424919840
    DFT Exchange-Correlation Energy =       0.0000000000000000
    Empirical Dispersion Energy =           0.0000000000000000
    PCM Polarization Energy =               0.0000000000000000
    EFP Energy =                            0.0000000000000000
    Total Energy =                       -229.0283232666508582


  Saving occupied orbitals to File 180.

*** tstop() called on cx1-27-1-2 at Sat Sep 10 15:51:38 2016
Module time:
	user time   =       8.35 seconds =       0.14 minutes
	system time =       0.26 seconds =       0.00 minutes
	total time  =          2 seconds =       0.03 minutes
Total time:
	user time   =       8.35 seconds =       0.14 minutes
	system time =       0.26 seconds =       0.00 minutes
	total time  =          2 seconds =       0.03 minutes


Properties will be evaluated at   0.000000,   0.000000,   0.000000 Bohr

Properties computed using the SCF density matrix

  Nuclear Dipole Moment: (a.u.)
     X:     1.2036      Y:     2.1736      Z:    -0.3495

  Electronic Dipole Moment: (a.u.)
     X:    -0.2440      Y:    -1.7903      Z:     0.0681

  Dipole Moment: (a.u.)
     X:     0.9597      Y:     0.3832      Z:    -0.2814     Total:     1.0710

  Dipole Moment: (Debye)
     X:     2.4393      Y:     0.9741      Z:    -0.7152     Total:     2.7222


*** tstart() called on cx1-27-1-2
*** at Sat Sep 10 15:51:38 2016


         ------------------------------------------------------------
                                   SCF GRAD                          
                          Rob Parrish, Justin Turney,                
                       Andy Simmonett, and Alex Sokolov              
         ------------------------------------------------------------

  ==> Geometry <==

    Molecular point group: c1
    Full point group: C1

    Geometry (in Angstrom), charge = 0, multiplicity = 1:

       Center              X                  Y                   Z               Mass       
    ------------   -----------------  -----------------  -----------------  -----------------
           H          2.189158049360    -0.629654079443    -0.205328651123     1.007825032070
           O          1.353993049360    -0.529962079443     0.212051348877    15.994914619560
           C          0.698762049360     0.619042920557    -0.262852651123    12.000000000000
           C         -0.714525950640     0.587802920557     0.269566348877    12.000000000000
           H          0.677265049360     0.626621920557    -1.348396651123     1.007825032070
           H          1.198332049360     1.520977920557     0.081125348877     1.007825032070
           O         -1.423087950640    -0.521889079443    -0.193593651123    15.994914619560
           H         -1.246208950640     1.468649920557    -0.065669651123     1.007825032070
           H         -0.686514950640     0.604209920557     1.356072348877     1.007825032070
           H         -0.847746950640    -1.266871079443    -0.190678651123     1.007825032070

  Nuclear repulsion =  134.660589957024598

  ==> Basis Set <==

  Basis Set: CC-PVTZ
    Number of shells: 76
    Number of basis function: 204
    Number of Cartesian functions: 230
    Spherical Harmonics?: true
    Max angular momentum: 3

  ==> DFJKGrad: Density-Fitted SCF Gradients <==

    Gradient:                    1
    J tasked:                  Yes
    K tasked:                  Yes
    wK tasked:                  No
    OpenMP threads:              4
    Integrals threads:           4
    Memory (MB):              1430
    Schwarz Cutoff:          0E+00
    Fitting Condition:       1E-12

   => Auxiliary Basis Set <=

  Basis Set: 
    Number of shells: 160
    Number of basis function: 496
    Number of Cartesian functions: 594
    Spherical Harmonics?: true
    Max angular momentum: 4


  -Total Gradient:
     Atom            X                  Y                   Z
    ------   -----------------  -----------------  -----------------
       1       -0.000199425417    -0.000027087541    -0.000011610727
       2        0.000247855110     0.000411812860     0.000834813447
       3        0.000112133522    -0.001182948364    -0.000771385215
       4        0.000453853722    -0.000361322351     0.000050532629
       5       -0.000196935581    -0.000137075395     0.000244755345
       6        0.000095863448     0.000200746821     0.000157752253
       7       -0.000884290195     0.000381902815     0.002054985995
       8       -0.000264102397    -0.000721508302    -0.000297342661
       9       -0.000167350661     0.000573230743     0.000121000288
      10        0.000802398449     0.000862248714    -0.002383501352


*** tstop() called on cx1-27-1-2 at Sat Sep 10 15:51:40 2016
Module time:
	user time   =       8.22 seconds =       0.14 minutes
	system time =       0.28 seconds =       0.00 minutes
	total time  =          2 seconds =       0.03 minutes
Total time:
	user time   =      16.62 seconds =       0.28 minutes
	system time =       0.54 seconds =       0.01 minutes
	total time  =          4 seconds =       0.07 minutes

			-----------------------------------------
			 OPTKING 2.0: for geometry optimizations 
			  - R.A. King,  Bethel University        
			-----------------------------------------

	Internal coordinates to be generated automatically.
	Detected frag 1 with atoms:  1 2 3 4 5 6 7 8 9 10
	---Fragment 1 Bond Connectivity---
	 1 : 2
	 2 : 1 3
	 3 : 2 4 5 6
	 4 : 3 7 8 9
	 5 : 3
	 6 : 3
	 7 : 4 10
	 8 : 4
	 9 : 4
	 10 : 7

	Assuming in current code that numbering for constraints corresponds to unified fragment.
	Frozen dihedral atom list: 
	    10     7     4     3
	---Fragment 1 Geometry and Gradient---
	 H           4.1369091749       -1.1898737686       -0.3880149179
	 O           2.5586760491       -1.0014831910        0.4007189755
	 C           1.3204689053        1.1698215844       -0.4967195239
	 C          -1.3502583615        1.1107865400        0.5094065740
	 H           1.2798454627        1.1841438187       -2.5481003891
	 H           2.2645193896        2.8742317240        0.1533046918
	 O          -2.6892464897       -0.9862274319       -0.3658389817
	 H          -2.3549936211        2.7753461349       -0.1240976559
	 H          -1.2973252428        1.1417912766        2.5626053558
	 H          -1.6020095667       -2.3940393858       -0.3603304300
	            -0.0001994254       -0.0000270875       -0.0000116107
	             0.0002478551        0.0004118129        0.0008348134
	             0.0001121335       -0.0011829484       -0.0007713852
	             0.0004538537       -0.0003613224        0.0000505326
	            -0.0001969356       -0.0001370754        0.0002447553
	             0.0000958634        0.0002007468        0.0001577523
	            -0.0008842902        0.0003819028        0.0020549860
	            -0.0002641024       -0.0007215083       -0.0002973427
	            -0.0001673507        0.0005732307        0.0001210003
	             0.0008023984        0.0008622487       -0.0023835014

	Previous optimization step data not found.  Starting new optimization.

	---Fragment 1 Intrafragment Coordinates---
	 - Coordinate -           - BOHR/RAD -       - ANG/DEG -
	 R(1,2)           =         1.774376	       0.938960
	 R(2,3)           =         2.655771	       1.405373
	 R(3,4)           =         2.854568	       1.510572
	 R(3,5)           =         2.051833	       1.085783
	 R(3,6)           =         2.053966	       1.086912
	 R(4,7)           =         2.637501	       1.395705
	 R(4,8)           =         2.044891	       1.082110
	 R(4,9)           =         2.054115	       1.086991
	 R(7,10)          =         1.778777	       0.941288
	 B(1,2,3)         =         1.929744	     110.566185
	 B(2,3,4)         =         1.875692	     107.469257
	 B(2,3,5)         =         1.931340	     110.657653
	 B(2,3,6)         =         1.936071	     110.928676
	 B(3,4,7)         =         1.954608	     111.990780
	 B(3,4,8)         =         1.910990	     109.491639
	 B(3,4,9)         =         1.904858	     109.140314
	 B(4,3,5)         =         1.911346	     109.512038
	 B(4,3,6)         =         1.913080	     109.611411
	 B(4,7,10)        =         1.894343	     108.537856
	 B(5,3,6)         =         1.896220	     108.645423
	 B(7,4,8)         =         1.870203	     107.154766
	 B(7,4,9)         =         1.935617	     110.902683
	 B(8,4,9)         =         1.886026	     108.061352
	 D(1,2,3,4)       =         2.978257	     170.641537
	 D(1,2,3,5)       =         0.892078	      51.112295
	 D(1,2,3,6)       =        -1.213904	     -69.551588
	 D(2,3,4,7)       =        -1.084178	     -62.118827
	 D(2,3,4,8)       =         3.127127	     179.171198
	 D(2,3,4,9)       =         1.065935	      61.073581
	*D(3,4,7,10)      =         0.698132	      39.999999
	 D(5,3,4,7)       =         1.014719	      58.139093
	 D(5,3,4,8)       =        -1.057161	     -60.570882
	 D(5,3,4,9)       =        -3.118354	    -178.668499
	 D(6,3,4,7)       =         3.093408	     177.239223
	 D(6,3,4,8)       =         1.021528	      58.529248
	 D(6,3,4,9)       =        -1.039664	     -59.568369
	 D(8,4,7,10)      =         2.793988	     160.083721
	 D(9,4,7,10)      =        -1.434516	     -82.191723

	Current energy   :      -229.0283232667

	Generating empirical Hessian (Schlegel '84) for each fragment.
	Taking RFO optimization step.
	Going to follow RFO solution 1.
	Using RFO vector 1.
	Norm of target step-size    0.21159
	Projected energy change by RFO approximation:        -0.0010933432

	Back-transformation to cartesian coordinates...
	Could not converge backtransformation.
	Using first guess instead.

	Back-transformation to cartesian coordinates to adjust frozen coordinates...
	Successfully converged to displaced geometry.

	--- Internal Coordinate Step in ANG or DEG, aJ/ANG or AJ/DEG ---
	 ---------------------------------------------------------------------------
	   Coordinate                Previous        Force       Change         New 
	   ----------                --------       ------       ------       ------
	    1 R(1,2)          =      0.938960     0.001395     0.000341     0.939301
	    2 R(2,3)          =      1.405373     0.000114     0.001234     1.406607
	    3 R(3,4)          =      1.510572     0.000986     0.000366     1.510938
	    4 R(3,5)          =      1.085783     0.001992     0.001319     1.087102
	    5 R(3,6)          =      1.086912    -0.002147     0.000584     1.087496
	    6 R(4,7)          =      1.395705     0.006909     0.001723     1.397429
	    7 R(4,8)          =      1.082110     0.003011     0.000759     1.082869
	    8 R(4,9)          =      1.086991    -0.001032     0.000000     1.086991
	    9 R(7,10)         =      0.941288     0.001642     0.000891     0.942180
	   10 B(1,2,3)        =    110.566185     0.000002    -0.063907   110.502277
	   11 B(2,3,4)        =    107.469257     0.000029     0.074936   107.544192
	   12 B(2,3,5)        =    110.657653    -0.000038    -0.284423   110.373230
	   13 B(2,3,6)        =    110.928676     0.000015     0.266087   111.194764
	   14 B(3,4,7)        =    111.990780     0.000046     0.120125   112.110905
	   15 B(3,4,8)        =    109.491639    -0.000032     0.243195   109.734835
	   16 B(3,4,9)        =    109.140314    -0.000019    -0.502038   108.638275
	   17 B(4,3,5)        =    109.512038     0.000006    -0.047297   109.464741
	   18 B(4,3,6)        =    109.611411    -0.000006     0.093305   109.704716
	   19 B(4,7,10)       =    108.537856     0.000034     0.186415   108.724271
	   20 B(5,3,6)        =    108.645423    -0.000007    -0.101663   108.543761
	   21 B(7,4,8)        =    107.154766     0.000064     0.894243   108.049010
	   22 B(7,4,9)        =    110.902683    -0.000070    -0.761797   110.140886
	   23 B(8,4,9)        =    108.061352     0.000012     0.026058   108.087410
	   24 D(1,2,3,4)      =    170.641537    -0.000000     0.591565   171.233101
	   25 D(1,2,3,5)      =     51.112295    -0.000001     0.766439    51.878734
	   26 D(1,2,3,6)      =    -69.551588     0.000004     0.908428   -68.643161
	   27 D(2,3,4,7)      =    -62.118827     0.000021     5.019756   -57.099071
	   28 D(2,3,4,8)      =    179.171198     0.000001     3.660842   182.832039
	   29 D(2,3,4,9)      =     61.073581     0.000005     3.783087    64.856668
	   30 *D(3,4,7,10)    =     39.999999     0.000000     0.000000    39.999999
	   31 D(5,3,4,7)      =     58.139093     0.000015     4.694697    62.833790
	   32 D(5,3,4,8)      =    -60.570882    -0.000005     3.335783   -57.235099
	   33 D(5,3,4,9)      =   -178.668499    -0.000001     3.458029  -175.210470
	   34 D(6,3,4,7)      =    177.239223     0.000014     4.598200   181.837423
	   35 D(6,3,4,8)      =     58.529248    -0.000006     3.239286    61.768534
	   36 D(6,3,4,9)      =    -59.568369    -0.000003     3.361532   -56.206837
	   37 D(8,4,7,10)     =    160.083721     0.000007     0.962389   161.046110
	   38 D(9,4,7,10)     =    -82.191723     0.000010     1.098181   -81.093542
	 ---------------------------------------------------------------------------
	Successfully symmetrized geometry.

  ==> Convergence Check <==

  Measures of convergence in internal coordinates in au.
  Criteria marked as inactive (o), active & met (*), and active & unmet ( ).
  --------------------------------------------------------------------------------------------- ~
   Step     Total Energy     Delta E     MAX Force     RMS Force      MAX Disp      RMS Disp    ~
  --------------------------------------------------------------------------------------------- ~
    Convergence Criteria    1.00e-06 *    3.00e-04 *             o    1.20e-03 *             o  ~
  --------------------------------------------------------------------------------------------- ~
      1    -229.02832327   -2.29e+02      1.21e-03      4.46e-04 o    8.76e-02      3.43e-02 o  ~
  ---------------------------------------------------------------------------------------------

	Writing optimization data to binary file.
	Structure for next step:
	Cartesian Geometry (in Angstrom)
	    H     2.1761994903  -0.6421518402  -0.2305625583
	    O     1.3330868121  -0.5540961318   0.1740281622
	    C     0.7006718490   0.6260980454  -0.2569434053
	    C    -0.7206319314   0.5941673017   0.2547309943
	    H     0.6937024610   0.6768899844  -1.3428356878
	    H     1.2089845135   1.5073791068   0.1272558639
	    O    -1.4095000675  -0.5426319501  -0.1764939438
	    H    -1.2565384938   1.4658041135  -0.0997519992
	    H    -0.6996881680   0.6295335586   1.3409445075
	    H    -0.8268609716  -1.2820629828  -0.1380764448
			--------------------------
			 OPTKING Finished Execution 
			--------------------------

    Structure for next step:
    Molecular point group: c1
    Full point group: C1

    Geometry (in Angstrom), charge = 0, multiplicity = 1:

    H            2.178711000214    -0.633688072220    -0.223926182091
    O            1.335598322019    -0.545632363766     0.180664538442
    C            0.703183358907     0.634561813341    -0.250307029103
    C           -0.718120421516     0.602631069638     0.261367370544
    H            0.696213970890     0.685353752386    -1.336199311561
    H            1.211496023387     1.515842874826     0.133892240139
    O           -1.406988557594    -0.534168182087    -0.169857567539
    H           -1.254026983902     1.474267881518    -0.093115622942
    H           -0.697176658108     0.637997326597     1.347580883685
    H           -0.824349461747    -1.273599214798    -0.131440068613

gradient() will perform analytic gradient computation.

*** tstart() called on cx1-27-1-2
*** at Sat Sep 10 15:51:41 2016


         ---------------------------------------------------------
                                   SCF
            by Justin Turney, Rob Parrish, and Andy Simmonett
                              RHF Reference
                        4 Threads,   2000 MiB Core
         ---------------------------------------------------------

  ==> Geometry <==

    Molecular point group: c1
    Full point group: C1

    Geometry (in Angstrom), charge = 0, multiplicity = 1:

       Center              X                  Y                   Z               Mass       
    ------------   -----------------  -----------------  -----------------  -----------------
           H          2.178711000214    -0.633688072220    -0.223926182091     1.007825032070
           O          1.335598322019    -0.545632363766     0.180664538442    15.994914619560
           C          0.703183358907     0.634561813341    -0.250307029103    12.000000000000
           C         -0.718120421516     0.602631069638     0.261367370544    12.000000000000
           H          0.696213970890     0.685353752386    -1.336199311561     1.007825032070
           H          1.211496023387     1.515842874826     0.133892240139     1.007825032070
           O         -1.406988557594    -0.534168182087    -0.169857567539    15.994914619560
           H         -1.254026983902     1.474267881518    -0.093115622942     1.007825032070
           H         -0.697176658108     0.637997326597     1.347580883685     1.007825032070
           H         -0.824349461747    -1.273599214798    -0.131440068613     1.007825032070

  Running in c1 symmetry.

  Rotational constants: A =      0.52352  B =      0.19133  C =      0.15638 [cm^-1]
  Rotational constants: A =  15694.85357  B =   5735.91277  C =   4688.14740 [MHz]
  Nuclear repulsion =  134.751505950395796

  Charge       = 0
  Multiplicity = 1
  Electrons    = 34
  Nalpha       = 17
  Nbeta        = 17

  ==> Algorithm <==

  SCF Algorithm Type is DF.
  DIIS enabled.
  MOM disabled.
  Fractional occupation disabled.
  Guess Type is READ.
  Energy threshold   = 1.00e-08
  Density threshold  = 1.00e-08
  Integral threshold = 0.00e+00

  ==> Primary Basis <==

  Basis Set: CC-PVTZ
    Number of shells: 76
    Number of basis function: 204
    Number of Cartesian functions: 230
    Spherical Harmonics?: true
    Max angular momentum: 3

  ==> Pre-Iterations <==

   -------------------------------------------------------
    Irrep   Nso     Nmo     Nalpha   Nbeta   Ndocc  Nsocc
   -------------------------------------------------------
     A        204     204       0       0       0       0
   -------------------------------------------------------
    Total     204     204      17      17      17       0
   -------------------------------------------------------

  ==> Integral Setup <==

  ==> DFJK: Density-Fitted J/K Matrices <==

    J tasked:                  Yes
    K tasked:                  Yes
    wK tasked:                  No
    OpenMP threads:              4
    Integrals threads:           4
    Memory (MB):              1430
    Algorithm:                Core
    Integral Cache:           NONE
    Schwarz Cutoff:          1E-12
    Fitting Condition:       1E-12

   => Auxiliary Basis Set <=

  Basis Set: 
    Number of shells: 160
    Number of basis function: 496
    Number of Cartesian functions: 594
    Spherical Harmonics?: true
    Max angular momentum: 4

  Minimum eigenvalue in the overlap matrix is 8.1757091636E-04.
  Using Symmetric Orthogonalization.
  SCF Guess: Reading in previously saved MOs, projecting if necessary.

  Using orbitals from previous SCF, no projection.
  Recomputing DOCC and SOCC from number of alpha and beta electrons from previous calculation.
              A 
    DOCC [    17 ]

  ==> Iterations <==

                           Total Energy        Delta E     RMS |[F,P]|

   @DF-RHF iter   0:  -229.02323567514722   -2.29023e+02   3.98709e-04 
   @DF-RHF iter   1:  -229.02816676013518   -4.93108e-03   6.70429e-05 
   @DF-RHF iter   2:  -229.02833069242567   -1.63932e-04   2.37212e-05 DIIS
   @DF-RHF iter   3:  -229.02835726267014   -2.65702e-05   6.66059e-06 DIIS
   @DF-RHF iter   4:  -229.02835861890449   -1.35623e-06   2.07300e-06 DIIS
   @DF-RHF iter   5:  -229.02835881237027   -1.93466e-07   7.14443e-07 DIIS
   @DF-RHF iter   6:  -229.02835883378035   -2.14101e-08   2.47212e-07 DIIS
   @DF-RHF iter   7:  -229.02835883609757   -2.31722e-09   5.42069e-08 DIIS
   @DF-RHF iter   8:  -229.02835883623587   -1.38300e-10   1.16756e-08 DIIS
   @DF-RHF iter   9:  -229.02835883624405   -8.18545e-12   2.26784e-09 DIIS

  ==> Post-Iterations <==

    Orbital Energies (a.u.)
    -----------------------

    Doubly Occupied:                                                      

       1A    -20.564070     2A    -20.540706     3A    -11.277014  
       4A    -11.267000     5A     -1.387535     6A     -1.354073  
       7A     -1.004715     8A     -0.846414     9A     -0.730823  
      10A     -0.677549    11A     -0.657829    12A     -0.605724  
      13A     -0.577362    14A     -0.539828    15A     -0.489563  
      16A     -0.459074    17A     -0.435238  

    Virtual:                                                              

      18A      0.134208    19A      0.166134    20A      0.189804  
      21A      0.200592    22A      0.214332    23A      0.240275  
      24A      0.309568    25A      0.318699    26A      0.339586  
      27A      0.399229    28A      0.497061    29A      0.521525  
      30A      0.539426    31A      0.551667    32A      0.572297  
      33A      0.591941    34A      0.603172    35A      0.637396  
      36A      0.642906    37A      0.653979    38A      0.668272  
      39A      0.714140    40A      0.728328    41A      0.750926  
      42A      0.777784    43A      0.799503    44A      0.844662  
      45A      0.859717    46A      0.884789    47A      0.920808  
      48A      0.933011    49A      0.963816    50A      1.016361  
      51A      1.039692    52A      1.088885    53A      1.157134  
      54A      1.170195    55A      1.238770    56A      1.247683  
      57A      1.274431    58A      1.284925    59A      1.310523  
      60A      1.329731    61A      1.346467    62A      1.373691  
      63A      1.391754    64A      1.448395    65A      1.470740  
      66A      1.485199    67A      1.519082    68A      1.535604  
      69A      1.552459    70A      1.600173    71A      1.628175  
      72A      1.653218    73A      1.756464    74A      1.771751  
      75A      1.800544    76A      1.960085    77A      2.111731  
      78A      2.130785    79A      2.191452    80A      2.251658  
      81A      2.291528    82A      2.304558    83A      2.334309  
      84A      2.360631    85A      2.392958    86A      2.462329  
      87A      2.609166    88A      2.625037    89A      2.663753  
      90A      2.722602    91A      2.750903    92A      2.798982  
      93A      2.824159    94A      2.915911    95A      3.028241  
      96A      3.030494    97A      3.071868    98A      3.165070  
      99A      3.197434   100A      3.236012   101A      3.247603  
     102A      3.263679   103A      3.286015   104A      3.297791  
     105A      3.324795   106A      3.354308   107A      3.374016  
     108A      3.411617   109A      3.428666   110A      3.451569  
     111A      3.473028   112A      3.474330   113A      3.514420  
     114A      3.571789   115A      3.644211   116A      3.703164  
     117A      3.716990   118A      3.738550   119A      3.755986  
     120A      3.788201   121A      3.816004   122A      3.822066  
     123A      3.841782   124A      3.872651   125A      3.939731  
     126A      3.966273   127A      3.980950   128A      4.027385  
     129A      4.042206   130A      4.093678   131A      4.151127  
     132A      4.172981   133A      4.183160   134A      4.193291  
     135A      4.239058   136A      4.261978   137A      4.285230  
     138A      4.300725   139A      4.332220   140A      4.349628  
     141A      4.371018   142A      4.414077   143A      4.434872  
     144A      4.467404   145A      4.490158   146A      4.529304  
     147A      4.570865   148A      4.596642   149A      4.658856  
     150A      4.701626   151A      4.707558   152A      4.764145  
     153A      4.805820   154A      4.854440   155A      4.900206  
     156A      5.024506   157A      5.110343   158A      5.124421  
     159A      5.166514   160A      5.198764   161A      5.228892  
     162A      5.242180   163A      5.284427   164A      5.294456  
     165A      5.379170   166A      5.417572   167A      5.453257  
     168A      5.563903   169A      5.686712   170A      5.730381  
     171A      5.747829   172A      5.811398   173A      5.869280  
     174A      5.940298   175A      5.978058   176A      6.082487  
     177A      6.196206   178A      6.209322   179A      6.249762  
     180A      6.326080   181A      6.449060   182A      6.554040  
     183A      6.665262   184A      6.730166   185A      7.054121  
     186A      7.067756   187A      7.151366   188A      7.171208  
     189A      7.207828   190A      7.244811   191A      7.284532  
     192A      7.298273   193A      7.406380   194A      7.437362  
     195A      7.520301   196A      7.559946   197A      7.694025  
     198A      7.751345   199A      8.014128   200A      8.024120  
     201A     12.521818   202A     12.935326   203A     13.224516  
     204A     13.725122  

    Final Occupation by Irrep:
              A 
    DOCC [    17 ]

  Energy converged.

  @DF-RHF Final Energy:  -229.02835883624405

   => Energetics <=

    Nuclear Repulsion Energy =            134.7515059503957957
    One-Electron Energy =                -580.7306972847770794
    Two-Electron Energy =                 216.9508324981372311
    DFT Exchange-Correlation Energy =       0.0000000000000000
    Empirical Dispersion Energy =           0.0000000000000000
    PCM Polarization Energy =               0.0000000000000000
    EFP Energy =                            0.0000000000000000
    Total Energy =                       -229.0283588362440810


  Saving occupied orbitals to File 180.

*** tstop() called on cx1-27-1-2 at Sat Sep 10 15:51:43 2016
Module time:
	user time   =       6.62 seconds =       0.11 minutes
	system time =       0.16 seconds =       0.00 minutes
	total time  =          2 seconds =       0.03 minutes
Total time:
	user time   =      25.22 seconds =       0.42 minutes
	system time =       0.77 seconds =       0.01 minutes
	total time  =          7 seconds =       0.12 minutes


Properties will be evaluated at   0.000000,   0.000000,   0.000000 Bohr

Properties computed using the SCF density matrix

  Nuclear Dipole Moment: (a.u.)
     X:     1.2286      Y:     2.2505      Z:    -0.2842

  Electronic Dipole Moment: (a.u.)
     X:    -0.2532      Y:    -1.8328      Z:     0.0370

  Dipole Moment: (a.u.)
     X:     0.9754      Y:     0.4178      Z:    -0.2472     Total:     1.0895

  Dipole Moment: (Debye)
     X:     2.4791      Y:     1.0619      Z:    -0.6282     Total:     2.7691


*** tstart() called on cx1-27-1-2
*** at Sat Sep 10 15:51:43 2016


         ------------------------------------------------------------
                                   SCF GRAD                          
                          Rob Parrish, Justin Turney,                
                       Andy Simmonett, and Alex Sokolov              
         ------------------------------------------------------------

  ==> Geometry <==

    Molecular point group: c1
    Full point group: C1

    Geometry (in Angstrom), charge = 0, multiplicity = 1:

       Center              X                  Y                   Z               Mass       
    ------------   -----------------  -----------------  -----------------  -----------------
           H          2.178711000214    -0.633688072220    -0.223926182091     1.007825032070
           O          1.335598322019    -0.545632363766     0.180664538442    15.994914619560
           C          0.703183358907     0.634561813341    -0.250307029103    12.000000000000
           C         -0.718120421516     0.602631069638     0.261367370544    12.000000000000
           H          0.696213970890     0.685353752386    -1.336199311561     1.007825032070
           H          1.211496023387     1.515842874826     0.133892240139     1.007825032070
           O         -1.406988557594    -0.534168182087    -0.169857567539    15.994914619560
           H         -1.254026983902     1.474267881518    -0.093115622942     1.007825032070
           H         -0.697176658108     0.637997326597     1.347580883685     1.007825032070
           H         -0.824349461747    -1.273599214798    -0.131440068613     1.007825032070

  Nuclear repulsion =  134.751505950395796

  ==> Basis Set <==

  Basis Set: CC-PVTZ
    Number of shells: 76
    Number of basis function: 204
    Number of Cartesian functions: 230
    Spherical Harmonics?: true
    Max angular momentum: 3

  ==> DFJKGrad: Density-Fitted SCF Gradients <==

    Gradient:                    1
    J tasked:                  Yes
    K tasked:                  Yes
    wK tasked:                  No
    OpenMP threads:              4
    Integrals threads:           4
    Memory (MB):              1430
    Schwarz Cutoff:          0E+00
    Fitting Condition:       1E-12

   => Auxiliary Basis Set <=

  Basis Set: 
    Number of shells: 160
    Number of basis function: 496
    Number of Cartesian functions: 594
    Spherical Harmonics?: true
    Max angular momentum: 4


  -Total Gradient:
     Atom            X                  Y                   Z
    ------   -----------------  -----------------  -----------------
       1        0.000277937459    -0.000033061806    -0.000190945963
       2        0.000089618108    -0.001393324225    -0.000050341179
       3        0.000076183391    -0.000121810765     0.003298007459
       4       -0.000671750633     0.003301255761    -0.004276199023
       5       -0.000510701378    -0.000015905514    -0.000461384733
       6        0.000384866031     0.000795746654     0.000059879003
       7       -0.000646616864    -0.002010459868     0.003682402515
       8       -0.000013559368     0.000851924394     0.000299117935
       9        0.000367146117    -0.000544903752    -0.000264434686
      10        0.000646877141    -0.000829460881    -0.002096101329


*** tstop() called on cx1-27-1-2 at Sat Sep 10 15:51:46 2016
Module time:
	user time   =       8.14 seconds =       0.14 minutes
	system time =       0.30 seconds =       0.01 minutes
	total time  =          3 seconds =       0.05 minutes
Total time:
	user time   =      33.40 seconds =       0.56 minutes
	system time =       1.07 seconds =       0.02 minutes
	total time  =         10 seconds =       0.17 minutes

			-----------------------------------------
			 OPTKING 2.0: for geometry optimizations 
			  - R.A. King,  Bethel University        
			-----------------------------------------

	Previous internal coordinate definitions found.
	---Fragment 1 Geometry and Gradient---
	 H           4.1171671131       -1.1974969102       -0.4231591581
	 O           2.5239150522       -1.0310957368        0.3414064996
	 C           1.3288239695        1.1991480416       -0.4730117341
	 C          -1.3570509271        1.1388076808        0.4939127504
	 H           1.3156537349        1.2951308962       -2.5250507578
	 H           2.2893956953        2.8645278939        0.2530196652
	 O          -2.6588230460       -1.0094315730       -0.3209842842
	 H          -2.3697675628        2.7859625426       -0.1759630261
	 H          -1.3174729501        1.2056402208        2.5465588121
	 H          -1.5577947205       -2.4067537190       -0.2483857326
	             0.0002779375       -0.0000330618       -0.0001909460
	             0.0000896181       -0.0013933242       -0.0000503412
	             0.0000761834       -0.0001218108        0.0032980075
	            -0.0006717506        0.0033012558       -0.0042761990
	            -0.0005107014       -0.0000159055       -0.0004613847
	             0.0003848660        0.0007957467        0.0000598790
	            -0.0006466169       -0.0020104599        0.0036824025
	            -0.0000135594        0.0008519244        0.0002991179
	             0.0003671461       -0.0005449038       -0.0002644347
	             0.0006468771       -0.0008294609       -0.0020961013

	---Fragment 1 Intrafragment Coordinates---
	 - Coordinate -           - BOHR/RAD -       - ANG/DEG -
	 R(1,2)           =         1.775022	       0.939301
	 R(2,3)           =         2.658102	       1.406607
	 R(3,4)           =         2.855260	       1.510938
	 R(3,5)           =         2.054325	       1.087102
	 R(3,6)           =         2.055069	       1.087496
	 R(4,7)           =         2.640757	       1.397429
	 R(4,8)           =         2.046325	       1.082869
	 R(4,9)           =         2.054115	       1.086991
	 R(7,10)          =         1.780461	       0.942180
	 B(1,2,3)         =         1.928629	     110.502277
	 B(2,3,4)         =         1.877000	     107.544192
	 B(2,3,5)         =         1.926376	     110.373230
	 B(2,3,6)         =         1.940715	     111.194764
	 B(3,4,7)         =         1.956704	     112.110905
	 B(3,4,8)         =         1.915234	     109.734835
	 B(3,4,9)         =         1.896096	     108.638275
	 B(4,3,5)         =         1.910520	     109.464741
	 B(4,3,6)         =         1.914708	     109.704716
	 B(4,7,10)        =         1.897597	     108.724271
	 B(5,3,6)         =         1.894446	     108.543761
	 B(7,4,8)         =         1.885811	     108.049010
	 B(7,4,9)         =         1.922321	     110.140886
	 B(8,4,9)         =         1.886481	     108.087410
	 D(1,2,3,4)       =         2.988581	     171.233101
	 D(1,2,3,5)       =         0.905455	      51.878734
	 D(1,2,3,6)       =        -1.198049	     -68.643161
	 D(2,3,4,7)       =        -0.996567	     -57.099071
	 D(2,3,4,8)       =        -3.092164	    -177.167961
	 D(2,3,4,9)       =         1.131962	      64.856668
	*D(3,4,7,10)      =         0.698132	      39.999999
	 D(5,3,4,7)       =         1.096657	      62.833790
	 D(5,3,4,8)       =        -0.998941	     -57.235099
	 D(5,3,4,9)       =        -3.058000	    -175.210470
	 D(6,3,4,7)       =        -3.109524	    -178.162577
	 D(6,3,4,8)       =         1.078064	      61.768534
	 D(6,3,4,9)       =        -0.980994	     -56.206837
	 D(8,4,7,10)      =         2.810785	     161.046110
	 D(9,4,7,10)      =        -1.415349	     -81.093542

	Current energy   :      -229.0283588362

	Energy change for the previous step:
		Projected    :        -0.0010933432
		Actual       :        -0.0000355696
	Energy ratio indicates iffy step: Trust radius decreased to 1.250e-01.


	Performing BFGS update.
	Previous computed or guess Hessian on step 1.
	Steps to be used in Hessian update: 1
	Taking RFO optimization step.
	Going to follow RFO solution 1.
	Using RFO vector 1.
	Norm of target step-size    0.06570
	Projected energy change by RFO approximation:        -0.0002310457

	Back-transformation to cartesian coordinates...
	Could not converge backtransformation.
	Using first guess instead.

	Back-transformation to cartesian coordinates to adjust frozen coordinates...
	Successfully converged to displaced geometry.

	--- Internal Coordinate Step in ANG or DEG, aJ/ANG or AJ/DEG ---
	 ---------------------------------------------------------------------------
	   Coordinate                Previous        Force       Change         New 
	   ----------                --------       ------       ------       ------
	    1 R(1,2)          =      0.939301    -0.002759    -0.000238     0.939063
	    2 R(2,3)          =      1.406607    -0.010612    -0.001229     1.405378
	    3 R(3,4)          =      1.510938     0.005078     0.000578     1.511516
	    4 R(3,5)          =      1.087102    -0.003818    -0.000702     1.086399
	    5 R(3,6)          =      1.087496    -0.006969    -0.001062     1.086433
	    6 R(4,7)          =      1.397429    -0.015000    -0.001365     1.396063
	    7 R(4,8)          =      1.082869    -0.004898    -0.000559     1.082310
	    8 R(4,9)          =      1.086991     0.002265     0.000169     1.087160
	    9 R(7,10)         =      0.942180    -0.007955    -0.000681     0.941498
	   10 B(1,2,3)        =    110.502277     0.000003     0.038502   110.540779
	   11 B(2,3,4)        =    107.544192    -0.000017    -0.022154   107.522038
	   12 B(2,3,5)        =    110.373230     0.000007     0.107919   110.481149
	   13 B(2,3,6)        =    111.194764    -0.000019    -0.217803   110.976960
	   14 B(3,4,7)        =    112.110905    -0.000015    -0.010389   112.100517
	   15 B(3,4,8)        =    109.734835     0.000012    -0.173772   109.561063
	   16 B(3,4,9)        =    108.638275     0.000027     0.295072   108.933348
	   17 B(4,3,5)        =    109.464741     0.000056     0.281192   109.745933
	   18 B(4,3,6)        =    109.704716    -0.000018    -0.140053   109.564663
	   19 B(4,7,10)       =    108.724271    -0.000099    -0.271077   108.453194
	   20 B(5,3,6)        =    108.543761    -0.000007    -0.003791   108.539970
	   21 B(7,4,8)        =    108.049010    -0.000054    -0.411876   107.637133
	   22 B(7,4,9)        =    110.140886     0.000040     0.316052   110.456938
	   23 B(8,4,9)        =    108.087410    -0.000009    -0.024515   108.062896
	   24 D(1,2,3,4)      =    171.233101     0.000009     0.470937   171.704039
	   25 D(1,2,3,5)      =     51.878734    -0.000006     0.081654    51.960387
	   26 D(1,2,3,6)      =    -68.643161    -0.000002     0.158043   -68.485117
	   27 D(2,3,4,7)      =    -57.099071    -0.000018    -1.763498   -58.862569
	   28 D(2,3,4,8)      =   -177.167961    -0.000002    -1.122521  -178.290482
	   29 D(2,3,4,9)      =     64.856668    -0.000005    -1.165664    63.691004
	   30 *D(3,4,7,10)    =     39.999999     0.000000    -0.000000    39.999999
	   31 D(5,3,4,7)      =     62.833790    -0.000011    -1.485922    61.347869
	   32 D(5,3,4,8)      =    -57.235099     0.000005    -0.844945   -58.080044
	   33 D(5,3,4,9)      =   -175.210470     0.000002    -0.888088  -176.098558
	   34 D(6,3,4,7)      =   -178.162577    -0.000008    -1.404994  -179.567571
	   35 D(6,3,4,8)      =     61.768534     0.000008    -0.764017    61.004517
	   36 D(6,3,4,9)      =    -56.206837     0.000005    -0.807160   -57.013998
	   37 D(8,4,7,10)     =    161.046110    -0.000007    -0.496227   160.549882
	   38 D(9,4,7,10)     =    -81.093542    -0.000012    -0.591235   -81.684777
	 ---------------------------------------------------------------------------
	Successfully symmetrized geometry.

  ==> Convergence Check <==

  Measures of convergence in internal coordinates in au.
  Criteria marked as inactive (o), active & met (*), and active & unmet ( ).
  ---------------------------------------------------------------------------------------------
   Step     Total Energy     Delta E     MAX Force     RMS Force      MAX Disp      RMS Disp   
  ---------------------------------------------------------------------------------------------
    Convergence Criteria    1.00e-06 *    3.00e-04 *             o    1.20e-03 *             o
  ---------------------------------------------------------------------------------------------
      2    -229.02835884   -3.56e-05      1.82e-03      6.15e-04 o    3.08e-02      1.07e-02 o  ~
  ---------------------------------------------------------------------------------------------

	Writing optimization data to binary file.
	Structure for next step:
	Cartesian Geometry (in Angstrom)
	    H     2.1858991672  -0.6259215905  -0.2126412512
	    O     1.3420867050  -0.5387779534   0.1901307498
	    C     0.7019130365   0.6306972743  -0.2543819585
	    C    -0.7163705781   0.5994963729   0.2673252145
	    H     0.6928668516   0.6699014991  -1.3400361136
	    H     1.2075288837   1.5168174409   0.1190900256
	    O    -1.4137464117  -0.5264733127  -0.1740956289
	    H    -1.2502953744   1.4737276280  -0.0820140758
	    H    -0.6933334924   0.6304011210   1.3538017187
	    H    -0.8320081948  -1.2663015942  -0.1485194298
			--------------------------
			 OPTKING Finished Execution 
			--------------------------

    Structure for next step:
    Molecular point group: c1
    Full point group: C1

    Geometry (in Angstrom), charge = 0, multiplicity = 1:

    H            2.185879301728    -0.628196281985    -0.214237918197
    O            1.342066839553    -0.541052644899     0.188534082790
    C            0.701893170984     0.628422582788    -0.255978625481
    C           -0.716390443610     0.597221681433     0.265728547489
    H            0.692846986125     0.667626807594    -1.341632780600
    H            1.207509018267     1.514542749442     0.117493358613
    O           -1.413766277203    -0.528748004214    -0.175692295893
    H           -1.250315239860     1.471452936523    -0.083610742781
    H           -0.693353357920     0.628126429505     1.352205051679
    H           -0.832028060288    -1.268576285676    -0.150116096850

gradient() will perform analytic gradient computation.

*** tstart() called on cx1-27-1-2
*** at Sat Sep 10 15:51:46 2016


         ---------------------------------------------------------
                                   SCF
            by Justin Turney, Rob Parrish, and Andy Simmonett
                              RHF Reference
                        4 Threads,   2000 MiB Core
         ---------------------------------------------------------

  ==> Geometry <==

    Molecular point group: c1
    Full point group: C1

    Geometry (in Angstrom), charge = 0, multiplicity = 1:

       Center              X                  Y                   Z               Mass       
    ------------   -----------------  -----------------  -----------------  -----------------
           H          2.185879301728    -0.628196281985    -0.214237918197     1.007825032070
           O          1.342066839553    -0.541052644899     0.188534082790    15.994914619560
           C          0.701893170984     0.628422582788    -0.255978625481    12.000000000000
           C         -0.716390443610     0.597221681433     0.265728547489    12.000000000000
           H          0.692846986125     0.667626807594    -1.341632780600     1.007825032070
           H          1.207509018267     1.514542749442     0.117493358613     1.007825032070
           O         -1.413766277203    -0.528748004214    -0.175692295893    15.994914619560
           H         -1.250315239860     1.471452936523    -0.083610742781     1.007825032070
           H         -0.693353357920     0.628126429505     1.352205051679     1.007825032070
           H         -0.832028060288    -1.268576285676    -0.150116096850     1.007825032070

  Running in c1 symmetry.

  Rotational constants: A =      0.52776  B =      0.18980  C =      0.15617 [cm^-1]
  Rotational constants: A =  15821.89527  B =   5690.07473  C =   4681.85594 [MHz]
  Nuclear repulsion =  134.739650362946207

  Charge       = 0
  Multiplicity = 1
  Electrons    = 34
  Nalpha       = 17
  Nbeta        = 17

  ==> Algorithm <==

  SCF Algorithm Type is DF.
  DIIS enabled.
  MOM disabled.
  Fractional occupation disabled.
  Guess Type is READ.
  Energy threshold   = 1.00e-08
  Density threshold  = 1.00e-08
  Integral threshold = 0.00e+00

  ==> Primary Basis <==

  Basis Set: CC-PVTZ
    Number of shells: 76
    Number of basis function: 204
    Number of Cartesian functions: 230
    Spherical Harmonics?: true
    Max angular momentum: 3

  ==> Pre-Iterations <==

   -------------------------------------------------------
    Irrep   Nso     Nmo     Nalpha   Nbeta   Ndocc  Nsocc
   -------------------------------------------------------
     A        204     204       0       0       0       0
   -------------------------------------------------------
    Total     204     204      17      17      17       0
   -------------------------------------------------------

  ==> Integral Setup <==

  ==> DFJK: Density-Fitted J/K Matrices <==

    J tasked:                  Yes
    K tasked:                  Yes
    wK tasked:                  No
    OpenMP threads:              4
    Integrals threads:           4
    Memory (MB):              1430
    Algorithm:                Core
    Integral Cache:           NONE
    Schwarz Cutoff:          1E-12
    Fitting Condition:       1E-12

   => Auxiliary Basis Set <=

  Basis Set: 
    Number of shells: 160
    Number of basis function: 496
    Number of Cartesian functions: 594
    Spherical Harmonics?: true
    Max angular momentum: 4

  Minimum eigenvalue in the overlap matrix is 8.1324340091E-04.
  Using Symmetric Orthogonalization.
  SCF Guess: Reading in previously saved MOs, projecting if necessary.

  Using orbitals from previous SCF, no projection.
  Recomputing DOCC and SOCC from number of alpha and beta electrons from previous calculation.
              A 
    DOCC [    17 ]

  ==> Iterations <==

                           Total Energy        Delta E     RMS |[F,P]|

   @DF-RHF iter   0:  -229.03009036412087   -2.29030e+02   1.38958e-04 
   @DF-RHF iter   1:  -229.02838601723604    1.70435e-03   2.20596e-05 
   @DF-RHF iter   2:  -229.02840406817077   -1.80509e-05   7.96707e-06 DIIS
   @DF-RHF iter   3:  -229.02840704043828   -2.97227e-06   2.67679e-06 DIIS
   @DF-RHF iter   4:  -229.02840721711729   -1.76679e-07   8.10957e-07 DIIS
   @DF-RHF iter   5:  -229.02840724502639   -2.79091e-08   2.36657e-07 DIIS
   @DF-RHF iter   6:  -229.02840724818870   -3.16231e-09   5.92477e-08 DIIS
   @DF-RHF iter   7:  -229.02840724834735   -1.58650e-10   1.50652e-08 DIIS
   @DF-RHF iter   8:  -229.02840724835656   -9.20863e-12   3.84491e-09 DIIS

  ==> Post-Iterations <==

    Orbital Energies (a.u.)
    -----------------------

    Doubly Occupied:                                                      

       1A    -20.563782     2A    -20.541107     3A    -11.276687  
       4A    -11.266775     5A     -1.387862     6A     -1.355239  
       7A     -1.004446     8A     -0.846928     9A     -0.731132  
      10A     -0.677493    11A     -0.658145    12A     -0.606420  
      13A     -0.577483    14A     -0.540405    15A     -0.489148  
      16A     -0.458840    17A     -0.435887  

    Virtual:                                                              

      18A      0.134211    19A      0.166427    20A      0.189889  
      21A      0.200448    22A      0.214472    23A      0.239718  
      24A      0.310790    25A      0.317646    26A      0.338885  
      27A      0.400002    28A      0.498447    29A      0.522654  
      30A      0.538696    31A      0.551031    32A      0.572916  
      33A      0.592692    34A      0.602976    35A      0.636560  
      36A      0.643575    37A      0.654397    38A      0.668774  
      39A      0.715274    40A      0.728222    41A      0.750971  
      42A      0.776869    43A      0.799171    44A      0.843740  
      45A      0.857470    46A      0.884706    47A      0.920415  
      48A      0.933505    49A      0.964898    50A      1.015647  
      51A      1.040178    52A      1.087231    53A      1.157972  
      54A      1.172284    55A      1.238703    56A      1.248108  
      57A      1.277039    58A      1.284400    59A      1.311126  
      60A      1.331142    61A      1.345129    62A      1.372258  
      63A      1.391066    64A      1.448895    65A      1.469638  
      66A      1.485946    67A      1.521600    68A      1.534888  
      69A      1.552639    70A      1.600843    71A      1.629546  
      72A      1.655149    73A      1.756224    74A      1.772350  
      75A      1.801715    76A      1.959923    77A      2.113117  
      78A      2.128486    79A      2.192068    80A      2.252428  
      81A      2.287106    82A      2.306180    83A      2.333755  
      84A      2.361273    85A      2.393382    86A      2.460921  
      87A      2.614338    88A      2.623001    89A      2.662463  
      90A      2.722054    91A      2.753329    92A      2.796756  
      93A      2.823056    94A      2.915111    95A      3.025995  
      96A      3.032360    97A      3.071545    98A      3.164269  
      99A      3.198138   100A      3.238652   101A      3.249693  
     102A      3.262884   103A      3.285711   104A      3.298163  
     105A      3.323589   106A      3.355023   107A      3.375123  
     108A      3.411161   109A      3.430616   110A      3.451425  
     111A      3.473625   112A      3.475375   113A      3.514849  
     114A      3.573104   115A      3.644766   116A      3.704032  
     117A      3.717713   118A      3.739369   119A      3.757131  
     120A      3.789748   121A      3.817246   122A      3.822413  
     123A      3.843563   124A      3.873984   125A      3.939381  
     126A      3.969076   127A      3.979850   128A      4.028206  
     129A      4.043240   130A      4.097075   131A      4.150767  
     132A      4.170950   133A      4.183942   134A      4.194048  
     135A      4.240452   136A      4.262111   137A      4.285717  
     138A      4.305208   139A      4.330097   140A      4.351019  
     141A      4.370527   142A      4.412449   143A      4.435032  
     144A      4.469363   145A      4.491545   146A      4.530850  
     147A      4.567219   148A      4.598010   149A      4.663127  
     150A      4.704274   151A      4.708292   152A      4.764746  
     153A      4.806902   154A      4.854649   155A      4.901555  
     156A      5.025990   157A      5.110898   158A      5.124966  
     159A      5.168277   160A      5.201982   161A      5.232593  
     162A      5.241071   163A      5.290109   164A      5.293431  
     165A      5.380294   166A      5.419075   167A      5.457473  
     168A      5.564697   169A      5.690085   170A      5.733341  
     171A      5.749993   172A      5.810991   173A      5.871810  
     174A      5.938829   175A      5.979454   176A      6.087980  
     177A      6.196834   178A      6.212546   179A      6.251470  
     180A      6.326017   181A      6.447677   182A      6.561645  
     183A      6.667542   184A      6.729501   185A      7.054375  
     186A      7.066973   187A      7.151530   188A      7.172266  
     189A      7.207208   190A      7.248617   191A      7.285181  
     192A      7.298605   193A      7.406397   194A      7.438542  
     195A      7.522689   196A      7.559552   197A      7.690006  
     198A      7.753375   199A      8.017099   200A      8.025496  
     201A     12.520904   202A     12.951349   203A     13.250175  
     204A     13.730895  

    Final Occupation by Irrep:
              A 
    DOCC [    17 ]

  Energy converged.

  @DF-RHF Final Energy:  -229.02840724835656

   => Energetics <=

    Nuclear Repulsion Energy =            134.7396503629462075
    One-Electron Energy =                -580.7005605203739833
    Two-Electron Energy =                 216.9325029090711610
    DFT Exchange-Correlation Energy =       0.0000000000000000
    Empirical Dispersion Energy =           0.0000000000000000
    PCM Polarization Energy =               0.0000000000000000
    EFP Energy =                            0.0000000000000000
    Total Energy =                       -229.0284072483565865


  Saving occupied orbitals to File 180.

*** tstop() called on cx1-27-1-2 at Sat Sep 10 15:51:48 2016
Module time:
	user time   =       5.73 seconds =       0.10 minutes
	system time =       0.14 seconds =       0.00 minutes
	total time  =          2 seconds =       0.03 minutes
Total time:
	user time   =      40.01 seconds =       0.67 minutes
	system time =       1.24 seconds =       0.02 minutes
	total time  =         12 seconds =       0.20 minutes


Properties will be evaluated at   0.000000,   0.000000,   0.000000 Bohr

Properties computed using the SCF density matrix

  Nuclear Dipole Moment: (a.u.)
     X:     1.2282      Y:     2.2307      Z:    -0.2998

  Electronic Dipole Moment: (a.u.)
     X:    -0.2543      Y:    -1.8219      Z:     0.0446

  Dipole Moment: (a.u.)
     X:     0.9740      Y:     0.4088      Z:    -0.2553     Total:     1.0867

  Dipole Moment: (Debye)
     X:     2.4756      Y:     1.0390      Z:    -0.6489     Total:     2.7621


*** tstart() called on cx1-27-1-2
*** at Sat Sep 10 15:51:48 2016


         ------------------------------------------------------------
                                   SCF GRAD                          
                          Rob Parrish, Justin Turney,                
                       Andy Simmonett, and Alex Sokolov              
         ------------------------------------------------------------

  ==> Geometry <==

    Molecular point group: c1
    Full point group: C1

    Geometry (in Angstrom), charge = 0, multiplicity = 1:

       Center              X                  Y                   Z               Mass       
    ------------   -----------------  -----------------  -----------------  -----------------
           H          2.185879301728    -0.628196281985    -0.214237918197     1.007825032070
           O          1.342066839553    -0.541052644899     0.188534082790    15.994914619560
           C          0.701893170984     0.628422582788    -0.255978625481    12.000000000000
           C         -0.716390443610     0.597221681433     0.265728547489    12.000000000000
           H          0.692846986125     0.667626807594    -1.341632780600     1.007825032070
           H          1.207509018267     1.514542749442     0.117493358613     1.007825032070
           O         -1.413766277203    -0.528748004214    -0.175692295893    15.994914619560
           H         -1.250315239860     1.471452936523    -0.083610742781     1.007825032070
           H         -0.693353357920     0.628126429505     1.352205051679     1.007825032070
           H         -0.832028060288    -1.268576285676    -0.150116096850     1.007825032070

  Nuclear repulsion =  134.739650362946207

  ==> Basis Set <==

  Basis Set: CC-PVTZ
    Number of shells: 76
    Number of basis function: 204
    Number of Cartesian functions: 230
    Spherical Harmonics?: true
    Max angular momentum: 3

  ==> DFJKGrad: Density-Fitted SCF Gradients <==

    Gradient:                    1
    J tasked:                  Yes
    K tasked:                  Yes
    wK tasked:                  No
    OpenMP threads:              4
    Integrals threads:           4
    Memory (MB):              1430
    Schwarz Cutoff:          0E+00
    Fitting Condition:       1E-12

   => Auxiliary Basis Set <=

  Basis Set: 
    Number of shells: 160
    Number of basis function: 496
    Number of Cartesian functions: 594
    Spherical Harmonics?: true
    Max angular momentum: 4


  -Total Gradient:
     Atom            X                  Y                   Z
    ------   -----------------  -----------------  -----------------
       1        0.000011932312     0.000034792912    -0.000039959339
       2        0.000106816642    -0.000046192151     0.000087921793
       3        0.000261829998    -0.000642656782     0.001088823497
       4       -0.000306166017     0.001247089768    -0.002009809968
       5        0.000095351532     0.000009582987    -0.000096394715
       6        0.000093331993    -0.000102137930     0.000018416530
       7       -0.000849981706    -0.000865211224     0.003004878994
       8       -0.000048409116    -0.000079459771    -0.000004788603
       9       -0.000102229972    -0.000043739902     0.000027732246
      10        0.000737524329     0.000487932093    -0.002076820436


*** tstop() called on cx1-27-1-2 at Sat Sep 10 15:51:50 2016
Module time:
	user time   =       8.15 seconds =       0.14 minutes
	system time =       0.31 seconds =       0.01 minutes
	total time  =          2 seconds =       0.03 minutes
Total time:
	user time   =      48.20 seconds =       0.80 minutes
	system time =       1.55 seconds =       0.03 minutes
	total time  =         14 seconds =       0.23 minutes

			-----------------------------------------
			 OPTKING 2.0: for geometry optimizations 
			  - R.A. King,  Bethel University        
			-----------------------------------------

	Previous internal coordinate definitions found.
	---Fragment 1 Geometry and Gradient---
	 H           4.1307132398       -1.1871189306       -0.4048509927
	 O           2.5361387788       -1.0224413223        0.3562777832
	 C           1.3263858677        1.1875465772       -0.4837294980
	 C          -1.3537817426        1.1285854185        0.5021541804
	 H           1.3092910558        1.2616318253       -2.5353185262
	 H           2.2818613475        2.8620710130        0.2220302702
	 O          -2.6716310798       -0.9991889213       -0.3320103229
	 H          -2.3627533831        2.7806430675       -0.1580014056
	 H          -1.3102479598        1.1869869286        2.5552972232
	 H          -1.5723051688       -2.3972617586       -0.2836783112
	             0.0000119323        0.0000347929       -0.0000399593
	             0.0001068166       -0.0000461922        0.0000879218
	             0.0002618300       -0.0006426568        0.0010888235
	            -0.0003061660        0.0012470898       -0.0020098100
	             0.0000953515        0.0000095830       -0.0000963947
	             0.0000933320       -0.0001021379        0.0000184165
	            -0.0008499817       -0.0008652112        0.0030048790
	            -0.0000484091       -0.0000794598       -0.0000047886
	            -0.0001022300       -0.0000437399        0.0000277322
	             0.0007375243        0.0004879321       -0.0020768204

	---Fragment 1 Intrafragment Coordinates---
	 - Coordinate -           - BOHR/RAD -       - ANG/DEG -
	 R(1,2)           =         1.774571	       0.939063
	 R(2,3)           =         2.655779	       1.405378
	 R(3,4)           =         2.856351	       1.511516
	 R(3,5)           =         2.052997	       1.086399
	 R(3,6)           =         2.053062	       1.086433
	 R(4,7)           =         2.638178	       1.396063
	 R(4,8)           =         2.045269	       1.082310
	 R(4,9)           =         2.054435	       1.087160
	 R(7,10)          =         1.779174	       0.941498
	 B(1,2,3)         =         1.929301	     110.540779
	 B(2,3,4)         =         1.876614	     107.522038
	 B(2,3,5)         =         1.928260	     110.481149
	 B(2,3,6)         =         1.936913	     110.976960
	 B(3,4,7)         =         1.956523	     112.100517
	 B(3,4,8)         =         1.912201	     109.561063
	 B(3,4,9)         =         1.901246	     108.933348
	 B(4,3,5)         =         1.915428	     109.745933
	 B(4,3,6)         =         1.912264	     109.564663
	 B(4,7,10)        =         1.892865	     108.453194
	 B(5,3,6)         =         1.894380	     108.539970
	 B(7,4,8)         =         1.878622	     107.637133
	 B(7,4,9)         =         1.927837	     110.456938
	 B(8,4,9)         =         1.886053	     108.062896
	 D(1,2,3,4)       =         2.996801	     171.704039
	 D(1,2,3,5)       =         0.906880	      51.960387
	 D(1,2,3,6)       =        -1.195291	     -68.485117
	 D(2,3,4,7)       =        -1.027346	     -58.862569
	 D(2,3,4,8)       =        -3.111756	    -178.290482
	 D(2,3,4,9)       =         1.111618	      63.691004
	*D(3,4,7,10)      =         0.698132	      39.999999
	 D(5,3,4,7)       =         1.070722	      61.347869
	 D(5,3,4,8)       =        -1.013688	     -58.080044
	 D(5,3,4,9)       =        -3.073500	    -176.098558
	 D(6,3,4,7)       =        -3.134045	    -179.567571
	 D(6,3,4,8)       =         1.064730	      61.004517
	 D(6,3,4,9)       =        -0.995082	     -57.013998
	 D(8,4,7,10)      =         2.802124	     160.549882
	 D(9,4,7,10)      =        -1.425668	     -81.684777

	Current energy   :      -229.0284072484

	Energy change for the previous step:
		Projected    :        -0.0002310457
		Actual       :        -0.0000484121
	Energy ratio indicates iffy step: Trust radius decreased to 3.125e-02.


	Performing BFGS update.
	Previous computed or guess Hessian on step 1.
	Steps to be used in Hessian update: 2 1
	Taking RFO optimization step.
	Going to follow RFO solution 1.
	Using RFO vector 1.
	Norm of target step-size    0.00493
	Projected energy change by RFO approximation:         0.0000001007

	Back-transformation to cartesian coordinates...
	Could not converge backtransformation.
	Using first guess instead.

	Back-transformation to cartesian coordinates to adjust frozen coordinates...
	Successfully converged to displaced geometry.

	--- Internal Coordinate Step in ANG or DEG, aJ/ANG or AJ/DEG ---
	 ---------------------------------------------------------------------------
	   Coordinate                Previous        Force       Change         New 
	   ----------                --------       ------       ------       ------
	    1 R(1,2)          =      0.939063    -0.000203    -0.000024     0.939038
	    2 R(2,3)          =      1.405378    -0.000649    -0.000119     1.405258
	    3 R(3,4)          =      1.511516    -0.001263    -0.000231     1.511285
	    4 R(3,5)          =      1.086399    -0.000790    -0.000150     1.086250
	    5 R(3,6)          =      1.086433     0.000276     0.000021     1.086455
	    6 R(4,7)          =      1.396063    -0.000552    -0.000103     1.395961
	    7 R(4,8)          =      1.082310     0.000319     0.000044     1.082354
	    8 R(4,9)          =      1.087160    -0.000200    -0.000031     1.087130
	    9 R(7,10)         =      0.941498    -0.000131    -0.000029     0.941469
	   10 B(1,2,3)        =    110.540779     0.000006     0.029550   110.570329
	   11 B(2,3,4)        =    107.522038    -0.000009    -0.030870   107.491169
	   12 B(2,3,5)        =    110.481149     0.000005     0.014266   110.495415
	   13 B(2,3,6)        =    110.976960     0.000011     0.076208   111.053168
	   14 B(3,4,7)        =    112.100517    -0.000005    -0.012884   112.087633
	   15 B(3,4,8)        =    109.561063    -0.000003    -0.023205   109.537857
	   16 B(3,4,9)        =    108.933348    -0.000006    -0.044329   108.889019
	   17 B(4,3,5)        =    109.745933    -0.000005    -0.045634   109.700299
	   18 B(4,3,6)        =    109.564663    -0.000004    -0.026840   109.537822
	   19 B(4,7,10)       =    108.453194     0.000016     0.064442   108.517636
	   20 B(5,3,6)        =    108.539970     0.000002     0.010903   108.550873
	   21 B(7,4,8)        =    107.637133     0.000006     0.037372   107.674505
	   22 B(7,4,9)        =    110.456938     0.000007     0.043268   110.500206
	   23 B(8,4,9)        =    108.062896     0.000001     0.000735   108.063630
	   24 D(1,2,3,4)      =    171.704039    -0.000000     0.044284   171.748323
	   25 D(1,2,3,5)      =     51.960387     0.000002     0.110260    52.070647
	   26 D(1,2,3,6)      =    -68.485117    -0.000001     0.036770   -68.448347
	   27 D(2,3,4,7)      =    -58.862569     0.000001    -0.030042   -58.892612
	   28 D(2,3,4,8)      =   -178.290482     0.000000    -0.053202  -178.343684
	   29 D(2,3,4,9)      =     63.691004     0.000001    -0.014802    63.676202
	   30 *D(3,4,7,10)    =     39.999999     0.000000     0.000000    39.999999
	   31 D(5,3,4,7)      =     61.347869     0.000000    -0.057464    61.290404
	   32 D(5,3,4,8)      =    -58.080044    -0.000000    -0.080624   -58.160668
	   33 D(5,3,4,9)      =   -176.098558     0.000000    -0.042224  -176.140782
	   34 D(6,3,4,7)      =   -179.567571    -0.000001    -0.088075  -179.655646
	   35 D(6,3,4,8)      =     61.004517    -0.000001    -0.111235    60.893282
	   36 D(6,3,4,9)      =    -57.013998    -0.000000    -0.072835   -57.086832
	   37 D(8,4,7,10)     =    160.549882    -0.000001    -0.011972   160.537910
	   38 D(9,4,7,10)     =    -81.684777     0.000001     0.035040   -81.649737
	 ---------------------------------------------------------------------------
	Successfully symmetrized geometry.

  ==> Convergence Check <==

  Measures of convergence in internal coordinates in au.
  Criteria marked as inactive (o), active & met (*), and active & unmet ( ).
  ---------------------------------------------------------------------------------------------
   Step     Total Energy     Delta E     MAX Force     RMS Force      MAX Disp      RMS Disp   
  ---------------------------------------------------------------------------------------------
    Convergence Criteria    1.00e-06 *    3.00e-04 *             o    1.20e-03 *             o
  ---------------------------------------------------------------------------------------------
      3    -229.02840725   -4.84e-05      2.07e-04 *    7.36e-05 o    1.94e-03      8.00e-04 o  ~
  ---------------------------------------------------------------------------------------------

	Writing optimization data to binary file.
	Structure for next step:
	Cartesian Geometry (in Angstrom)
	    H     2.1857694475  -0.6284854185  -0.2130331326
	    O     1.3415991522  -0.5409384882   0.1888440613
	    C     0.7018659829   0.6285039000  -0.2560115193
	    C    -0.7161290080   0.5971238893   0.2658003595
	    H     0.6918149958   0.6670994035  -1.3415290207
	    H     1.2066524430   1.5154283373   0.1167341254
	    O    -1.4132783892  -0.5286729982  -0.1760937232
	    H    -1.2496314000   1.4718796371  -0.0830079498
	    H    -0.6921096530   0.6278976511   1.3522287329
	    H    -0.8322116333  -1.2690159430  -0.1512393527
			--------------------------
			 OPTKING Finished Execution 
			--------------------------

    Structure for next step:
    Molecular point group: c1
    Full point group: C1

    Geometry (in Angstrom), charge = 0, multiplicity = 1:

    H            2.185723061529    -0.628528198043    -0.213017935923
    O            1.341552766185    -0.540981267717     0.188859258047
    C            0.701819596899     0.628461120509    -0.255996322608
    C           -0.716175394007     0.597081109776     0.265815556259
    H            0.691768609752     0.667056623966    -1.341513824006
    H            1.206606056977     1.515385557775     0.116749322161
    O           -1.413324775223    -0.528715777710    -0.176078526508
    H           -1.249677786033     1.471836857575    -0.082992753056
    H           -0.692156039023     0.627854871612     1.352243929592
    H           -0.832258019315    -1.269058722572    -0.151224155938

gradient() will perform analytic gradient computation.

*** tstart() called on cx1-27-1-2
*** at Sat Sep 10 15:51:50 2016


         ---------------------------------------------------------
                                   SCF
            by Justin Turney, Rob Parrish, and Andy Simmonett
                              RHF Reference
                        4 Threads,   2000 MiB Core
         ---------------------------------------------------------

  ==> Geometry <==

    Molecular point group: c1
    Full point group: C1

    Geometry (in Angstrom), charge = 0, multiplicity = 1:

       Center              X                  Y                   Z               Mass       
    ------------   -----------------  -----------------  -----------------  -----------------
           H          2.185723061529    -0.628528198043    -0.213017935923     1.007825032070
           O          1.341552766185    -0.540981267717     0.188859258047    15.994914619560
           C          0.701819596899     0.628461120509    -0.255996322608    12.000000000000
           C         -0.716175394007     0.597081109776     0.265815556259    12.000000000000
           H          0.691768609752     0.667056623966    -1.341513824006     1.007825032070
           H          1.206606056977     1.515385557775     0.116749322161     1.007825032070
           O         -1.413324775223    -0.528715777710    -0.176078526508    15.994914619560
           H         -1.249677786033     1.471836857575    -0.082992753056     1.007825032070
           H         -0.692156039023     0.627854871612     1.352243929592     1.007825032070
           H         -0.832258019315    -1.269058722572    -0.151224155938     1.007825032070

[...]
     138A      4.305191   139A      4.330075   140A      4.351583  
     141A      4.370636   142A      4.412408   143A      4.435369  
     144A      4.469650   145A      4.491668   146A      4.531463  
     147A      4.567714   148A      4.598041   149A      4.663387  
     150A      4.704236   151A      4.708348   152A      4.764882  
     153A      4.806866   154A      4.854702   155A      4.902047  
     156A      5.026001   157A      5.110909   158A      5.124995  
     159A      5.168306   160A      5.202403   161A      5.232338  
     162A      5.241179   163A      5.289800   164A      5.293303  
     165A      5.380729   166A      5.419182   167A      5.457577  
     168A      5.564572   169A      5.689659   170A      5.733975  
     171A      5.749732   172A      5.811424   173A      5.871899  
     174A      5.939643   175A      5.979029   176A      6.088015  
     177A      6.196756   178A      6.212835   179A      6.251833  
     180A      6.326029   181A      6.448616   182A      6.562690  
     183A      6.667818   184A      6.729867   185A      7.054378  
     186A      7.067092   187A      7.151608   188A      7.172291  
     189A      7.207201   190A      7.248724   191A      7.285374  
     192A      7.298781   193A      7.406323   194A      7.438650  
     195A      7.522576   196A      7.559295   197A      7.690240  
     198A      7.753812   199A      8.017630   200A      8.026042  
     201A     12.522946   202A     12.952785   203A     13.252525  
     204A     13.734467  

    Final Occupation by Irrep:
              A 
    DOCC [    17 ]

  Energy converged.

  @DF-RHF Final Energy:  -229.02840779238929

   => Energetics <=

    Nuclear Repulsion Energy =            134.7563358873048571
    One-Electron Energy =                -580.7340868191079153
    Two-Electron Energy =                 216.9493431394136564
    DFT Exchange-Correlation Energy =       0.0000000000000000
    Empirical Dispersion Energy =           0.0000000000000000
    PCM Polarization Energy =               0.0000000000000000
    EFP Energy =                            0.0000000000000000
    Total Energy =                       -229.0284077923893733


  Saving occupied orbitals to File 180.

*** tstop() called on cx1-27-1-2 at Sat Sep 10 15:51:52 2016
Module time:
	user time   =       5.18 seconds =       0.09 minutes
	system time =       0.10 seconds =       0.00 minutes
	total time  =          2 seconds =       0.03 minutes
Total time:
	user time   =      54.16 seconds =       0.90 minutes
	system time =       1.68 seconds =       0.03 minutes
	total time  =         16 seconds =       0.27 minutes


Properties will be evaluated at   0.000000,   0.000000,   0.000000 Bohr

Properties computed using the SCF density matrix

  Nuclear Dipole Moment: (a.u.)
     X:     1.2277      Y:     2.2303      Z:    -0.2997

  Electronic Dipole Moment: (a.u.)
     X:    -0.2536      Y:    -1.8224      Z:     0.0446

  Dipole Moment: (a.u.)
     X:     0.9741      Y:     0.4079      Z:    -0.2551     Total:     1.0865

  Dipole Moment: (Debye)
     X:     2.4760      Y:     1.0367      Z:    -0.6483     Total:     2.7615


*** tstart() called on cx1-27-1-2
*** at Sat Sep 10 15:51:52 2016


         ------------------------------------------------------------
                                   SCF GRAD                          
                          Rob Parrish, Justin Turney,                
                       Andy Simmonett, and Alex Sokolov              
         ------------------------------------------------------------

  ==> Geometry <==

    Molecular point group: c1
    Full point group: C1

    Geometry (in Angstrom), charge = 0, multiplicity = 1:

       Center              X                  Y                   Z               Mass       
    ------------   -----------------  -----------------  -----------------  -----------------
           H          2.185723061529    -0.628528198043    -0.213017935923     1.007825032070
           O          1.341552766185    -0.540981267717     0.188859258047    15.994914619560
           C          0.701819596899     0.628461120509    -0.255996322608    12.000000000000
           C         -0.716175394007     0.597081109776     0.265815556259    12.000000000000
           H          0.691768609752     0.667056623966    -1.341513824006     1.007825032070
           H          1.206606056977     1.515385557775     0.116749322161     1.007825032070
           O         -1.413324775223    -0.528715777710    -0.176078526508    15.994914619560
           H         -1.249677786033     1.471836857575    -0.082992753056     1.007825032070
           H         -0.692156039023     0.627854871612     1.352243929592     1.007825032070
           H         -0.832258019315    -1.269058722572    -0.151224155938     1.007825032070

  Nuclear repulsion =  134.756335887304857

  ==> Basis Set <==

  Basis Set: CC-PVTZ
    Number of shells: 76
    Number of basis function: 204
    Number of Cartesian functions: 230
    Spherical Harmonics?: true
    Max angular momentum: 3

  ==> DFJKGrad: Density-Fitted SCF Gradients <==

    Gradient:                    1
    J tasked:                  Yes
    K tasked:                  Yes
    wK tasked:                  No
    OpenMP threads:              4
    Integrals threads:           4
    Memory (MB):              1430
    Schwarz Cutoff:          0E+00
    Fitting Condition:       1E-12

   => Auxiliary Basis Set <=

  Basis Set: 
    Number of shells: 160
    Number of basis function: 496
    Number of Cartesian functions: 594
    Spherical Harmonics?: true
    Max angular momentum: 4


  -Total Gradient:
     Atom            X                  Y                   Z
    ------   -----------------  -----------------  -----------------
       1       -0.000010535436     0.000005056976    -0.000008092572
       2       -0.000007865379    -0.000078603541     0.000036349861
       3        0.000416734741    -0.000649231654     0.001133841049
       4       -0.000427992283     0.001200711968    -0.002039392465
       5       -0.000014192713     0.000000215308     0.000017547242
       6       -0.000037490244     0.000002077470    -0.000006238143
       7       -0.000603447070    -0.000912726165     0.003000210242
       8        0.000031319901     0.000008141253    -0.000000861982
       9        0.000018193216     0.000014390563    -0.000008167174
      10        0.000635275264     0.000409967821    -0.002125196059


*** tstop() called on cx1-27-1-2 at Sat Sep 10 15:51:54 2016
Module time:
	user time   =       8.17 seconds =       0.14 minutes
	system time =       0.27 seconds =       0.00 minutes
	total time  =          2 seconds =       0.03 minutes
Total time:
	user time   =      62.37 seconds =       1.04 minutes
	system time =       1.95 seconds =       0.03 minutes
	total time  =         18 seconds =       0.30 minutes

			-----------------------------------------
			 OPTKING 2.0: for geometry optimizations 
			  - R.A. King,  Bethel University        
			-----------------------------------------

	Previous internal coordinate definitions found.
	---Fragment 1 Geometry and Gradient---
	 H           4.1304179886       -1.1877461611       -0.4025455603
	 O           2.5351673209       -1.0223064390        0.3568922754
	 C           1.3262468328        1.1876194029       -0.4837629408
	 C          -1.3533753578        1.1283197766        0.5023186032
	 H           1.3072532198        1.2605543344       -2.5350937309
	 H           2.2801549980        2.8636636899        0.2206242451
	 O          -2.6707967620       -0.9991280220       -0.3327401930
	 H          -2.3615487700        2.7813685731       -0.1568335743
	 H          -1.3079853550        1.1864737585        2.5553706918
	 H          -1.5727397284       -2.3981734322       -0.2857722394
	            -0.0000105354        0.0000050570       -0.0000080926
	            -0.0000078654       -0.0000786035        0.0000363499
	             0.0004167347       -0.0006492317        0.0011338410
	            -0.0004279923        0.0012007120       -0.0020393925
	            -0.0000141927        0.0000002153        0.0000175472
	            -0.0000374902        0.0000020775       -0.0000062381
	            -0.0006034471       -0.0009127262        0.0030002102
	             0.0000313199        0.0000081413       -0.0000008620
	             0.0000181932        0.0000143906       -0.0000081672
	             0.0006352753        0.0004099678       -0.0021251961

	---Fragment 1 Intrafragment Coordinates---
	 - Coordinate -           - BOHR/RAD -       - ANG/DEG -
	 R(1,2)           =         1.774526	       0.939038
	 R(2,3)           =         2.655553	       1.405258
	 R(3,4)           =         2.855915	       1.511285
	 R(3,5)           =         2.052715	       1.086250
	 R(3,6)           =         2.053102	       1.086455
	 R(4,7)           =         2.637983	       1.395961
	 R(4,8)           =         2.045352	       1.082354
	 R(4,9)           =         2.054377	       1.087130
	 R(7,10)          =         1.779119	       0.941469
	 B(1,2,3)         =         1.929816	     110.570329
	 B(2,3,4)         =         1.876075	     107.491169
	 B(2,3,5)         =         1.928509	     110.495415
	 B(2,3,6)         =         1.938243	     111.053168
	 B(3,4,7)         =         1.956298	     112.087633
	 B(3,4,8)         =         1.911796	     109.537857
	 B(3,4,9)         =         1.900472	     108.889019
	 B(4,3,5)         =         1.914631	     109.700299
	 B(4,3,6)         =         1.911796	     109.537822
	 B(4,7,10)        =         1.893990	     108.517636
	 B(5,3,6)         =         1.894570	     108.550873
	 B(7,4,8)         =         1.879275	     107.674505
	 B(7,4,9)         =         1.928592	     110.500206
	 B(8,4,9)         =         1.886066	     108.063630
	 D(1,2,3,4)       =         2.997574	     171.748323
	 D(1,2,3,5)       =         0.908804	      52.070647
	 D(1,2,3,6)       =        -1.194649	     -68.448347
	 D(2,3,4,7)       =        -1.027870	     -58.892612
	 D(2,3,4,8)       =        -3.112684	    -178.343684
	 D(2,3,4,9)       =         1.111359	      63.676202
	*D(3,4,7,10)      =         0.698132	      39.999999
	 D(5,3,4,7)       =         1.069719	      61.290404
	 D(5,3,4,8)       =        -1.015095	     -58.160668
	 D(5,3,4,9)       =        -3.074237	    -176.140782
	 D(6,3,4,7)       =        -3.135583	    -179.655646
	 D(6,3,4,8)       =         1.062788	      60.893282
	 D(6,3,4,9)       =        -0.996353	     -57.086832
	 D(8,4,7,10)      =         2.801915	     160.537910
	 D(9,4,7,10)      =        -1.425057	     -81.649737

	Current energy   :      -229.0284077924

	Energy change for the previous step:
		Projected    :         0.0000001007
		Actual       :        -0.0000005440

	Performing BFGS update.
	Previous computed or guess Hessian on step 1.
	Steps to be used in Hessian update: 3 2
	Taking RFO optimization step.
	Going to follow RFO solution 1.
	Using RFO vector 1.
	Norm of target step-size    0.00208
	Projected energy change by RFO approximation:        -0.0000003715

	Back-transformation to cartesian coordinates...
	Successfully converged to displaced geometry.

	Back-transformation to cartesian coordinates to adjust frozen coordinates...
	Successfully converged to displaced geometry.

	--- Internal Coordinate Step in ANG or DEG, aJ/ANG or AJ/DEG ---
	 ---------------------------------------------------------------------------
	   Coordinate                Previous        Force       Change         New 
	   ----------                --------       ------       ------       ------
	    1 R(1,2)          =      0.939038     0.000053     0.000003     0.939042
	    2 R(2,3)          =      1.405258    -0.000509    -0.000068     1.405190
	    3 R(3,4)          =      1.511285     0.000782     0.000113     1.511398
	    4 R(3,5)          =      1.086250     0.000143     0.000010     1.086260
	    5 R(3,6)          =      1.086455     0.000147     0.000029     1.086484
	    6 R(4,7)          =      1.395961    -0.000927    -0.000112     1.395848
	    7 R(4,8)          =      1.082354     0.000071     0.000018     1.082371
	    8 R(4,9)          =      1.087130     0.000061     0.000005     1.087134
	    9 R(7,10)         =      0.941469    -0.000112    -0.000010     0.941459
	   10 B(1,2,3)        =    110.570329     0.000001     0.008176   110.578506
	   11 B(2,3,4)        =    107.491169     0.000005     0.012788   107.503956
	   12 B(2,3,5)        =    110.495415    -0.000002    -0.002205   110.493210
	   13 B(2,3,6)        =    111.053168    -0.000004    -0.011323   111.041845
	   14 B(3,4,7)        =    112.087633     0.000004     0.011368   112.099001
	   15 B(3,4,8)        =    109.537857     0.000001     0.008398   109.546256
	   16 B(3,4,9)        =    108.889019     0.000000    -0.001013   108.888005
	   17 B(4,3,5)        =    109.700299    -0.000000     0.000460   109.700759
	   18 B(4,3,6)        =    109.537822     0.000001     0.003833   109.541655
	   19 B(4,7,10)       =    108.517636    -0.000003    -0.004427   108.513208
	   20 B(5,3,6)        =    108.550873    -0.000000    -0.003324   108.547549
	   21 B(7,4,8)        =    107.674505    -0.000003    -0.008285   107.666220
	   22 B(7,4,9)        =    110.500206    -0.000002    -0.008719   110.491487
	   23 B(8,4,9)        =    108.063630    -0.000000    -0.002072   108.061558
	   24 D(1,2,3,4)      =    171.748323     0.000000     0.054087   171.802410
	   25 D(1,2,3,5)      =     52.070647    -0.000000     0.047000    52.117647
	   26 D(1,2,3,6)      =    -68.448347     0.000000     0.060135   -68.388212
	   27 D(2,3,4,7)      =    -58.892612    -0.000000    -0.022022   -58.914634
	   28 D(2,3,4,8)      =   -178.343684    -0.000000    -0.024478  -178.368162
	   29 D(2,3,4,9)      =     63.676202    -0.000000    -0.026223    63.649979
	   30 *D(3,4,7,10)    =     39.999999    -0.000000     0.000000    39.999999
	   31 D(5,3,4,7)      =     61.290404     0.000000    -0.016778    61.273627
	   32 D(5,3,4,8)      =    -58.160668     0.000000    -0.019233   -58.179901
	   33 D(5,3,4,9)      =   -176.140782    -0.000000    -0.020978  -176.161760
	   34 D(6,3,4,7)      =   -179.655646     0.000000    -0.018237  -179.673882
	   35 D(6,3,4,8)      =     60.893282     0.000000    -0.020692    60.872590
	   36 D(6,3,4,9)      =    -57.086832     0.000000    -0.022437   -57.109270
	   37 D(8,4,7,10)     =    160.537910     0.000000     0.011875   160.549785
	   38 D(9,4,7,10)     =    -81.649737    -0.000000    -0.000372   -81.650109
	 ---------------------------------------------------------------------------
	Successfully symmetrized geometry.

  ==> Convergence Check <==

  Measures of convergence in internal coordinates in au.
  Criteria marked as inactive (o), active & met (*), and active & unmet ( ).
  ---------------------------------------------------------------------------------------------
   Step     Total Energy     Delta E     MAX Force     RMS Force      MAX Disp      RMS Disp   
  ---------------------------------------------------------------------------------------------
    Convergence Criteria    1.00e-06 *    3.00e-04 *             o    1.20e-03 *             o
  ---------------------------------------------------------------------------------------------
      4    -229.02840779   -5.44e-07 *    1.13e-04 *    3.39e-05 o    1.05e-03 *    3.37e-04 o  ~
  ---------------------------------------------------------------------------------------------


  **** Optimization is complete! (in 4 steps) ****

  ==> Optimization Summary <==

  Measures of convergence in internal coordinates in au.
  --------------------------------------------------------------------------------------------------------------- ~
   Step         Total Energy             Delta E       MAX Force       RMS Force        MAX Disp        RMS Disp  ~
  --------------------------------------------------------------------------------------------------------------- ~
      1    -229.028323266651   -229.028323266651      0.00120557      0.00044599      0.08761127      0.03431458  ~
      2    -229.028358836244     -0.000035569593      0.00182062      0.00061480      0.03077885      0.01066583  ~
      3    -229.028407248357     -0.000048412113      0.00020689      0.00007356      0.00194142      0.00080031  ~
      4    -229.028407792389     -0.000000544033      0.00011257      0.00003391      0.00104955      0.00033676  ~
  --------------------------------------------------------------------------------------------------------------- ~

	Writing optimization data to binary file.
	Final energy is   -229.0284077923893
	Final (previous) structure:
	Cartesian Geometry (in Angstrom)
	    H     2.1857230615  -0.6285281980  -0.2130179359
	    O     1.3415527662  -0.5409812677   0.1888592580
	    C     0.7018195969   0.6284611205  -0.2559963226
	    C    -0.7161753940   0.5970811098   0.2658155563
	    H     0.6917686098   0.6670566240  -1.3415138240
	    H     1.2066060570   1.5153855578   0.1167493222
	    O    -1.4133247752  -0.5287157777  -0.1760785265
	    H    -1.2496777860   1.4718368576  -0.0829927531
	    H    -0.6921560390   0.6278548716   1.3522439296
	    H    -0.8322580193  -1.2690587226  -0.1512241559
	Saving final (previous) structure.
			--------------------------
			 OPTKING Finished Execution 
			--------------------------

    Final optimized geometry and variables:
    Molecular point group: c1
    Full point group: C1

    Geometry (in Angstrom), charge = 0, multiplicity = 1:

    H            2.185723061529    -0.628528198043    -0.213017935923
    O            1.341552766185    -0.540981267717     0.188859258047
    C            0.701819596899     0.628461120509    -0.255996322608
    C           -0.716175394007     0.597081109776     0.265815556259
    H            0.691768609752     0.667056623966    -1.341513824006
    H            1.206606056977     1.515385557775     0.116749322161
    O           -1.413324775223    -0.528715777710    -0.176078526508
    H           -1.249677786033     1.471836857575    -0.082992753056
    H           -0.692156039023     0.627854871612     1.352243929592
    H           -0.832258019315    -1.269058722572    -0.151224155938

	Cleaning optimization helper files.


Properties will be evaluated at   0.000000,   0.000000,   0.000000 Bohr

Properties computed using the  density matrix

  Nuclear Dipole Moment: (a.u.)
     X:     1.2277      Y:     2.2303      Z:    -0.2997

  Electronic Dipole Moment: (a.u.)
     X:    -0.2536      Y:    -1.8224      Z:     0.0446

  Dipole Moment: (a.u.)
     X:     0.9741      Y:     0.4079      Z:    -0.2551     Total:     1.0865

  Dipole Moment: (Debye)
     X:     2.4760      Y:     1.0367      Z:    -0.6483     Total:     2.7615

  Quadrupole Moment: (Debye Ang)
    XX:   -24.9726     YY:   -22.6854     ZZ:   -25.2363
    XY:    -1.1671     XZ:    -2.6957     YZ:     0.6454

  Traceless Quadrupole Moment: (Debye Ang)
    XX:    -0.6745     YY:     1.6127     ZZ:    -0.9382
    XY:    -1.1671     XZ:    -2.6957     YZ:     0.6454

  Mulliken Charges: (a.u.)
   Center  Symbol    Alpha    Beta     Spin     Total
       1     H     0.39055  0.39055  0.00000  0.21890
       2     O     4.20681  4.20681  0.00000 -0.41362
       3     C     2.97763  2.97763  0.00000  0.04473
       4     C     2.95684  2.95684  0.00000  0.08633
       5     H     0.46870  0.46870  0.00000  0.06261
       6     H     0.46978  0.46978  0.00000  0.06044
       7     O     4.21076  4.21076  0.00000 -0.42152
       8     H     0.46152  0.46152  0.00000  0.07696
       9     H     0.47260  0.47260  0.00000  0.05479
      10     H     0.38480  0.38480  0.00000  0.23039

   Total alpha = 17.00000, Total beta = 17.00000, Total charge = -0.00000


*** Psi4 exiting successfully. Buy a developer a beer!
