    -----------------------------------------------------------------------
          Psi4: An Open-Source Ab Initio Electronic Structure Package
                              Psi4 (no tag) Driver

                          Git: Rev {detached?}  

    J. M. Turney, A. C. Simmonett, R. M. Parrish, E. G. Hohenstein,
    F. A. Evangelista, J. T. Fermann, B. J. Mintz, L. A. Burns, J. J. Wilke,
    M. L. Abrams, N. J. Russ, M. L. Leininger, C. L. Janssen, E. T. Seidl,
    W. D. Allen, H. F. Schaefer, R. A. King, E. F. Valeev, C. D. Sherrill,
    and T. D. Crawford, WIREs Comput. Mol. Sci. 2, 556-565 (2012)
    (doi: 10.1002/wcms.93)

                         Additional Contributions by
    A. E. DePrince, M. Saitow, U. Bozkaya, A. Yu. Sokolov
    -----------------------------------------------------------------------


    Psi4 started on: Thu Sep  1 22:30:33 2016

    Process ID:  30182
    PSI4DATADIR: /export131/home/mjharvey/miniconda3/share
    Memory level set to 256.000 MB

  ==> Input File <==

--------------------------------------------------------------------------
set {
	reference rhf
	basis 6-31G*
}


set_num_threads( 1 )
memory 2 gb

molecule MOL {
0 1

H	 -2.646374	 -0.642757	 1.268656
C	 -2.083525	 -0.384536	 0.393091
O	 -0.807605	 -0.127164	 0.768327
F	 -2.118945	 -1.383102	 -0.486752
F	 -2.621877	 0.670592	 -0.209486
C	 0.084052	 0.273579	 -0.209957
C	 0.511652	 -0.979898	 -0.962361
Cl	 1.488312	 1.079849	 0.507816
H	 -0.359610	 0.955839	 -0.913845
F	 1.356243	 -0.673020	 -1.923938
F	 -0.553125	 -1.528493	 -1.512572
F	 1.072980	 -1.863241	 -0.173316

	symmetry c1
}
set optking {
	frozen_dihedral = ("
		10 7 6 9,
		6 3 2 4
	")
}

ee = energy('scf')
oeprop('DIPOLE', 'QUADRUPOLE', 'MULLIKEN_CHARGES')
f=open( 'psi4out.xyz', 'w' )
f.write( "12  " )
f.write( str(ee) + "\n" )
f.write( MOL.save_string_xyz() )
f.close()
--------------------------------------------------------------------------

  Memory set to   2.000 GiB by Python script.

*** tstart() called on cx1-3-6-4.cx1.hpc.ic.ac.uk
*** at Thu Sep  1 22:30:33 2016


         ---------------------------------------------------------
                                   SCF
            by Justin Turney, Rob Parrish, and Andy Simmonett
                              RHF Reference
                        1 Threads,   2000 MiB Core
         ---------------------------------------------------------

  ==> Geometry <==

    Molecular point group: c1
    Full point group: C1

    Geometry (in Angstrom), charge = 0, multiplicity = 1:

       Center              X                  Y                   Z               Mass       
    ------------   -----------------  -----------------  -----------------  -----------------
           H         -2.449704610293    -0.274177969327     1.598894276472     1.007825032070
           C         -1.886855610293    -0.015956969327     0.723329276472    12.000000000000
           O         -0.610935610293     0.241415030673     1.098565276472    15.994914619560
           F         -1.922275610293    -1.014522969327    -0.156513723528    18.998403224000
           F         -2.425207610293     1.039171030673     0.120752276472    18.998403224000
           C          0.280721389707     0.642158030673     0.120281276472    12.000000000000
           C          0.708321389707    -0.611318969327    -0.632122723528    12.000000000000
          CL          1.684981389707     1.448428030673     0.838054276472    34.968852682000
           H         -0.162940610293     1.324418030673    -0.583606723528     1.007825032070
           F          1.552912389707    -0.304440969327    -1.593699723528    18.998403224000
           F         -0.356455610293    -1.159913969327    -1.182333723528    18.998403224000
           F          1.269649389707    -1.494661969327     0.156922276472    18.998403224000

  Running in c1 symmetry.

  Rotational constants: A =      0.05195  B =      0.03403  C =      0.02469 [cm^-1]
  Rotational constants: A =   1557.46059  B =   1020.22441  C =    740.26497 [MHz]
  Nuclear repulsion =  759.246995227370803

  Charge       = 0
  Multiplicity = 1
  Electrons    = 90
  Nalpha       = 45
  Nbeta        = 45

  ==> Algorithm <==

  SCF Algorithm Type is DF.
  DIIS enabled.
  MOM disabled.
  Fractional occupation disabled.
  Guess Type is CORE.
  Energy threshold   = 1.00e-06
  Density threshold  = 1.00e-06
  Integral threshold = 0.00e+00

  ==> Primary Basis <==

  Basis Set: 6-31G*
    Number of shells: 66
    Number of basis function: 158
    Number of Cartesian functions: 158
    Spherical Harmonics?: false
    Max angular momentum: 2

  ==> Pre-Iterations <==

   -------------------------------------------------------
    Irrep   Nso     Nmo     Nalpha   Nbeta   Ndocc  Nsocc
   -------------------------------------------------------
     A        158     158       0       0       0       0
   -------------------------------------------------------
    Total     158     158      45      45      45       0
   -------------------------------------------------------

 OEINTS: Overlap, kinetic, potential, dipole, and quadrupole integrals
         stored in file 35.

  ==> Integral Setup <==

  ==> DFJK: Density-Fitted J/K Matrices <==

    J tasked:                  Yes
    K tasked:                  Yes
    wK tasked:                  No
    OpenMP threads:              1
    Integrals threads:           1
    Memory (MB):              1430
    Algorithm:                Core
    Integral Cache:           NONE
    Schwarz Cutoff:          1E-12
    Fitting Condition:       1E-12

   => Auxiliary Basis Set <=

  Basis Set: 
    Number of shells: 270
    Number of basis function: 909
    Number of Cartesian functions: 909
    Spherical Harmonics?: false
    Max angular momentum: 3

  Minimum eigenvalue in the overlap matrix is 1.4444039902E-03.
  Using Symmetric Orthogonalization.
  SCF Guess: Core (One-Electron) Hamiltonian.

  ==> Iterations <==

                           Total Energy        Delta E     RMS |[F,P]|

   @DF-RHF iter   1: -1056.71977640018167   -1.05672e+03   7.00965e-02 
   @DF-RHF iter   2:  -866.61873338951989    1.90101e+02   8.23310e-02 DIIS
   @DF-RHF iter   3: -1039.10956560708837   -1.72491e+02   6.27021e-02 DIIS
   @DF-RHF iter   4: -1099.31137947344087   -6.02018e+01   4.67809e-02 DIIS
   @DF-RHF iter   5: -1129.36791929891933   -3.00565e+01   3.10009e-02 DIIS
   @DF-RHF iter   6: -1136.65032117167038   -7.28240e+00   2.25227e-02 DIIS
   @DF-RHF iter   7: -1145.86501554380993   -9.21469e+00   6.71304e-03 DIIS
   @DF-RHF iter   8: -1146.22642329417067   -3.61408e-01   2.02813e-03 DIIS
   @DF-RHF iter   9: -1146.25989501519780   -3.34717e-02   6.93883e-04 DIIS
   @DF-RHF iter  10: -1146.26477789568571   -4.88288e-03   1.80906e-04 DIIS
   @DF-RHF iter  11: -1146.26520085028369   -4.22955e-04   6.23297e-05 DIIS
   @DF-RHF iter  12: -1146.26524882564627   -4.79754e-05   2.78703e-05 DIIS
   @DF-RHF iter  13: -1146.26525862396466   -9.79832e-06   1.13261e-05 DIIS
   @DF-RHF iter  14: -1146.26526020625306   -1.58229e-06   2.83056e-06 DIIS
   @DF-RHF iter  15: -1146.26526033600248   -1.29749e-07   9.03066e-07 DIIS

  ==> Post-Iterations <==

    Orbital Energies (a.u.)
    -----------------------

    Doubly Occupied:                                                      

       1A   -104.851000     2A    -26.353940     3A    -26.353814  
       4A    -26.346360     5A    -26.340304     6A    -26.325075  
       7A    -20.646676     8A    -11.519437     9A    -11.485854  
      10A    -11.399452    11A    -10.585154    12A     -8.054551  
      13A     -8.050958    14A     -8.050859    15A     -1.758370  
      16A     -1.715043    17A     -1.657874    18A     -1.653001  
      19A     -1.624845    20A     -1.485225    21A     -1.181764  
      22A     -1.044159    23A     -0.996605    24A     -0.911398  
      25A     -0.860699    26A     -0.847240    27A     -0.839104  
      28A     -0.835558    29A     -0.808559    30A     -0.785925  
      31A     -0.731954    32A     -0.719491    33A     -0.707435  
      34A     -0.698307    35A     -0.671212    36A     -0.658957  
      37A     -0.653437    38A     -0.650249    39A     -0.640418  
      40A     -0.626514    41A     -0.572840    42A     -0.564334  
      43A     -0.529349    44A     -0.483327    45A     -0.470399  

    Virtual:                                                              

      46A      0.168959    47A      0.245304    48A      0.263346  
      49A      0.285726    50A      0.349430    51A      0.380933  
      52A      0.393308    53A      0.424135    54A      0.441227  
      55A      0.471107    56A      0.489469    57A      0.550465  
      58A      0.621304    59A      0.627771    60A      0.629414  
      61A      0.683150    62A      0.698634    63A      0.713019  
      64A      0.728457    65A      0.750013    66A      0.775561  
      67A      0.800320    68A      0.822505    69A      0.919260  
      70A      0.998091    71A      1.030384    72A      1.068638  
      73A      1.102059    74A      1.121835    75A      1.143595  
      76A      1.169880    77A      1.192696    78A      1.236579  
      79A      1.265502    80A      1.298142    81A      1.338457  
      82A      1.346615    83A      1.377761    84A      1.398892  
      85A      1.430107    86A      1.445452    87A      1.492874  
      88A      1.522475    89A      1.540798    90A      1.562266  
      91A      1.592893    92A      1.606602    93A      1.627482  
      94A      1.644253    95A      1.650330    96A      1.664693  
      97A      1.680145    98A      1.686819    99A      1.724815  
     100A      1.781016   101A      1.848405   102A      1.870464  
     103A      1.899131   104A      1.928743   105A      1.960575  
     106A      1.998806   107A      2.028826   108A      2.067409  
     109A      2.074386   110A      2.082054   111A      2.100627  
     112A      2.118933   113A      2.133860   114A      2.223128  
     115A      2.245826   116A      2.262709   117A      2.290912  
     118A      2.306038   119A      2.320869   120A      2.362326  
     121A      2.374280   122A      2.401131   123A      2.402977  
     124A      2.426144   125A      2.434646   126A      2.463384  
     127A      2.502510   128A      2.542418   129A      2.572668  
     130A      2.657336   131A      2.711878   132A      2.754227  
     133A      2.816127   134A      2.835356   135A      2.884214  
     136A      2.990561   137A      3.027856   138A      3.124355  
     139A      3.158534   140A      3.198073   141A      3.221263  
     142A      3.317766   143A      3.341871   144A      3.411123  
     145A      3.426448   146A      3.438986   147A      3.472535  
     148A      3.510547   149A      4.361774   150A      4.545198  
     151A      4.621992   152A      4.724346   153A      4.731839  
     154A      4.913703   155A      5.127187   156A      5.365981  
     157A      5.757460   158A      6.345802  

    Final Occupation by Irrep:
              A 
    DOCC [    45 ]

  Energy converged.

  @DF-RHF Final Energy: -1146.26526033600248

   => Energetics <=

    Nuclear Repulsion Energy =            759.2469952273708031
    One-Electron Energy =               -3101.5302905223279595
    Two-Electron Energy =                1196.0180349589534217
    DFT Exchange-Correlation Energy =       0.0000000000000000
    Empirical Dispersion Energy =           0.0000000000000000
    PCM Polarization Energy =               0.0000000000000000
    EFP Energy =                            0.0000000000000000
    Total Energy =                      -1146.2652603360036210

    Alert: EFP and PCM quantities not currently incorporated into SCF psivars.

Properties will be evaluated at   0.000000,   0.000000,   0.000000 Bohr
  ==> Properties <==


Properties computed using the SCF density matrix

  Nuclear Dipole Moment: (a.u.)
     X:    -2.2199      Y:     2.4279      Z:     2.6944

  Electronic Dipole Moment: (a.u.)
     X:     1.6451      Y:    -2.1294      Z:    -2.4417

  Dipole Moment: (a.u.)
     X:    -0.5748      Y:     0.2986      Z:     0.2527     Total:     0.6953

  Dipole Moment: (Debye)
     X:    -1.4610      Y:     0.7589      Z:     0.6423     Total:     1.7672


  Saving occupied orbitals to File 180.

*** tstop() called on cx1-3-6-4.cx1.hpc.ic.ac.uk at Thu Sep  1 22:30:51 2016
Module time:
	user time   =      17.54 seconds =       0.29 minutes
	system time =       0.20 seconds =       0.00 minutes
	total time  =         18 seconds =       0.30 minutes
Total time:
	user time   =      17.54 seconds =       0.29 minutes
	system time =       0.20 seconds =       0.00 minutes
	total time  =         18 seconds =       0.30 minutes


Properties will be evaluated at   0.000000,   0.000000,   0.000000 Bohr

Properties computed using the  density matrix

  Nuclear Dipole Moment: (a.u.)
     X:    -2.2199      Y:     2.4279      Z:     2.6944

  Electronic Dipole Moment: (a.u.)
     X:     1.6451      Y:    -2.1294      Z:    -2.4417

  Dipole Moment: (a.u.)
     X:    -0.5748      Y:     0.2986      Z:     0.2527     Total:     0.6953

  Dipole Moment: (Debye)
     X:    -1.4610      Y:     0.7589      Z:     0.6423     Total:     1.7672

  Quadrupole Moment: (Debye Ang)
    XX:   -59.8018     YY:   -61.2570     ZZ:   -59.8364
    XY:     0.9679     XZ:    -3.5704     YZ:    -2.0768

  Traceless Quadrupole Moment: (Debye Ang)
    XX:     0.4966     YY:    -0.9586     ZZ:     0.4620
    XY:     0.9679     XZ:    -3.5704     YZ:    -2.0768

  Mulliken Charges: (a.u.)
   Center  Symbol    Alpha    Beta     Spin     Total
       1     H     0.40205  0.40205  0.00000  0.19589
       2     C     2.56314  2.56314  0.00000  0.87372
       3     O     4.30111  4.30111  0.00000 -0.60221
       4     F     4.68042  4.68042  0.00000 -0.36084
       5     F     4.68778  4.68778  0.00000 -0.37556
       6     C     3.05731  3.05731  0.00000 -0.11462
       7     C     2.43782  2.43782  0.00000  1.12435
       8    CL     8.48797  8.48797  0.00000  0.02406
       9     H     0.36673  0.36673  0.00000  0.26654
      10     F     4.67575  4.67575  0.00000 -0.35150
      11     F     4.67088  4.67088  0.00000 -0.34175
      12     F     4.66903  4.66903  0.00000 -0.33807

   Total alpha = 45.00000, Total beta = 45.00000, Total charge =  0.00000


*** PSI4 exiting successfully. Buy a developer a beer!
