    -----------------------------------------------------------------------
          Psi4: An Open-Source Ab Initio Electronic Structure Package
                              Psi4 (no tag) Driver

                          Git: Rev {detached?}  

    J. M. Turney, A. C. Simmonett, R. M. Parrish, E. G. Hohenstein,
    F. A. Evangelista, J. T. Fermann, B. J. Mintz, L. A. Burns, J. J. Wilke,
    M. L. Abrams, N. J. Russ, M. L. Leininger, C. L. Janssen, E. T. Seidl,
    W. D. Allen, H. F. Schaefer, R. A. King, E. F. Valeev, C. D. Sherrill,
    and T. D. Crawford, WIREs Comput. Mol. Sci. 2, 556-565 (2012)
    (doi: 10.1002/wcms.93)

                         Additional Contributions by
    A. E. DePrince, M. Saitow, U. Bozkaya, A. Yu. Sokolov
    -----------------------------------------------------------------------


    Psi4 started on: Fri Sep  2 14:35:25 2016

    Process ID:  20344
    PSI4DATADIR: /export131/home/mjharvey/miniconda3/share
    Memory level set to 256.000 MB

  ==> Input File <==

--------------------------------------------------------------------------
set {
	reference rhf
	basis 6-31G*
}


set_num_threads( 4 )
memory 2 gb

molecule MOL {
0 1

H	 -4.236494	 0.538104	 0.039757
O	 -3.517110	 -0.026191	 -0.205115
C	 -2.306886	 0.532354	 0.237577
C	 -1.177863	 -0.397191	 -0.171080
H	 -2.156308	 1.517575	 -0.201710
H	 -2.315015	 0.655684	 1.319734
C	 0.198102	 0.111031	 0.262842
H	 -1.208843	 -0.518759	 -1.250427
H	 -1.368741	 -1.376554	 0.258909
C	 1.331804	 -0.827780	 -0.158768
H	 0.361943	 1.100838	 -0.156218
H	 0.217265	 0.229072	 1.345532
C	 2.723619	 -0.410569	 0.329459
H	 1.342964	 -0.912588	 -1.244120
H	 1.116806	 -1.824343	 0.220779
C	 3.687055	 0.012096	 -0.781162
H	 3.161802	 -1.244911	 0.871636
H	 2.624314	 0.399388	 1.049371
H	 3.796233	 -0.774428	 -1.523118
H	 3.349080	 0.906312	 -1.294317
H	 4.672446	 0.222596	 -0.376875

	symmetry c1
}
set optking {
	frozen_dihedral = ("
		16 13 10 14
	")
}

ee = optimize('scf')
oeprop('DIPOLE', 'QUADRUPOLE', 'MULLIKEN_CHARGES')
f=open( 'psi4out.xyz', 'w' )
f.write( "21  " )
f.write( str(ee) + "\n" )
f.write( MOL.save_string_xyz() )
f.close()
--------------------------------------------------------------------------

  Memory set to   2.000 GiB by Python script.
gradient() will perform analytic gradient computation.

*** tstart() called on cx1-1-1-4.cx1.hpc.ic.ac.uk
*** at Fri Sep  2 14:35:25 2016


         ---------------------------------------------------------
                                   SCF
            by Justin Turney, Rob Parrish, and Andy Simmonett
                              RHF Reference
                        4 Threads,   2000 MiB Core
         ---------------------------------------------------------

  ==> Geometry <==

    Molecular point group: c1
    Full point group: C1

    Geometry (in Angstrom), charge = 0, multiplicity = 1:

       Center              X                  Y                   Z               Mass       
    ------------   -----------------  -----------------  -----------------  -----------------
           H         -4.301572174592     0.668070026404     0.114218109870     1.007825032070
           O         -3.582188174592     0.103775026404    -0.130653890130    15.994914619560
           C         -2.371964174592     0.662320026404     0.312038109870    12.000000000000
           C         -1.242941174592    -0.267224973596    -0.096618890130    12.000000000000
           H         -2.221386174592     1.647541026404    -0.127248890130     1.007825032070
           H         -2.380093174592     0.785650026404     1.394195109870     1.007825032070
           C          0.133023825408     0.240997026404     0.337303109870    12.000000000000
           H         -1.273921174592    -0.388792973596    -1.175965890130     1.007825032070
           H         -1.433819174592    -1.246587973596     0.333370109870     1.007825032070
           C          1.266725825408    -0.697813973596    -0.084306890130    12.000000000000
           H          0.296864825408     1.230804026404    -0.081756890130     1.007825032070
           H          0.152186825408     0.359038026404     1.419993109870     1.007825032070
           C          2.658540825408    -0.280602973596     0.403920109870    12.000000000000
           H          1.277885825408    -0.782621973596    -1.169658890130     1.007825032070
           H          1.051727825408    -1.694376973596     0.295240109870     1.007825032070
           C          3.621976825408     0.142062026404    -0.706700890130    12.000000000000
           H          3.096723825408    -1.114944973596     0.946097109870     1.007825032070
           H          2.559235825408     0.529354026404     1.123832109870     1.007825032070
           H          3.731154825408    -0.644461973596    -1.448656890130     1.007825032070
           H          3.284001825408     1.036278026404    -1.219855890130     1.007825032070
           H          4.607367825408     0.352562026404    -0.302413890130     1.007825032070

  Running in c1 symmetry.

  Rotational constants: A =      0.35307  B =      0.02487  C =      0.02476 [cm^-1]
  Rotational constants: A =  10584.70410  B =    745.55288  C =    742.35916 [MHz]
  Nuclear repulsion =  309.886364717790229

  Charge       = 0
  Multiplicity = 1
  Electrons    = 58
  Nalpha       = 29
  Nbeta        = 29

  ==> Algorithm <==

  SCF Algorithm Type is DF.
  DIIS enabled.
  MOM disabled.
  Fractional occupation disabled.
  Guess Type is CORE.
  Energy threshold   = 1.00e-08
  Density threshold  = 1.00e-08
  Integral threshold = 0.00e+00

  ==> Primary Basis <==

  Basis Set: 6-31G*
    Number of shells: 70
    Number of basis function: 133
    Number of Cartesian functions: 133
    Spherical Harmonics?: false
    Max angular momentum: 2

  ==> Pre-Iterations <==

   -------------------------------------------------------
    Irrep   Nso     Nmo     Nalpha   Nbeta   Ndocc  Nsocc
   -------------------------------------------------------
     A        133     133       0       0       0       0
   -------------------------------------------------------
    Total     133     133      29      29      29       0
   -------------------------------------------------------

 OEINTS: Overlap, kinetic, potential, dipole, and quadrupole integrals
         stored in file 35.

  ==> Integral Setup <==

  ==> DFJK: Density-Fitted J/K Matrices <==

    J tasked:                  Yes
    K tasked:                  Yes
    wK tasked:                  No
    OpenMP threads:              4
    Integrals threads:           4
    Memory (MB):              1430
    Algorithm:                Core
    Integral Cache:           NONE
    Schwarz Cutoff:          1E-12
    Fitting Condition:       1E-12

   => Auxiliary Basis Set <=

  Basis Set: 
    Number of shells: 294
    Number of basis function: 917
    Number of Cartesian functions: 917
    Spherical Harmonics?: false
    Max angular momentum: 3

  Minimum eigenvalue in the overlap matrix is 3.0543777473E-03.
  Using Symmetric Orthogonalization.
  SCF Guess: Core (One-Electron) Hamiltonian.

  ==> Iterations <==

                           Total Energy        Delta E     RMS |[F,P]|

   @DF-RHF iter   1:  -235.73306657494186   -2.35733e+02   6.54857e-02 
   @DF-RHF iter   2:   -82.01035046104278    1.53723e+02   7.90330e-02 DIIS
   @DF-RHF iter   3:  -237.19648173347741   -1.55186e+02   5.13625e-02 DIIS
   @DF-RHF iter   4:  -205.97203935855373    3.12244e+01   6.53765e-02 DIIS
   @DF-RHF iter   5:  -309.80199209455918   -1.03830e+02   6.76368e-03 DIIS
   @DF-RHF iter   6:  -310.15454458023760   -3.52552e-01   2.60428e-03 DIIS
   @DF-RHF iter   7:  -310.20422978496356   -4.96852e-02   6.25183e-04 DIIS
   @DF-RHF iter   8:  -310.20805845218092   -3.82867e-03   1.46756e-04 DIIS
   @DF-RHF iter   9:  -310.20836480756793   -3.06355e-04   5.23393e-05 DIIS
   @DF-RHF iter  10:  -310.20839470099384   -2.98934e-05   1.47353e-05 DIIS
   @DF-RHF iter  11:  -310.20839742890007   -2.72791e-06   3.71786e-06 DIIS
   @DF-RHF iter  12:  -310.20839767906227   -2.50162e-07   1.00062e-06 DIIS
   @DF-RHF iter  13:  -310.20839769251666   -1.34544e-08   3.18461e-07 DIIS
   @DF-RHF iter  14:  -310.20839769432996   -1.81331e-09   5.44970e-08 DIIS
   @DF-RHF iter  15:  -310.20839769440056   -7.05995e-11   1.14719e-08 DIIS
   @DF-RHF iter  16:  -310.20839769440329   -2.72848e-12   3.58984e-09 DIIS

  ==> Post-Iterations <==

    Orbital Energies (a.u.)
    -----------------------

    Doubly Occupied:                                                      

       1A    -20.551804     2A    -11.267041     3A    -11.216497  
       4A    -11.213557     5A    -11.212080     6A    -11.210359  
       7A    -11.208410     8A     -1.358628     9A     -1.085424  
      10A     -1.033749    11A     -0.956037    12A     -0.870500  
      13A     -0.803974    14A     -0.787014    15A     -0.692385  
      16A     -0.661201    17A     -0.621211    18A     -0.606752  
      19A     -0.586409    20A     -0.564076    21A     -0.539775  
      22A     -0.523656    23A     -0.507718    24A     -0.486289  
      25A     -0.478621    26A     -0.462405    27A     -0.452718  
      28A     -0.442084    29A     -0.433927  

    Virtual:                                                              

      30A      0.229380    31A      0.230769    32A      0.251277  
      33A      0.269753    34A      0.273481    35A      0.301906  
      36A      0.306311    37A      0.319089    38A      0.329009  
      39A      0.330517    40A      0.348362    41A      0.358348  
      42A      0.362353    43A      0.365611    44A      0.389489  
      45A      0.407478    46A      0.456133    47A      0.460645  
      48A      0.480515    49A      0.509230    50A      0.709729  
      51A      0.725484    52A      0.742417    53A      0.744594  
      54A      0.774315    55A      0.791261    56A      0.804704  
      57A      0.844877    58A      0.856930    59A      0.903743  
      60A      0.934230    61A      0.963861    62A      0.973401  
      63A      0.996782    64A      1.038271    65A      1.052625  
      66A      1.097705    67A      1.115539    68A      1.130612  
      69A      1.144646    70A      1.155335    71A      1.165784  
      72A      1.172250    73A      1.188946    74A      1.198056  
      75A      1.202637    76A      1.210443    77A      1.223268  
      78A      1.248988    79A      1.256989    80A      1.258210  
      81A      1.268868    82A      1.279081    83A      1.293294  
      84A      1.387264    85A      1.448668    86A      1.518036  
      87A      1.613806    88A      1.658750    89A      1.699259  
      90A      1.728889    91A      1.807261    92A      1.829504  
      93A      1.909647    94A      1.921206    95A      1.975378  
      96A      2.035004    97A      2.064834    98A      2.123853  
      99A      2.189731   100A      2.198986   101A      2.241070  
     102A      2.247791   103A      2.278613   104A      2.290792  
     105A      2.317594   106A      2.337998   107A      2.377404  
     108A      2.432458   109A      2.464365   110A      2.507634  
     111A      2.563104   112A      2.624494   113A      2.650978  
     114A      2.679588   115A      2.700833   116A      2.744349  
     117A      2.790522   118A      2.806873   119A      2.821125  
     120A      2.885027   121A      2.933943   122A      2.960859  
     123A      3.013797   124A      3.093417   125A      3.193911  
     126A      3.266725   127A      4.209782   128A      4.557075  
     129A      4.629796   130A      4.726379   131A      4.823470  
     132A      4.917190   133A      5.007133  

    Final Occupation by Irrep:
              A 
    DOCC [    29 ]

  Energy converged.

  @DF-RHF Final Energy:  -310.20839769440329

   => Energetics <=

    Nuclear Repulsion Energy =            309.8863647177902294
    One-Electron Energy =               -1034.5209155872721567
    Two-Electron Energy =                 414.4261531750783547
    DFT Exchange-Correlation Energy =       0.0000000000000000
    Empirical Dispersion Energy =           0.0000000000000000
    PCM Polarization Energy =               0.0000000000000000
    EFP Energy =                            0.0000000000000000
    Total Energy =                       -310.2083976944035726

    Alert: EFP and PCM quantities not currently incorporated into SCF psivars.

Properties will be evaluated at   0.000000,   0.000000,   0.000000 Bohr
  ==> Properties <==


Properties computed using the SCF density matrix

  Nuclear Dipole Moment: (a.u.)
     X:     7.9010      Y:     0.6919      Z:     0.0944

  Electronic Dipole Moment: (a.u.)
     X:    -7.8302      Y:    -0.1463      Z:     0.2481

  Dipole Moment: (a.u.)
     X:     0.0708      Y:     0.5456      Z:     0.3425     Total:     0.6481

  Dipole Moment: (Debye)
     X:     0.1799      Y:     1.3868      Z:     0.8705     Total:     1.6472


  Saving occupied orbitals to File 180.

*** tstop() called on cx1-1-1-4.cx1.hpc.ic.ac.uk at Fri Sep  2 14:35:31 2016
Module time:
	user time   =      16.35 seconds =       0.27 minutes
	system time =       0.17 seconds =       0.00 minutes
	total time  =          6 seconds =       0.10 minutes
Total time:
	user time   =      16.35 seconds =       0.27 minutes
	system time =       0.17 seconds =       0.00 minutes
	total time  =          6 seconds =       0.10 minutes

*** tstart() called on cx1-1-1-4.cx1.hpc.ic.ac.uk
*** at Fri Sep  2 14:35:31 2016


         ------------------------------------------------------------
                                   SCF GRAD                          
                          Rob Parrish, Justin Turney,                
                       Andy Simmonett, and Alex Sokolov              
         ------------------------------------------------------------

  ==> Geometry <==

    Molecular point group: c1
    Full point group: C1

    Geometry (in Angstrom), charge = 0, multiplicity = 1:

       Center              X                  Y                   Z               Mass       
    ------------   -----------------  -----------------  -----------------  -----------------
           H         -4.301572174592     0.668070026404     0.114218109870     1.007825032070
           O         -3.582188174592     0.103775026404    -0.130653890130    15.994914619560
           C         -2.371964174592     0.662320026404     0.312038109870    12.000000000000
           C         -1.242941174592    -0.267224973596    -0.096618890130    12.000000000000
           H         -2.221386174592     1.647541026404    -0.127248890130     1.007825032070
           H         -2.380093174592     0.785650026404     1.394195109870     1.007825032070
           C          0.133023825408     0.240997026404     0.337303109870    12.000000000000
           H         -1.273921174592    -0.388792973596    -1.175965890130     1.007825032070
           H         -1.433819174592    -1.246587973596     0.333370109870     1.007825032070
           C          1.266725825408    -0.697813973596    -0.084306890130    12.000000000000
           H          0.296864825408     1.230804026404    -0.081756890130     1.007825032070
           H          0.152186825408     0.359038026404     1.419993109870     1.007825032070
           C          2.658540825408    -0.280602973596     0.403920109870    12.000000000000
           H          1.277885825408    -0.782621973596    -1.169658890130     1.007825032070
           H          1.051727825408    -1.694376973596     0.295240109870     1.007825032070
           C          3.621976825408     0.142062026404    -0.706700890130    12.000000000000
           H          3.096723825408    -1.114944973596     0.946097109870     1.007825032070
           H          2.559235825408     0.529354026404     1.123832109870     1.007825032070
           H          3.731154825408    -0.644461973596    -1.448656890130     1.007825032070
           H          3.284001825408     1.036278026404    -1.219855890130     1.007825032070
           H          4.607367825408     0.352562026404    -0.302413890130     1.007825032070

  Nuclear repulsion =  309.886364717790229

  ==> Basis Set <==

  Basis Set: 6-31G*
    Number of shells: 70
    Number of basis function: 133
    Number of Cartesian functions: 133
    Spherical Harmonics?: false
    Max angular momentum: 2

  ==> DFJKGrad: Density-Fitted SCF Gradients <==

    Gradient:                    1
    J tasked:                  Yes
    K tasked:                  Yes
    wK tasked:                  No
    OpenMP threads:              4
    Integrals threads:           4
    Memory (MB):              1430
    Schwarz Cutoff:          0E+00
    Fitting Condition:       1E-12

   => Auxiliary Basis Set <=

  Basis Set: 
    Number of shells: 294
    Number of basis function: 917
    Number of Cartesian functions: 917
    Spherical Harmonics?: false
    Max angular momentum: 3


  -Total Gradient:
     Atom            X                  Y                   Z
    ------   -----------------  -----------------  -----------------
       1        0.000010367150    -0.000005142809    -0.000001716505
       2        0.000016284297    -0.000010197682    -0.000002367379
       3        0.000015613726     0.000030844522     0.000010887807
       4        0.000044020041    -0.000359178108     0.000046308116
       5        0.000020040155    -0.000006818517     0.000001008767
       6        0.000008294971    -0.000003993479    -0.000006460308
       7        0.001083301154     0.001498347974     0.000096936326
       8        0.000023358339     0.000017574914     0.000004088328
       9       -0.000078444172     0.000006880082    -0.000016859492
      10        0.003580380632     0.003119344366     0.003243002395
      11       -0.001769073730    -0.001072001356     0.000284077460
      12        0.000015171068     0.000154855685     0.000373275364
      13       -0.003944249792    -0.001230707739    -0.003936642766
      14        0.001998922171     0.000644149738    -0.000723487623
      15        0.002245296865    -0.000760305253     0.001444426491
      16       -0.000900312706     0.000476809909    -0.001075718928
      17       -0.001913007613    -0.002038142344    -0.000104421125
      18       -0.002047215674     0.000451683566     0.000124607211
      19        0.000012491837    -0.000216520490    -0.000374045648
      20        0.001845721168    -0.000463978711     0.000476584838
      21       -0.000266959881    -0.000233504266     0.000136516671


*** tstop() called on cx1-1-1-4.cx1.hpc.ic.ac.uk at Fri Sep  2 14:35:37 2016
Module time:
	user time   =      21.67 seconds =       0.36 minutes
	system time =       0.17 seconds =       0.00 minutes
	total time  =          6 seconds =       0.10 minutes
Total time:
	user time   =      38.04 seconds =       0.63 minutes
	system time =       0.34 seconds =       0.01 minutes
	total time  =         12 seconds =       0.20 minutes
CURRENT ENERGY: -310.2083976944

			-----------------------------------------
			 OPTKING 2.0: for geometry optimizations 
			  - R.A. King,  Bethel University        
			-----------------------------------------

	Internal coordinates to be generated automatically.
	Detected frag with atoms:  1 2 3 4 5 6 7 8 9 10 11 12 13 14 15 16 17 18 19 20
	 21
	---Fragment 1 Bond Connectivity---
	 1 : 2
	 2 : 1 3
	 3 : 2 4 5 6
	 4 : 3 7 8 9
	 5 : 3
	 6 : 3
	 7 : 4 10 11 12
	 8 : 4
	 9 : 4
	 10 : 7 13 14 15
	 11 : 7
	 12 : 7
	 13 : 10 16 17 18
	 14 : 10
	 15 : 10
	 16 : 13 19 20 21
	 17 : 13
	 18 : 13
	 19 : 16
	 20 : 16
	 21 : 16

	Assuming in current code that numbering for constraints corresponds to unified fragment.
	Frozen dihedral atom list: 
	    16    13    10    14
	---Fragment 1 Geometry and Gradient---
	 H          -8.1287933508        1.2624693875        0.2158409471
	 O          -6.7693546064        0.1961063793       -0.2469000705
	 C          -4.4823626870        1.2516034622        0.5896665707
	 C          -2.3488184193       -0.5049820160       -0.1825832416
	 H          -4.1978115054        3.1134013326       -0.2404655531
	 H          -4.4977242707        1.4846633862        2.6346469335
	 C           0.2513785992        0.4554183787        0.6374105014
	 H          -2.4073621349       -0.7347122425       -2.2222534740
	 H          -2.7095255641       -2.3557098706        0.6299782085
	 C           2.3937648955       -1.3186773018       -0.1593169335
	 H           0.5609932185        2.3258825332       -0.1544981318
	 H           0.2875914211        0.6784835412        2.6833980882
	 C           5.0239140731       -0.5302627722        0.7632983872
	 H           2.4148542391       -1.4789411957       -2.2103349712
	 H           1.9874775564       -3.2019084460        0.5579229511
	 C           6.8445442597        0.2684583238       -1.3354711402
	 H           5.8519599392       -2.1069406533        1.7878644328
	 H           4.8362548195        1.0003341372        2.1237349070
	 H           7.0508607794       -1.2178566332       -2.7375647829
	 H           6.2058640699        1.9582816674       -2.3051935539
	 H           8.7066633835        0.6662456748       -0.5714794311
	             0.0000103671       -0.0000051428       -0.0000017165
	             0.0000162843       -0.0000101977       -0.0000023674
	             0.0000156137        0.0000308445        0.0000108878
	             0.0000440200       -0.0003591781        0.0000463081
	             0.0000200402       -0.0000068185        0.0000010088
	             0.0000082950       -0.0000039935       -0.0000064603
	             0.0010833012        0.0014983480        0.0000969363
	             0.0000233583        0.0000175749        0.0000040883
	            -0.0000784442        0.0000068801       -0.0000168595
	             0.0035803806        0.0031193444        0.0032430024
	            -0.0017690737       -0.0010720014        0.0002840775
	             0.0000151711        0.0001548557        0.0003732754
	            -0.0039442498       -0.0012307077       -0.0039366428
	             0.0019989222        0.0006441497       -0.0007234876
	             0.0022452969       -0.0007603053        0.0014444265
	            -0.0009003127        0.0004768099       -0.0010757189
	            -0.0019130076       -0.0020381423       -0.0001044211
	            -0.0020472157        0.0004516836        0.0001246072
	             0.0000124918       -0.0002165205       -0.0003740456
	             0.0018457212       -0.0004639787        0.0004765848
	            -0.0002669599       -0.0002335043        0.0001365167

	Previous optimization step data not found.  Starting new optimization.

	---Fragment 1 Intrafragment Coordinates---
	 - Coordinate -           - BOHR/RAD -       - ANG/DEG -
	 R(1,2)           =         1.788668	       0.946522
	 R(2,3)           =         2.654101	       1.404490
	 R(3,4)           =         2.869490	       1.518469
	 R(3,5)           =         2.058247	       1.089177
	 R(3,6)           =         2.058275	       1.089193
	 R(4,7)           =         2.890637	       1.529659
	 R(4,8)           =         2.053402	       1.086613
	 R(4,9)           =         2.053183	       1.086498
	 R(7,10)          =         2.893442	       1.531144
	 R(7,11)          =         2.054657	       1.087278
	 R(7,12)          =         2.058430	       1.089274
	 R(10,13)         =         2.896636	       1.532834
	 R(10,14)         =         2.057378	       1.088718
	 R(10,15)         =         2.055739	       1.087850
	 R(13,16)         =         2.890931	       1.529815
	 R(13,17)         =         2.054582	       1.087238
	 R(13,18)         =         2.056388	       1.088194
	 R(16,19)         =         2.053671	       1.086756
	 R(16,20)         =         2.050311	       1.084978
	 R(16,21)         =         2.051684	       1.085704
	 B(1,2,3)         =         1.913748	     109.649689
	 B(2,3,4)         =         1.888525	     108.204537
	 B(2,3,5)         =         1.930215	     110.593156
	 B(2,3,6)         =         1.930248	     110.595064
	 B(3,4,7)         =         1.970440	     112.897910
	 B(3,4,8)         =         1.890846	     108.337479
	 B(3,4,9)         =         1.890900	     108.340593
	 B(4,3,5)         =         1.920263	     110.022957
	 B(4,3,6)         =         1.920107	     110.014044
	 B(4,7,10)        =         1.965146	     112.594569
	 B(4,7,11)        =         1.905697	     109.188416
	 B(4,7,12)        =         1.911114	     109.498777
	 B(5,3,6)         =         1.874780	     107.416960
	 B(7,4,8)         =         1.922601	     110.156906
	 B(7,4,9)         =         1.923300	     110.196987
	 B(7,10,13)       =         2.001729	     114.690605
	 B(7,10,14)       =         1.906948	     109.260096
	 B(7,10,15)       =         1.895772	     108.619733
	 B(8,4,9)         =         1.862157	     106.693725
	 B(10,7,11)       =         1.918218	     109.905795
	 B(10,7,12)       =         1.904040	     109.093468
	 B(10,13,16)      =         1.999618	     114.569678
	 B(10,13,17)      =         1.892210	     108.415647
	 B(10,13,18)      =         1.907572	     109.295803
	 B(11,7,12)       =         1.856454	     106.366983
	 B(13,10,14)      =         1.906488	     109.233743
	 B(13,10,15)      =         1.894065	     108.521957
	 B(13,16,19)      =         1.937948	     111.036267
	 B(13,16,20)      =         1.955080	     112.017848
	 B(13,16,21)      =         1.933513	     110.782139
	 B(14,10,15)      =         1.853011	     106.169707
	 B(16,13,17)      =         1.896774	     108.677165
	 B(16,13,18)      =         1.909341	     109.397182
	 B(17,13,18)      =         1.852566	     106.144217
	 B(19,16,20)      =         1.880606	     107.750811
	 B(19,16,21)      =         1.879022	     107.660052
	 B(20,16,21)      =         1.874490	     107.400371
	 D(1,2,3,4)       =         3.141264	     179.981145
	 D(1,2,3,5)       =        -1.037555	     -59.447524
	 D(1,2,3,6)       =         1.037068	      59.419599
	 D(2,3,4,7)       =        -3.140096	    -179.914264
	 D(2,3,4,8)       =         1.008881	      57.804620
	 D(2,3,4,9)       =        -1.004961	     -57.580033
	 D(3,4,7,10)      =        -3.136579	    -179.712732
	 D(3,4,7,11)      =        -1.000923	     -57.348658
	 D(3,4,7,12)      =         1.025189	      58.739027
	 D(4,7,10,13)     =        -3.076481	    -176.269359
	 D(4,7,10,14)     =         1.059867	      60.725880
	 D(4,7,10,15)     =        -0.954328	     -54.678976
	 D(5,3,4,7)       =         1.032532	      59.159702
	 D(5,3,4,8)       =        -1.101677	     -63.121414
	 D(5,3,4,9)       =        -3.115519	    -178.506067
	 D(6,3,4,7)       =        -1.029592	     -58.991259
	 D(6,3,4,8)       =         3.119386	     178.727625
	 D(6,3,4,9)       =         1.105543	      63.342972
	 D(7,10,13,16)    =        -1.972552	    -113.018913
	 D(7,10,13,17)    =         2.189059	     125.423838
	 D(7,10,13,18)    =         0.177002	      10.141460
	 D(8,4,7,10)      =        -1.020276	     -58.457537
	 D(8,4,7,11)      =         1.115379	      63.906537
	 D(8,4,7,12)      =         3.141492	     179.994222
	 D(9,4,7,10)      =         1.029732	      58.999320
	 D(9,4,7,11)      =        -3.117797	    -178.636605
	 D(9,4,7,12)      =        -1.091685	     -62.548921
	 D(10,13,16,19)   =        -0.980490	     -56.177915
	 D(10,13,16,20)   =         1.123016	      64.344095
	 D(10,13,16,21)   =        -3.067516	    -175.755747
	 D(11,7,10,13)    =         1.078118	      61.771632
	 D(11,7,10,14)    =        -1.068720	     -61.233129
	 D(11,7,10,15)    =        -3.082914	    -176.637985
	 D(12,7,10,13)    =        -0.951048	     -54.491021
	 D(12,7,10,14)    =        -3.097886	    -177.495783
	 D(12,7,10,15)    =         1.171105	      67.099361
	*D(14,10,13,16)   =         0.174533	      10.000010
	 D(14,10,13,17)   =        -1.947041	    -111.557238
	 D(14,10,13,18)   =         2.324087	     133.160384
	 D(15,10,13,16)   =         2.187549	     125.337342
	 D(15,10,13,17)   =         0.065975	       3.780094
	 D(15,10,13,18)   =        -1.946082	    -111.502284
	 D(17,13,16,19)   =         1.138584	      65.236077
	 D(17,13,16,20)   =        -3.041095	    -174.241913
	 D(17,13,16,21)   =        -0.948443	     -54.341755
	 D(18,13,16,19)   =        -3.129092	    -179.283755
	 D(18,13,16,20)   =        -1.025586	     -58.761745
	 D(18,13,16,21)   =         1.067067	      61.138413

	Current energy   :      -310.2083976944

	Generating empirical Hessian (Schlegel '84) for each fragment.
	Taking RFO optimization step.
	Going to follow RFO solution 1.
	Using RFO vector 1.
	Norm of target step-size    0.46471
	Projected energy change by RFO approximation:        -0.0039971649

	Back-transformation to cartesian coordinates...
	Successfully converged to displaced geometry.

	Back-transformation to cartesian coordinates to adjust frozen coordinates...
	Successfully converged to displaced geometry.

	--- Internal Coordinate Step in ANG or DEG, aJ/ANG or AJ/DEG ---
	 ---------------------------------------------------------------------------
	   Coordinate                Previous        Force       Change         New 
	   ----------                --------       ------       ------       ------
	    1 R(1,2)          =      0.946522     0.000094     0.000010     0.946533
	    2 R(2,3)          =      1.404490     0.000128     0.000018     1.404508
	    3 R(3,4)          =      1.518469     0.000406     0.000085     1.518554
	    4 R(3,5)          =      1.089177     0.000031     0.000006     1.089183
	    5 R(3,6)          =      1.089193     0.000057     0.000010     1.089203
	    6 R(4,7)          =      1.529659    -0.000381    -0.000083     1.529577
	    7 R(4,8)          =      1.086613     0.000055     0.000010     1.086623
	    8 R(4,9)          =      1.086498    -0.000007    -0.000001     1.086496
	    9 R(7,10)         =      1.531144    -0.006787    -0.001479     1.529665
	   10 R(7,11)         =      1.087278     0.011139     0.002028     1.089306
	   11 R(7,12)         =      1.089274    -0.003197    -0.000586     1.088689
	   12 R(10,13)        =      1.532834     0.073733     0.016154     1.548987
	   13 R(10,14)        =      1.088718    -0.005698    -0.001042     1.087675
	   14 R(10,15)        =      1.087850    -0.006234    -0.001137     1.086713
	   15 R(13,16)        =      1.529815    -0.007594    -0.001648     1.528167
	   16 R(13,17)        =      1.087238    -0.006105    -0.001111     1.086127
	   17 R(13,18)        =      1.088194    -0.004988    -0.000911     1.087283
	   18 R(16,19)        =      1.086756    -0.003405    -0.000619     1.086137
	   19 R(16,20)        =      1.084978     0.009744     0.001760     1.086739
	   20 R(16,21)        =      1.085704     0.001950     0.000353     1.086057
	   21 B(1,2,3)        =    109.649689     0.000000     0.001696   109.651385
	   22 B(2,3,4)        =    108.204537     0.000003     0.009839   108.214377
	   23 B(2,3,5)        =    110.593156    -0.000002    -0.009456   110.583699
	   24 B(2,3,6)        =    110.595064    -0.000001    -0.006334   110.588730
	   25 B(3,4,7)        =    112.897910     0.000008     0.029865   112.927775
	   26 B(3,4,8)        =    108.337479    -0.000003     0.007570   108.345049
	   27 B(3,4,9)        =    108.340593     0.000001     0.004034   108.344627
	   28 B(4,3,5)        =    110.022957     0.000001     0.007248   110.030205
	   29 B(4,3,6)        =    110.014044    -0.000000     0.001485   110.015529
	   30 B(4,7,10)       =    112.594569     0.000082     0.319671   112.914240
	   31 B(4,7,11)       =    109.188416     0.000045     0.378054   109.566471
	   32 B(4,7,12)       =    109.498777    -0.000021     0.145289   109.644065
	   33 B(5,3,6)        =    107.416960    -0.000000    -0.002854   107.414106
	   34 B(7,4,8)        =    110.156906     0.000000     0.020820   110.177726
	   35 B(7,4,9)        =    110.196987    -0.000008    -0.057216   110.139771
	   36 B(7,10,13)      =    114.690605    -0.000263    -0.963615   113.726990
	   37 B(7,10,14)      =    109.260096    -0.000012    -1.381318   107.878779
	   38 B(7,10,15)      =    108.619733     0.000001     0.037711   108.657444
	   39 B(8,4,9)        =    106.693725     0.000001    -0.006355   106.687370
	   40 B(10,7,11)      =    109.905795    -0.000105    -0.745619   109.160177
	   41 B(10,7,12)      =    109.093468    -0.000015    -0.021999   109.071469
	   42 B(10,13,16)     =    114.569678    -0.000250    -0.787578   113.782100
	   43 B(10,13,17)     =    108.415647     0.000230     1.752437   110.168084
	   44 B(10,13,18)     =    109.295803     0.000136     0.568927   109.864731
	   45 B(11,7,12)      =    106.366983     0.000010    -0.102280   106.264702
	   46 B(13,10,14)     =    109.233743     0.000143     0.390197   109.623940
	   47 B(13,10,15)     =    108.521957     0.000230     2.100757   110.622713
	   48 B(13,16,19)     =    111.036267     0.000002    -0.051740   110.984526
	   49 B(13,16,20)     =    112.017848    -0.000142    -0.756001   111.261847
	   50 B(13,16,21)     =    110.782139     0.000065     0.455406   111.237545
	   51 B(14,10,15)     =    106.169707    -0.000089    -0.161081   106.008626
	   52 B(16,13,17)     =    108.677165     0.000003    -0.307287   108.369879
	   53 B(16,13,18)     =    109.397182    -0.000024    -0.705299   108.691883
	   54 B(17,13,18)     =    106.144217    -0.000082    -0.516782   105.627435
	   55 B(19,16,20)     =    107.750811     0.000036    -0.113615   107.637196
	   56 B(19,16,21)     =    107.660052    -0.000011     0.126011   107.786063
	   57 B(20,16,21)     =    107.400371     0.000055     0.364649   107.765021
	   58 D(1,2,3,4)      =    179.981145    -0.000000    -0.001166   179.979979
	   59 D(1,2,3,5)      =    -59.447524     0.000000     0.008222   -59.439301
	   60 D(1,2,3,6)      =     59.419599    -0.000000    -0.005368    59.414231
	   61 D(2,3,4,7)      =   -179.914264     0.000001     0.048305  -179.865959
	   62 D(2,3,4,8)      =     57.804620    -0.000000    -0.003211    57.801409
	   63 D(2,3,4,9)      =    -57.580033    -0.000000    -0.001816   -57.581849
	   64 D(3,4,7,10)     =   -179.712732     0.000005     0.097812  -179.614920
	   65 D(3,4,7,11)     =    -57.348658    -0.000006    -0.368331   -57.716989
	   66 D(3,4,7,12)     =     58.739027     0.000000    -0.193939    58.545087
	   67 D(4,7,10,13)    =   -176.269359    -0.000013    -7.542955  -183.812314
	   68 D(4,7,10,14)    =     60.725880    -0.000011    -6.358312    54.367568
	   69 D(4,7,10,15)    =    -54.678976     0.000015    -5.458281   -60.137257
	   70 D(5,3,4,7)      =     59.159702     0.000001     0.049385    59.209087
	   71 D(5,3,4,8)      =    -63.121414    -0.000000    -0.002131   -63.123545
	   72 D(5,3,4,9)      =   -178.506067    -0.000000    -0.000736  -178.506803
	   73 D(6,3,4,7)      =    -58.991259     0.000001     0.047572   -58.943687
	   74 D(6,3,4,8)      =    178.727625    -0.000000    -0.003944   178.723681
	   75 D(6,3,4,9)      =     63.342972    -0.000000    -0.002549    63.340423
	   76 D(7,10,13,16)   =   -113.018913     0.000021     2.171981  -110.846932
	   77 D(7,10,13,17)   =    125.423838     0.000020     1.808213   127.232051
	   78 D(7,10,13,18)   =     10.141460    -0.000003     1.124653    11.266113
	   79 D(8,4,7,10)     =    -58.457537     0.000005     0.142980   -58.314557
	   80 D(8,4,7,11)     =     63.906537    -0.000005    -0.323163    63.583374
	   81 D(8,4,7,12)     =    179.994222     0.000001    -0.148771   179.845450
	   82 D(9,4,7,10)     =     58.999320     0.000005     0.113192    59.112512
	   83 D(9,4,7,11)     =   -178.636605    -0.000006    -0.352952  -178.989557
	   84 D(9,4,7,12)     =    -62.548921    -0.000000    -0.178560   -62.727481
	   85 D(10,13,16,19)  =    -56.177915    -0.000010    -6.020641   -62.198555
	   86 D(10,13,16,20)  =     64.344095    -0.000021    -6.710530    57.633565
	   87 D(10,13,16,21)  =   -175.755747    -0.000017    -6.446756  -182.202502
	   88 D(11,7,10,13)   =     61.771632    -0.000022    -7.710276    54.061356
	   89 D(11,7,10,14)   =    -61.233129    -0.000020    -6.525632   -67.758762
	   90 D(11,7,10,15)   =   -176.637985     0.000006    -5.625602  -182.263587
	   91 D(12,7,10,13)   =    -54.491021    -0.000009    -7.159373   -61.650394
	   92 D(12,7,10,14)   =   -177.495783    -0.000007    -5.974729  -183.470512
	   93 D(12,7,10,15)   =     67.099361     0.000019    -5.074699    62.024663
	   94 *D(14,10,13,16) =     10.000010     0.000000    -0.000000    10.000010
	   95 D(14,10,13,17)  =   -111.557238    -0.000001    -0.363769  -111.921007
	   96 D(14,10,13,18)  =    133.160384    -0.000024    -1.047328   132.113055
	   97 D(15,10,13,16)  =    125.337342     0.000022     1.215059   126.552401
	   98 D(15,10,13,17)  =      3.780094     0.000021     0.851290     4.631384
	   99 D(15,10,13,18)  =   -111.502284    -0.000002     0.167731  -111.334553
	  100 D(17,13,16,19)  =     65.236077     0.000020    -4.523608    60.712469
	  101 D(17,13,16,20)  =   -174.241913     0.000009    -5.213498  -179.455411
	  102 D(17,13,16,21)  =    -54.341755     0.000013    -4.949723   -59.291478
	  103 D(18,13,16,19)  =   -179.283755    -0.000005    -5.673383  -184.957138
	  104 D(18,13,16,20)  =    -58.761745    -0.000017    -6.363273   -65.125018
	  105 D(18,13,16,21)  =     61.138413    -0.000012    -6.099498    55.038915
	 ---------------------------------------------------------------------------

  ==> Convergence Check <==

  Measures of convergence in internal coordinates in au.
  Criteria marked as inactive (o), active & met (*), and active & unmet ( ).
  --------------------------------------------------------------------------------------------- ~
   Step     Total Energy     Delta E     MAX Force     RMS Force      MAX Disp      RMS Disp    ~
  --------------------------------------------------------------------------------------------- ~
    Convergence Criteria    1.00e-06 *    3.00e-04 *             o    1.20e-03 *             o  ~
  --------------------------------------------------------------------------------------------- ~
      1    -310.20839769   -3.10e+02      8.95e-03      1.26e-03 o    1.35e-01      4.54e-02 o  ~
  ---------------------------------------------------------------------------------------------

	Writing optimization data to binary file.
	Structure for next step:
	Cartesian Geometry (in Angstrom)
	    H    -4.2686353139   0.7483157411   0.0245359819
	    O    -3.5548159263   0.1771984496  -0.2208433162
	    C    -2.3497414786   0.6770912452   0.2992964119
	    C    -1.2294076167  -0.2617493154  -0.1123299776
	    H    -2.1551952906   1.6791939933  -0.0805216673
	    H    -2.3998737668   0.7441353712   1.3852775133
	    C     0.1402091090   0.1825344361   0.4037778847
	    H    -1.2183636225  -0.3261947707  -1.1969844141
	    H    -1.4637066305  -1.2563465061   0.2569320825
	    C     1.2698235835  -0.7583035941  -0.0189153457
	    H     0.3577266852   1.1870716774   0.0429765789
	    H     0.1186393686   0.2468265848   1.4903523096
	    C     2.6769373892  -0.2767684399   0.4141168786
	    H     1.2346601516  -0.8570396399  -1.1015291772
	    H     1.0648330325  -1.7484909860   0.3791465892
	    C     3.5623044754   0.1655013827  -0.7502784982
	    H     3.1921144397  -1.0647146311   0.9557859654
	    H     2.5852250714   0.5490735820   1.1153712495
	    H     3.7503931727  -0.6595788679  -1.4311303985
	    H     3.0937762189   0.9629645884  -1.3208346419
	    H     4.5226289638   0.5303023028  -0.3978326912
			--------------------------
			 OPTKING Finished Execution 
			--------------------------

    Structure for next step:
    Molecular point group: c1
    Full point group: C1

    Geometry (in Angstrom), charge = 0, multiplicity = 1:

    H           -4.273165566656     0.745228487705     0.030234705591
    O           -3.559346233595     0.174111239810    -0.215144573812
    C           -2.354271877894     0.674003997281     0.304995114532
    C           -1.233938101575    -0.264836491640    -0.106631243503
    H           -2.159725704763     1.676106668849    -0.074822935610
    H           -2.404404162287     0.741048118156     1.390976133055
    C            0.135678519581     0.179447225976     0.409476579395
    H           -1.222894108219    -0.329281942038    -1.191285597126
    H           -1.468237097410    -1.259433606426     0.262630788380
    C            1.265292907779    -0.761390732390    -0.013216618679
    H            0.353196079198     1.183984390532     0.048675301144
    H            0.114108780796     0.243739369731     1.496050921285
    C            2.672406606048    -0.279855614969     0.419815572524
    H            1.230129478613    -0.860126770663    -1.095830367506
    H            1.060302372509    -1.751578048659     0.384845285735
    C            3.557773624690     0.162414173887    -0.744579715350
    H            3.187583617227    -1.067801746005     0.961484617927
    H            2.580694295223     0.545986343829     1.121069889853
    H            3.745862307602    -0.662666013759    -1.425431563645
    H            3.089245403901     0.959877318653    -1.315135815471
    H            4.518098039728     0.527215066087    -0.392133935236

gradient() will perform analytic gradient computation.

*** tstart() called on cx1-1-1-4.cx1.hpc.ic.ac.uk
*** at Fri Sep  2 14:35:38 2016


         ---------------------------------------------------------
                                   SCF
            by Justin Turney, Rob Parrish, and Andy Simmonett
                              RHF Reference
                        4 Threads,   2000 MiB Core
         ---------------------------------------------------------

  ==> Geometry <==

    Molecular point group: c1
    Full point group: C1

    Geometry (in Angstrom), charge = 0, multiplicity = 1:

       Center              X                  Y                   Z               Mass       
    ------------   -----------------  -----------------  -----------------  -----------------
           H         -4.273165566656     0.745228487705     0.030234705591     1.007825032070
           O         -3.559346233595     0.174111239810    -0.215144573812    15.994914619560
           C         -2.354271877894     0.674003997281     0.304995114532    12.000000000000
           C         -1.233938101575    -0.264836491640    -0.106631243503    12.000000000000
           H         -2.159725704763     1.676106668849    -0.074822935610     1.007825032070
           H         -2.404404162287     0.741048118156     1.390976133055     1.007825032070
           C          0.135678519581     0.179447225976     0.409476579395    12.000000000000
           H         -1.222894108219    -0.329281942038    -1.191285597126     1.007825032070
           H         -1.468237097410    -1.259433606426     0.262630788380     1.007825032070
           C          1.265292907779    -0.761390732390    -0.013216618679    12.000000000000
           H          0.353196079198     1.183984390532     0.048675301144     1.007825032070
           H          0.114108780796     0.243739369731     1.496050921285     1.007825032070
           C          2.672406606048    -0.279855614969     0.419815572524    12.000000000000
           H          1.230129478613    -0.860126770663    -1.095830367506     1.007825032070
           H          1.060302372509    -1.751578048659     0.384845285735     1.007825032070
           C          3.557773624690     0.162414173887    -0.744579715350    12.000000000000
           H          3.187583617227    -1.067801746005     0.961484617927     1.007825032070
           H          2.580694295223     0.545986343829     1.121069889853     1.007825032070
           H          3.745862307602    -0.662666013759    -1.425431563645     1.007825032070
           H          3.089245403901     0.959877318653    -1.315135815471     1.007825032070
           H          4.518098039728     0.527215066087    -0.392133935236     1.007825032070

  Running in c1 symmetry.

  Rotational constants: A =      0.32902  B =      0.02515  C =      0.02510 [cm^-1]
  Rotational constants: A =   9863.88723  B =    753.87885  C =    752.56842 [MHz]
  Nuclear repulsion =  310.051704022166689

  Charge       = 0
  Multiplicity = 1
  Electrons    = 58
  Nalpha       = 29
  Nbeta        = 29

  ==> Algorithm <==

  SCF Algorithm Type is DF.
  DIIS enabled.
  MOM disabled.
  Fractional occupation disabled.
  Guess Type is READ.
  Energy threshold   = 1.00e-08
  Density threshold  = 1.00e-08
  Integral threshold = 0.00e+00

  ==> Primary Basis <==

  Basis Set: 6-31G*
    Number of shells: 70
    Number of basis function: 133
    Number of Cartesian functions: 133
    Spherical Harmonics?: false
    Max angular momentum: 2

  ==> Pre-Iterations <==

   -------------------------------------------------------
    Irrep   Nso     Nmo     Nalpha   Nbeta   Ndocc  Nsocc
   -------------------------------------------------------
     A        133     133       0       0       0       0
   -------------------------------------------------------
    Total     133     133      29      29      29       0
   -------------------------------------------------------

 OEINTS: Overlap, kinetic, potential, dipole, and quadrupole integrals
         stored in file 35.

  ==> Integral Setup <==

  ==> DFJK: Density-Fitted J/K Matrices <==

    J tasked:                  Yes
    K tasked:                  Yes
    wK tasked:                  No
    OpenMP threads:              4
    Integrals threads:           4
    Memory (MB):              1430
    Algorithm:                Core
    Integral Cache:           NONE
    Schwarz Cutoff:          1E-12
    Fitting Condition:       1E-12

   => Auxiliary Basis Set <=

  Basis Set: 
    Number of shells: 294
    Number of basis function: 917
    Number of Cartesian functions: 917
    Spherical Harmonics?: false
    Max angular momentum: 3

  Minimum eigenvalue in the overlap matrix is 3.0666475184E-03.
  Using Symmetric Orthogonalization.
  SCF Guess: Reading in previously saved MOs, projecting if necessary.

  Using orbitals from previous SCF, no projection.
  Recomputing DOCC and SOCC from number of alpha and beta electrons from previous calculation.
              A 
    DOCC [    29 ]

  ==> Iterations <==

                           Total Energy        Delta E     RMS |[F,P]|

   @DF-RHF iter   0:  -310.17714018210251   -3.10177e+02   1.30150e-03 
   @DF-RHF iter   1:  -310.20751621450285   -3.03760e-02   2.76153e-04 
   @DF-RHF iter   2:  -310.20878455056749   -1.26834e-03   9.48339e-05 DIIS
   @DF-RHF iter   3:  -310.20895651892550   -1.71968e-04   3.02896e-05 DIIS
   @DF-RHF iter   4:  -310.20896813367693   -1.16148e-05   4.02923e-06 DIIS
   @DF-RHF iter   5:  -310.20896853188589   -3.98209e-07   1.05674e-06 DIIS
   @DF-RHF iter   6:  -310.20896855317341   -2.12875e-08   4.01786e-07 DIIS
   @DF-RHF iter   7:  -310.20896855627137   -3.09797e-09   1.42342e-07 DIIS
   @DF-RHF iter   8:  -310.20896855666950   -3.98131e-10   3.73680e-08 DIIS
   @DF-RHF iter   9:  -310.20896855669656   -2.70575e-11   1.09671e-08 DIIS
   @DF-RHF iter  10:  -310.20896855669827   -1.70530e-12   2.40973e-09 DIIS

  ==> Post-Iterations <==

    Orbital Energies (a.u.)
    -----------------------

    Doubly Occupied:                                                      

       1A    -20.551880     2A    -11.267182     3A    -11.216334  
       4A    -11.214909     5A    -11.213479     6A    -11.210650  
       7A    -11.208453     8A     -1.358701     9A     -1.084589  
      10A     -1.032942    11A     -0.956598    12A     -0.868059  
      13A     -0.804231    14A     -0.788654    15A     -0.692430  
      16A     -0.661512    17A     -0.621930    18A     -0.604440  
      19A     -0.585872    20A     -0.564532    21A     -0.541046  
      22A     -0.521566    23A     -0.506565    24A     -0.486967  
      25A     -0.478012    26A     -0.462613    27A     -0.454701  
      28A     -0.441967    29A     -0.434018  

    Virtual:                                                              

      30A      0.228667    31A      0.230834    32A      0.252182  
      33A      0.270846    34A      0.275370    35A      0.301627  
      36A      0.308212    37A      0.320264    38A      0.325506  
      39A      0.334186    40A      0.344834    41A      0.354927  
      42A      0.359518    43A      0.365217    44A      0.388947  
      45A      0.407620    46A      0.454895    47A      0.460935  
      48A      0.475344    49A      0.508942    50A      0.711370  
      51A      0.725335    52A      0.741554    53A      0.745502  
      54A      0.774720    55A      0.792067    56A      0.803699  
      57A      0.848498    58A      0.856873    59A      0.898177  
      60A      0.931851    61A      0.962673    62A      0.970097  
      63A      0.996655    64A      1.032659    65A      1.055939  
      66A      1.096713    67A      1.116231    68A      1.129187  
      69A      1.144897    70A      1.157044    71A      1.166208  
      72A      1.172161    73A      1.189630    74A      1.197640  
      75A      1.205352    76A      1.209560    77A      1.223589  
      78A      1.250110    79A      1.253506    80A      1.260912  
      81A      1.267770    82A      1.279736    83A      1.293646  
      84A      1.383818    85A      1.453419    86A      1.516822  
      87A      1.615100    88A      1.659904    89A      1.696504  
      90A      1.725723    91A      1.805856    92A      1.827756  
      93A      1.909751    94A      1.929448    95A      1.963573  
      96A      2.034081    97A      2.066323    98A      2.118037  
      99A      2.180138   100A      2.197239   101A      2.235105  
     102A      2.250899   103A      2.277827   104A      2.295422  
     105A      2.317483   106A      2.343993   107A      2.376174  
     108A      2.430994   109A      2.462499   110A      2.505392  
     111A      2.565519   112A      2.614106   113A      2.648454  
     114A      2.676683   115A      2.705333   116A      2.748507  
     117A      2.783226   118A      2.808311   119A      2.821180  
     120A      2.885380   121A      2.926544   122A      2.962248  
     123A      3.012339   124A      3.087688   125A      3.193147  
     126A      3.266319   127A      4.209703   128A      4.554852  
     129A      4.629118   130A      4.725870   131A      4.821364  
     132A      4.916494   133A      5.005250  

    Final Occupation by Irrep:
              A 
    DOCC [    29 ]

  Energy converged.

  @DF-RHF Final Energy:  -310.20896855669827

   => Energetics <=

    Nuclear Repulsion Energy =            310.0517040221666889
    One-Electron Energy =               -1034.8516794421434497
    Two-Electron Energy =                 414.5910068632784942
    DFT Exchange-Correlation Energy =       0.0000000000000000
    Empirical Dispersion Energy =           0.0000000000000000
    PCM Polarization Energy =               0.0000000000000000
    EFP Energy =                            0.0000000000000000
    Total Energy =                       -310.2089685566983235

    Alert: EFP and PCM quantities not currently incorporated into SCF psivars.

Properties will be evaluated at   0.000000,   0.000000,   0.000000 Bohr
  ==> Properties <==


Properties computed using the SCF density matrix

  Nuclear Dipole Moment: (a.u.)
     X:     7.8115      Y:     0.6498      Z:     0.1877

  Electronic Dipole Moment: (a.u.)
     X:    -7.7396      Y:    -0.1240      Z:     0.1887

  Dipole Moment: (a.u.)
     X:     0.0719      Y:     0.5258      Z:     0.3764     Total:     0.6506

  Dipole Moment: (Debye)
     X:     0.1827      Y:     1.3365      Z:     0.9567     Total:     1.6537


  Saving occupied orbitals to File 180.

*** tstop() called on cx1-1-1-4.cx1.hpc.ic.ac.uk at Fri Sep  2 14:35:44 2016
Module time:
	user time   =      16.03 seconds =       0.27 minutes
	system time =       0.16 seconds =       0.00 minutes
	total time  =          6 seconds =       0.10 minutes
Total time:
	user time   =      55.41 seconds =       0.92 minutes
	system time =       0.55 seconds =       0.01 minutes
	total time  =         19 seconds =       0.32 minutes

*** tstart() called on cx1-1-1-4.cx1.hpc.ic.ac.uk
*** at Fri Sep  2 14:35:44 2016


         ------------------------------------------------------------
                                   SCF GRAD                          
                          Rob Parrish, Justin Turney,                
                       Andy Simmonett, and Alex Sokolov              
         ------------------------------------------------------------

  ==> Geometry <==

    Molecular point group: c1
    Full point group: C1

    Geometry (in Angstrom), charge = 0, multiplicity = 1:

       Center              X                  Y                   Z               Mass       
    ------------   -----------------  -----------------  -----------------  -----------------
           H         -4.273165566656     0.745228487705     0.030234705591     1.007825032070
           O         -3.559346233595     0.174111239810    -0.215144573812    15.994914619560
           C         -2.354271877894     0.674003997281     0.304995114532    12.000000000000
           C         -1.233938101575    -0.264836491640    -0.106631243503    12.000000000000
           H         -2.159725704763     1.676106668849    -0.074822935610     1.007825032070
           H         -2.404404162287     0.741048118156     1.390976133055     1.007825032070
           C          0.135678519581     0.179447225976     0.409476579395    12.000000000000
           H         -1.222894108219    -0.329281942038    -1.191285597126     1.007825032070
           H         -1.468237097410    -1.259433606426     0.262630788380     1.007825032070
           C          1.265292907779    -0.761390732390    -0.013216618679    12.000000000000
           H          0.353196079198     1.183984390532     0.048675301144     1.007825032070
           H          0.114108780796     0.243739369731     1.496050921285     1.007825032070
           C          2.672406606048    -0.279855614969     0.419815572524    12.000000000000
           H          1.230129478613    -0.860126770663    -1.095830367506     1.007825032070
           H          1.060302372509    -1.751578048659     0.384845285735     1.007825032070
           C          3.557773624690     0.162414173887    -0.744579715350    12.000000000000
           H          3.187583617227    -1.067801746005     0.961484617927     1.007825032070
           H          2.580694295223     0.545986343829     1.121069889853     1.007825032070
           H          3.745862307602    -0.662666013759    -1.425431563645     1.007825032070
           H          3.089245403901     0.959877318653    -1.315135815471     1.007825032070
           H          4.518098039728     0.527215066087    -0.392133935236     1.007825032070

  Nuclear repulsion =  310.051704022166689

  ==> Basis Set <==

  Basis Set: 6-31G*
    Number of shells: 70
    Number of basis function: 133
    Number of Cartesian functions: 133
    Spherical Harmonics?: false
    Max angular momentum: 2

  ==> DFJKGrad: Density-Fitted SCF Gradients <==

    Gradient:                    1
    J tasked:                  Yes
    K tasked:                  Yes
    wK tasked:                  No
    OpenMP threads:              4
    Integrals threads:           4
    Memory (MB):              1430
    Schwarz Cutoff:          0E+00
    Fitting Condition:       1E-12

   => Auxiliary Basis Set <=

  Basis Set: 
    Number of shells: 294
    Number of basis function: 917
    Number of Cartesian functions: 917
    Spherical Harmonics?: false
    Max angular momentum: 3


  -Total Gradient:
     Atom            X                  Y                   Z
    ------   -----------------  -----------------  -----------------
       1       -0.000012422224    -0.000005950118    -0.000001216477
       2       -0.000021837889     0.000042955816     0.000028236105
       3        0.000016126505     0.000005243087    -0.000167098570
       4       -0.000296431859    -0.000176928449    -0.000339165386
       5       -0.000048659322     0.000034687883     0.000006423023
       6        0.000001200528    -0.000000187134     0.000027150600
       7        0.000273851119    -0.000986515435    -0.000609866914
       8       -0.000029602303    -0.000062993382    -0.000043704385
       9        0.000048746292     0.000129269085     0.000009911169
      10       -0.000930344376    -0.001620016144     0.001419780127
      11        0.000059107334    -0.000003367008     0.000104928266
      12        0.000174850576    -0.000347816978    -0.000114658462
      13        0.000638455251     0.001398506776    -0.001074804870
      14       -0.001534872806     0.001431595072     0.000040074003
      15       -0.000988638451    -0.000132879837    -0.000410543970
      16        0.000689626517    -0.000581344040     0.001167279301
      17        0.000738882062     0.000686968741    -0.000044373918
      18        0.001082121511     0.000319167331    -0.000255044803
      19        0.000018793387    -0.000102414665     0.000217029801
      20       -0.000068179365    -0.000114516306     0.000034791592
      21        0.000189227512     0.000086535704     0.000004873768


*** tstop() called on cx1-1-1-4.cx1.hpc.ic.ac.uk at Fri Sep  2 14:35:50 2016
Module time:
	user time   =      22.76 seconds =       0.38 minutes
	system time =       0.19 seconds =       0.00 minutes
	total time  =          6 seconds =       0.10 minutes
Total time:
	user time   =      78.18 seconds =       1.30 minutes
	system time =       0.74 seconds =       0.01 minutes
	total time  =         25 seconds =       0.42 minutes
CURRENT ENERGY: -310.2089685567

			-----------------------------------------
			 OPTKING 2.0: for geometry optimizations 
			  - R.A. King,  Bethel University        
			-----------------------------------------

	Previous internal coordinate definitions found.
	---Fragment 1 Geometry and Gradient---
	 H          -8.0751126415        1.4082777482        0.0571353133
	 O          -6.7261895936        0.3290225599       -0.4065643235
	 C          -4.4489290916        1.2736829673        0.5763572383
	 C          -2.3318050769       -0.5004684392       -0.2015038474
	 H          -4.0812901042        3.1673825736       -0.1413948568
	 H          -4.5436653795        1.4003779946        2.6285639489
	 C           0.2563952441        0.3391061124        0.7737985929
	 H          -2.3109349541       -0.6222526910       -2.2512035246
	 H          -2.7745660122       -2.3799845987        0.4963002641
	 C           2.3910570736       -1.4388199643       -0.0249757897
	 H           0.6674438609        2.2374062437        0.0919829886
	 H           0.2156343451        0.4606006566        2.8271265221
	 C           5.0501166011       -0.5288504690        0.7933364584
	 H           2.3246078226       -1.6254040361       -2.0708192827
	 H           2.0036811021       -3.3100028123        0.7272521936
	 C           6.7232177935        0.3069183087       -1.4070517461
	 H           6.0236600622       -2.0178528642        1.8169426089
	 H           4.8768054507        1.0317646621        2.1185150676
	 H           7.0786538929       -1.2522572836       -2.6936752765
	 H           5.8378277706        1.8139052534       -2.4852465188
	 H           8.5379679366        0.9962920880       -0.7410257450
	            -0.0000124222       -0.0000059501       -0.0000012165
	            -0.0000218379        0.0000429558        0.0000282361
	             0.0000161265        0.0000052431       -0.0001670986
	            -0.0002964319       -0.0001769284       -0.0003391654
	            -0.0000486593        0.0000346879        0.0000064230
	             0.0000012005       -0.0000001871        0.0000271506
	             0.0002738511       -0.0009865154       -0.0006098669
	            -0.0000296023       -0.0000629934       -0.0000437044
	             0.0000487463        0.0001292691        0.0000099112
	            -0.0009303444       -0.0016200161        0.0014197801
	             0.0000591073       -0.0000033670        0.0001049283
	             0.0001748506       -0.0003478170       -0.0001146585
	             0.0006384553        0.0013985068       -0.0010748049
	            -0.0015348728        0.0014315951        0.0000400740
	            -0.0009886385       -0.0001328798       -0.0004105440
	             0.0006896265       -0.0005813440        0.0011672793
	             0.0007388821        0.0006869687       -0.0000443739
	             0.0010821215        0.0003191673       -0.0002550448
	             0.0000187934       -0.0001024147        0.0002170298
	            -0.0000681794       -0.0001145163        0.0000347916
	             0.0001892275        0.0000865357        0.0000048738

	---Fragment 1 Intrafragment Coordinates---
	 - Coordinate -           - BOHR/RAD -       - ANG/DEG -
	 R(1,2)           =         1.788687	       0.946533
	 R(2,3)           =         2.654135	       1.404508
	 R(3,4)           =         2.869651	       1.518554
	 R(3,5)           =         2.058258	       1.089183
	 R(3,6)           =         2.058295	       1.089203
	 R(4,7)           =         2.890481	       1.529577
	 R(4,8)           =         2.053420	       1.086623
	 R(4,9)           =         2.053180	       1.086496
	 R(7,10)          =         2.890647	       1.529665
	 R(7,11)          =         2.058489	       1.089306
	 R(7,12)          =         2.057323	       1.088689
	 R(10,13)         =         2.927162	       1.548987
	 R(10,14)         =         2.055409	       1.087675
	 R(10,15)         =         2.053590	       1.086713
	 R(13,16)         =         2.887817	       1.528167
	 R(13,17)         =         2.052483	       1.086127
	 R(13,18)         =         2.054667	       1.087283
	 R(16,19)         =         2.052502	       1.086137
	 R(16,20)         =         2.053638	       1.086739
	 R(16,21)         =         2.052351	       1.086057
	 B(1,2,3)         =         1.913778	     109.651385
	 B(2,3,4)         =         1.888697	     108.214377
	 B(2,3,5)         =         1.930050	     110.583699
	 B(2,3,6)         =         1.930137	     110.588730
	 B(3,4,7)         =         1.970961	     112.927775
	 B(3,4,8)         =         1.890978	     108.345049
	 B(3,4,9)         =         1.890970	     108.344627
	 B(4,3,5)         =         1.920389	     110.030205
	 B(4,3,6)         =         1.920133	     110.015529
	 B(4,7,10)        =         1.970725	     112.914240
	 B(4,7,11)        =         1.912296	     109.566471
	 B(4,7,12)        =         1.913650	     109.644065
	 B(5,3,6)         =         1.874730	     107.414106
	 B(7,4,8)         =         1.922964	     110.177726
	 B(7,4,9)         =         1.922302	     110.139771
	 B(7,10,13)       =         1.984910	     113.726990
	 B(7,10,14)       =         1.882840	     107.878779
	 B(7,10,15)       =         1.896430	     108.657444
	 B(8,4,9)         =         1.862046	     106.687370
	 B(10,7,11)       =         1.905204	     109.160177
	 B(10,7,12)       =         1.903656	     109.071469
	 B(10,13,16)      =         1.985872	     113.782100
	 B(10,13,17)      =         1.922796	     110.168084
	 B(10,13,18)      =         1.917501	     109.864731
	 B(11,7,12)       =         1.854669	     106.264702
	 B(13,10,14)      =         1.913299	     109.623940
	 B(13,10,15)      =         1.930731	     110.622713
	 B(13,16,19)      =         1.937045	     110.984526
	 B(13,16,20)      =         1.941886	     111.261847
	 B(13,16,21)      =         1.941461	     111.237545
	 B(14,10,15)      =         1.850200	     106.008626
	 B(16,13,17)      =         1.891411	     108.369879
	 B(16,13,18)      =         1.897031	     108.691883
	 B(17,13,18)      =         1.843547	     105.627435
	 B(19,16,20)      =         1.878623	     107.637196
	 B(19,16,21)      =         1.881222	     107.786063
	 B(20,16,21)      =         1.880854	     107.765021
	 D(1,2,3,4)       =         3.141243	     179.979979
	 D(1,2,3,5)       =        -1.037412	     -59.439301
	 D(1,2,3,6)       =         1.036974	      59.414231
	 D(2,3,4,7)       =        -3.139253	    -179.865959
	 D(2,3,4,8)       =         1.008825	      57.801409
	 D(2,3,4,9)       =        -1.004993	     -57.581849
	 D(3,4,7,10)      =        -3.134872	    -179.614920
	 D(3,4,7,11)      =        -1.007351	     -57.716989
	 D(3,4,7,12)      =         1.021805	      58.545087
	 D(4,7,10,13)     =         3.075055	     176.187686
	 D(4,7,10,14)     =         0.948893	      54.367568
	 D(4,7,10,15)     =        -1.049593	     -60.137257
	 D(5,3,4,7)       =         1.033394	      59.209087
	 D(5,3,4,8)       =        -1.101714	     -63.123545
	 D(5,3,4,9)       =        -3.115531	    -178.506803
	 D(6,3,4,7)       =        -1.028761	     -58.943687
	 D(6,3,4,8)       =         3.119317	     178.723681
	 D(6,3,4,9)       =         1.105499	      63.340423
	 D(7,10,13,16)    =        -1.934644	    -110.846932
	 D(7,10,13,17)    =         2.220618	     127.232051
	 D(7,10,13,18)    =         0.196631	      11.266113
	 D(8,4,7,10)      =        -1.017781	     -58.314557
	 D(8,4,7,11)      =         1.109739	      63.583374
	 D(8,4,7,12)      =         3.138895	     179.845450
	 D(9,4,7,10)      =         1.031708	      59.112512
	 D(9,4,7,11)      =        -3.123957	    -178.989557
	 D(9,4,7,12)      =        -1.094801	     -62.727481
	 D(10,13,16,19)   =        -1.085570	     -62.198555
	 D(10,13,16,20)   =         1.005895	      57.633565
	 D(10,13,16,21)   =         3.103152	     177.797498
	 D(11,7,10,13)    =         0.943549	      54.061356
	 D(11,7,10,14)    =        -1.182613	     -67.758762
	 D(11,7,10,15)    =         3.102086	     177.736413
	 D(12,7,10,13)    =        -1.076002	     -61.650394
	 D(12,7,10,14)    =         3.081021	     176.529488
	 D(12,7,10,15)    =         1.082535	      62.024663
	*D(14,10,13,16)   =         0.174533	      10.000010
	 D(14,10,13,17)   =        -1.953390	    -111.921007
	 D(14,10,13,18)   =         2.305808	     132.113055
	 D(15,10,13,16)   =         2.208756	     126.552401
	 D(15,10,13,17)   =         0.080833	       4.631384
	 D(15,10,13,18)   =        -1.943155	    -111.334553
	 D(17,13,16,19)   =         1.059632	      60.712469
	 D(17,13,16,20)   =        -3.132088	    -179.455411
	 D(17,13,16,21)   =        -1.034832	     -59.291478
	 D(18,13,16,19)   =         3.055074	     175.042862
	 D(18,13,16,20)   =        -1.136646	     -65.125018
	 D(18,13,16,21)   =         0.960610	      55.038915

	Current energy   :      -310.2089685567

	Energy change for the previous step:
		Projected    :        -0.0039971649
		Actual       :        -0.0005708623
	Energy ratio indicates iffy step: Trust radius decreased to 1.250e-01.


	Performing BFGS update.
	Previous computed or guess Hessian on step 1.
	Steps to be used in Hessian update: 1
	Taking RFO optimization step.
	Going to follow RFO solution 1.
	Using RFO vector 1.

	Determining step-restricting scale parameter for RS-RFO.
	Maximum step size allowed    0.12500

	 Iter      |step|        alpha        rfo_root  
	------------------------------------------------
	    0     0.18897       1.00000           1
	    1     0.14416       3.45368           1
	    2     0.12774       4.93158           1
	    3     0.12507       5.21859           1
	    4     0.12500       5.22658           1
	------------------------------------------------
	Norm of target step-size    0.12500
	Projected energy change by RFO approximation:        -0.0002987226

	Back-transformation to cartesian coordinates...
	Successfully converged to displaced geometry.

	Back-transformation to cartesian coordinates to adjust frozen coordinates...
	Successfully converged to displaced geometry.

	--- Internal Coordinate Step in ANG or DEG, aJ/ANG or AJ/DEG ---
	 ---------------------------------------------------------------------------
	   Coordinate                Previous        Force       Change         New 
	   ----------                --------       ------       ------       ------
	    1 R(1,2)          =      0.946533    -0.000045    -0.000003     0.946529
	    2 R(2,3)          =      1.404508    -0.000051    -0.000005     1.404503
	    3 R(3,4)          =      1.518554    -0.000552    -0.000087     1.518467
	    4 R(3,5)          =      1.089183    -0.000173    -0.000025     1.089158
	    5 R(3,6)          =      1.089203    -0.000222    -0.000032     1.089171
	    6 R(4,7)          =      1.529577    -0.003943    -0.000700     1.528877
	    7 R(4,8)          =      1.086623    -0.000388    -0.000056     1.086567
	    8 R(4,9)          =      1.086496     0.001034     0.000152     1.086648
	    9 R(7,10)         =      1.529665     0.010456     0.001733     1.531398
	   10 R(7,11)         =      1.089306     0.000215     0.000187     1.089493
	   11 R(7,12)         =      1.088689     0.001141     0.000124     1.088813
	   12 R(10,13)        =      1.548987    -0.029065    -0.003918     1.545070
	   13 R(10,14)        =      1.087675     0.000990     0.000067     1.087742
	   14 R(10,15)        =      1.086713    -0.001295    -0.000279     1.086435
	   15 R(13,16)        =      1.528167     0.006677     0.001048     1.529214
	   16 R(13,17)        =      1.086127     0.001401     0.000121     1.086248
	   17 R(13,18)        =      1.087283     0.000110    -0.000054     1.087229
	   18 R(16,19)        =      1.086137     0.000453     0.000019     1.086156
	   19 R(16,20)        =      1.086739     0.000601     0.000223     1.086962
	   20 R(16,21)        =      1.086057    -0.001631    -0.000212     1.085845
	   21 B(1,2,3)        =    109.651385    -0.000002    -0.006097   109.645288
	   22 B(2,3,4)        =    108.214377    -0.000005    -0.015569   108.198808
	   23 B(2,3,5)        =    110.583699     0.000004     0.009288   110.592987
	   24 B(2,3,6)        =    110.588730     0.000002     0.011397   110.600128
	   25 B(3,4,7)        =    112.927775    -0.000004    -0.010760   112.917015
	   26 B(3,4,8)        =    108.345049     0.000005     0.017909   108.362957
	   27 B(3,4,9)        =    108.344627    -0.000002    -0.013502   108.331125
	   28 B(4,3,5)        =    110.030205    -0.000004    -0.023762   110.006443
	   29 B(4,3,6)        =    110.015529     0.000003     0.011973   110.027502
	   30 B(4,7,10)       =    112.914240     0.000007     0.057737   112.971977
	   31 B(4,7,11)       =    109.566471     0.000003     0.052100   109.618571
	   32 B(4,7,12)       =    109.644065    -0.000019    -0.101865   109.542201
	   33 B(5,3,6)        =    107.414106     0.000000     0.006797   107.420903
	   34 B(7,4,8)        =    110.177726    -0.000003    -0.016527   110.161199
	   35 B(7,4,9)        =    110.139771     0.000005     0.019495   110.159265
	   36 B(7,10,13)      =    113.726990    -0.000113    -0.465530   113.261460
	   37 B(7,10,14)      =    107.878779     0.000077     0.356778   108.235557
	   38 B(7,10,15)      =    108.657444     0.000074     0.253820   108.911264
	   39 B(8,4,9)        =    106.687370    -0.000000     0.004238   106.691608
	   40 B(10,7,11)      =    109.160177    -0.000003    -0.034691   109.125486
	   41 B(10,7,12)      =    109.071469     0.000014     0.081197   109.152666
	   42 B(10,13,16)     =    113.782100    -0.000120    -0.454421   113.327678
	   43 B(10,13,17)     =    110.168084    -0.000016    -0.238411   109.929673
	   44 B(10,13,18)     =    109.864731    -0.000013    -0.139534   109.725196
	   45 B(11,7,12)      =    106.264702    -0.000003    -0.061545   106.203157
	   46 B(13,10,14)     =    109.623940    -0.000003    -0.085000   109.538940
	   47 B(13,10,15)     =    110.622713    -0.000027    -0.273112   110.349601
	   48 B(13,16,19)     =    110.984526     0.000020     0.089038   111.073565
	   49 B(13,16,20)     =    111.261847     0.000005    -0.049710   111.212138
	   50 B(13,16,21)     =    111.237545    -0.000012    -0.013783   111.223762
	   51 B(14,10,15)     =    106.008626     0.000003     0.277168   106.285793
	   52 B(16,13,17)     =    108.369879     0.000071     0.235243   108.605121
	   53 B(16,13,18)     =    108.691883     0.000095     0.486157   109.178040
	   54 B(17,13,18)     =    105.627435    -0.000006     0.165059   105.792494
	   55 B(19,16,20)     =    107.637196    -0.000012    -0.044041   107.593155
	   56 B(19,16,21)     =    107.786063    -0.000001     0.024205   107.810267
	   57 B(20,16,21)     =    107.765021    -0.000002    -0.007167   107.757854
	   58 D(1,2,3,4)      =    179.979979     0.000001     0.034311   180.014290
	   59 D(1,2,3,5)      =    -59.439301    -0.000001     0.000946   -59.438355
	   60 D(1,2,3,6)      =     59.414231     0.000000     0.022554    59.436785
	   61 D(2,3,4,7)      =   -179.865959    -0.000001    -0.075414  -179.941373
	   62 D(2,3,4,8)      =     57.801409     0.000000    -0.060032    57.741378
	   63 D(2,3,4,9)      =    -57.581849    -0.000000    -0.067328   -57.649177
	   64 D(3,4,7,10)     =   -179.614920    -0.000001    -1.084140  -180.699060
	   65 D(3,4,7,11)     =    -57.716989     0.000000    -1.051679   -58.768668
	   66 D(3,4,7,12)     =     58.545087    -0.000003    -1.154350    57.390737
	   67 D(4,7,10,13)    =    176.187686     0.000006     2.181700   178.369386
	   68 D(4,7,10,14)    =     54.367568     0.000011     2.339033    56.706601
	   69 D(4,7,10,15)    =    -60.137257    -0.000007     1.694493   -58.442764
	   70 D(5,3,4,7)      =     59.209087    -0.000000    -0.062795    59.146292
	   71 D(5,3,4,8)      =    -63.123545     0.000000    -0.047413   -63.170958
	   72 D(5,3,4,9)      =   -178.506803     0.000000    -0.054709  -178.561512
	   73 D(6,3,4,7)      =    -58.943687    -0.000000    -0.063956   -59.007643
	   74 D(6,3,4,8)      =    178.723681     0.000000    -0.048573   178.675108
	   75 D(6,3,4,9)      =     63.340423     0.000000    -0.055869    63.284554
	   76 D(7,10,13,16)   =   -110.846932    -0.000005    -0.082290  -110.929222
	   77 D(7,10,13,17)   =    127.232051    -0.000004     0.107246   127.339297
	   78 D(7,10,13,18)   =     11.266113     0.000002     0.126184    11.392298
	   79 D(8,4,7,10)     =    -58.314557    -0.000000    -1.080393   -59.394950
	   80 D(8,4,7,11)     =     63.583374     0.000000    -1.047933    62.535442
	   81 D(8,4,7,12)     =    179.845450    -0.000002    -1.150603   178.694847
	   82 D(9,4,7,10)     =     59.112512    -0.000000    -1.073405    58.039107
	   83 D(9,4,7,11)     =   -178.989557     0.000001    -1.040944  -180.030502
	   84 D(9,4,7,12)     =    -62.727481    -0.000002    -1.143615   -63.871096
	   85 D(10,13,16,19)  =    -62.198555     0.000003     0.306870   -61.891685
	   86 D(10,13,16,20)  =     57.633565     0.000003     0.277662    57.911227
	   87 D(10,13,16,21)  =    177.797498     0.000002     0.225730   178.023228
	   88 D(11,7,10,13)   =     54.061356     0.000005     2.100924    56.162279
	   89 D(11,7,10,14)   =    -67.758762     0.000010     2.258257   -65.500505
	   90 D(11,7,10,15)   =    177.736413    -0.000009     1.613717   179.350130
	   91 D(12,7,10,13)   =    -61.650394     0.000004     2.148704   -59.501690
	   92 D(12,7,10,14)   =    176.529488     0.000009     2.306037   178.835525
	   93 D(12,7,10,15)   =     62.024663    -0.000009     1.661497    63.686160
	   94 *D(14,10,13,16) =     10.000010    -0.000000     0.000000    10.000010
	   95 D(14,10,13,17)  =   -111.921007     0.000001     0.189536  -111.731471
	   96 D(14,10,13,18)  =    132.113055     0.000007     0.208474   132.321530
	   97 D(15,10,13,16)  =    126.552401    -0.000003     0.126938   126.679339
	   98 D(15,10,13,17)  =      4.631384    -0.000002     0.316474     4.947858
	   99 D(15,10,13,18)  =   -111.334553     0.000003     0.335412  -110.999141
	  100 D(17,13,16,19)  =     60.712469    -0.000009    -0.134572    60.577897
	  101 D(17,13,16,20)  =   -179.455411    -0.000008    -0.163780  -179.619191
	  102 D(17,13,16,21)  =    -59.291478    -0.000010    -0.215711   -59.507190
	  103 D(18,13,16,19)  =    175.042862     0.000009     0.440297   175.483159
	  104 D(18,13,16,20)  =    -65.125018     0.000010     0.411089   -64.713929
	  105 D(18,13,16,21)  =     55.038915     0.000008     0.359157    55.398072
	 ---------------------------------------------------------------------------

  ==> Convergence Check <==

  Measures of convergence in internal coordinates in au.
  Criteria marked as inactive (o), active & met (*), and active & unmet ( ).
  ---------------------------------------------------------------------------------------------
   Step     Total Energy     Delta E     MAX Force     RMS Force      MAX Disp      RMS Disp   
  ---------------------------------------------------------------------------------------------
    Convergence Criteria    1.00e-06 *    3.00e-04 *             o    1.20e-03 *             o
  ---------------------------------------------------------------------------------------------
      2    -310.20896856   -5.71e-04      3.53e-03      5.23e-04 o    4.08e-02      1.22e-02 o  ~
  ---------------------------------------------------------------------------------------------

	Writing optimization data to binary file.
	Structure for next step:
	Cartesian Geometry (in Angstrom)
	    H    -4.2773517725   0.7303738049   0.0666245872
	    O    -3.5640498915   0.1620336662  -0.1865708402
	    C    -2.3542937184   0.6713179850   0.3131784758
	    C    -1.2350465761  -0.2629329201  -0.1113240279
	    H    -2.1710030643   1.6725949479  -0.0742669568
	    H    -2.3883726808   0.7431814381   1.3994414290
	    C     0.1391610082   0.1923684761   0.3803260874
	    H    -1.2405048266  -0.3331614645  -1.1956054851
	    H    -1.4576719916  -1.2569919741   0.2669467968
	    C     1.2667303522  -0.7580173649  -0.0326306657
	    H     0.3535198860   1.1889561804  -0.0041969636
	    H     0.1265940880   0.2815874143   1.4654046575
	    C     2.6635935131  -0.2834629961   0.4265112569
	    H     1.2525798330  -0.8524616886  -1.1161726391
	    H     1.0553085616  -1.7478193712   0.3622525544
	    C     3.5631696700   0.1578691701  -0.7286881093
	    H     3.1642472927  -1.0787405791   0.9713183074
	    H     2.5588276986   0.5376340504   1.1314161755
	    H     3.7532936978  -0.6648004134  -1.4119182100
	    H     3.1039814388   0.9602711736  -1.3003372019
	    H     4.5216773369   0.5163919427  -0.3656666653
			--------------------------
			 OPTKING Finished Execution 
			--------------------------

    Structure for next step:
    Molecular point group: c1
    Full point group: C1

    Geometry (in Angstrom), charge = 0, multiplicity = 1:

    H           -4.276701150142     0.731354191078     0.064851303279
    O           -3.563399323549     0.163014095791    -0.188344104737
    C           -2.353643242886     0.672298375763     0.311405173120
    C           -1.234396186010    -0.261952458011    -0.113097298187
    H           -2.170352602805     1.673575262196    -0.076040229883
    H           -2.387722202705     0.744161823358     1.397668043337
    C            0.139811293271     0.193348903436     0.378552779587
    H           -1.239854436112    -0.332180997052    -1.197378672638
    H           -1.457021584534    -1.256011436083     0.265173497623
    C            1.267380551200    -0.757036865062    -0.034403941982
    H            0.354170154742     1.189936531568    -0.005970242067
    H            0.127244374052     0.282567834815     1.463631266759
    C            2.664243605437    -0.282482532480     0.424737945539
    H            1.253230033096    -0.851481181493    -1.117945832659
    H            1.055958776733    -1.746838795740     0.360479247971
[...]
	 B(13,10,14)      =         1.911827	     109.539629
	 B(13,10,15)      =         1.924144	     110.245342
	 B(13,16,19)      =         1.936759	     110.968114
	 B(13,16,20)      =         1.941273	     111.226743
	 B(13,16,21)      =         1.942916	     111.320895
	 B(14,10,15)      =         1.855650	     106.320908
	 B(16,13,17)      =         1.895455	     108.601548
	 B(16,13,18)      =         1.905821	     109.195506
	 B(17,13,18)      =         1.847189	     105.836147
	 B(19,16,20)      =         1.878434	     107.626366
	 B(19,16,21)      =         1.881594	     107.807410
	 B(20,16,21)      =         1.880080	     107.720640
	 D(1,2,3,4)       =         3.141415	     179.989816
	 D(1,2,3,5)       =        -1.037514	     -59.445190
	 D(1,2,3,6)       =         1.037153	      59.424463
	 D(2,3,4,7)       =         3.141047	     179.968758
	 D(2,3,4,8)       =         1.005917	      57.634818
	 D(2,3,4,9)       =        -1.007669	     -57.735183
	 D(3,4,7,10)      =         3.135059	     179.625640
	 D(3,4,7,11)      =        -1.020625	     -58.477479
	 D(3,4,7,12)      =         1.007453	      57.722799
	 D(4,7,10,13)     =         3.106558	     177.992672
	 D(4,7,10,14)     =         0.981850	      56.255882
	 D(4,7,10,15)     =        -1.028557	     -58.931993
	 D(5,3,4,7)       =         1.030532	      59.045152
	 D(5,3,4,8)       =        -1.104598	     -63.288787
	 D(5,3,4,9)       =        -3.118184	    -178.658789
	 D(6,3,4,7)       =        -1.031636	     -59.108412
	 D(6,3,4,8)       =         3.116419	     178.557649
	 D(6,3,4,9)       =         1.102832	      63.187648
	 D(7,10,13,16)    =        -1.937730	    -111.023731
	 D(7,10,13,17)    =         2.221421	     127.278022
	 D(7,10,13,18)    =         0.198195	      11.355729
	 D(8,4,7,10)      =        -1.031149	     -59.080473
	 D(8,4,7,11)      =         1.096353	      62.816407
	 D(8,4,7,12)      =         3.124431	     179.016685
	 D(9,4,7,10)      =         1.018405	      58.350283
	 D(9,4,7,11)      =        -3.137279	    -179.752837
	 D(9,4,7,12)      =        -1.109201	     -63.552559
	 D(10,13,16,19)   =        -1.069945	     -61.303306
	 D(10,13,16,20)   =         1.020684	      58.480859
	 D(10,13,16,21)   =         3.117526	     178.621098
	 D(11,7,10,13)    =         0.974357	      55.826565
	 D(11,7,10,14)    =        -1.150350	     -65.910225
	 D(11,7,10,15)    =         3.122427	     178.901900
	 D(12,7,10,13)    =        -1.044166	     -59.826316
	 D(12,7,10,14)    =         3.114311	     178.436894
	 D(12,7,10,15)    =         1.103904	      63.249019
	*D(14,10,13,16)   =         0.174533	      10.000010
	 D(14,10,13,17)   =        -1.949502	    -111.698237
	 D(14,10,13,18)   =         2.310458	     132.379470
	 D(15,10,13,16)   =         2.210663	     126.661641
	 D(15,10,13,17)   =         0.086628	       4.963394
	 D(15,10,13,18)   =        -1.936598	    -110.958899
	 D(17,13,16,19)   =         1.065920	      61.072690
	 D(17,13,16,20)   =        -3.126638	    -179.143145
	 D(17,13,16,21)   =        -1.029795	     -59.002905
	 D(18,13,16,19)   =         3.072427	     176.037078
	 D(18,13,16,20)   =        -1.120131	     -64.178757
	 D(18,13,16,21)   =         0.976712	      55.961482

	Current energy   :      -310.2090547459

	Energy change for the previous step:
		Projected    :        -0.0000021768
		Actual       :        -0.0000002795
	Energy ratio indicates iffy step: Trust radius decreased to 3.125e-02.


	Performing BFGS update.
	Previous computed or guess Hessian on step 1.
	Steps to be used in Hessian update: 5 4
	Taking RFO optimization step.
	Going to follow RFO solution 1.
	Using RFO vector 1.
	Norm of target step-size    0.00952
	Projected energy change by RFO approximation:        -0.0000013865

	Back-transformation to cartesian coordinates...
	Successfully converged to displaced geometry.

	Back-transformation to cartesian coordinates to adjust frozen coordinates...
	Successfully converged to displaced geometry.

	--- Internal Coordinate Step in ANG or DEG, aJ/ANG or AJ/DEG ---
	 ---------------------------------------------------------------------------
	   Coordinate                Previous        Force       Change         New 
	   ----------                --------       ------       ------       ------
	    1 R(1,2)          =      0.946530     0.000014    -0.000000     0.946530
	    2 R(2,3)          =      1.404509     0.000016    -0.000018     1.404490
	    3 R(3,4)          =      1.518495     0.000052    -0.000000     1.518494
	    4 R(3,5)          =      1.089182    -0.000010    -0.000015     1.089168
	    5 R(3,6)          =      1.089163    -0.000028    -0.000012     1.089151
	    6 R(4,7)          =      1.528756     0.000058    -0.000024     1.528732
	    7 R(4,8)          =      1.086607    -0.000066    -0.000018     1.086589
	    8 R(4,9)          =      1.086664    -0.000000    -0.000010     1.086655
	    9 R(7,10)         =      1.531668    -0.000362    -0.000079     1.531588
	   10 R(7,11)         =      1.089305     0.000148     0.000032     1.089337
	   11 R(7,12)         =      1.088845    -0.000044    -0.000027     1.088817
	   12 R(10,13)        =      1.544845     0.001004     0.000209     1.545053
	   13 R(10,14)        =      1.087547     0.000102     0.000015     1.087562
	   14 R(10,15)        =      1.086429    -0.000059    -0.000018     1.086411
	   15 R(13,16)        =      1.529373    -0.000314    -0.000087     1.529286
	   16 R(13,17)        =      1.086376    -0.000182    -0.000047     1.086329
	   17 R(13,18)        =      1.086986     0.000143     0.000030     1.087016
	   18 R(16,19)        =      1.086105    -0.000022    -0.000015     1.086090
	   19 R(16,20)        =      1.086822     0.000129     0.000026     1.086847
	   20 R(16,21)        =      1.085850     0.000011    -0.000021     1.085829
	   21 B(1,2,3)        =    109.645249     0.000001     0.000850   109.646099
	   22 B(2,3,4)        =    108.206304     0.000001    -0.000697   108.205607
	   23 B(2,3,5)        =    110.593291    -0.000000    -0.000643   110.592649
	   24 B(2,3,6)        =    110.592266    -0.000000     0.002108   110.594373
	   25 B(3,4,7)        =    112.921100     0.000000    -0.002161   112.918938
	   26 B(3,4,8)        =    108.339253     0.000000     0.003227   108.342480
	   27 B(3,4,9)        =    108.342512    -0.000001    -0.001664   108.340848
	   28 B(4,3,5)        =    110.016819    -0.000000    -0.002275   110.014543
	   29 B(4,3,6)        =    110.017615    -0.000000     0.002166   110.019781
	   30 B(4,7,10)       =    113.033322    -0.000001    -0.006670   113.026651
	   31 B(4,7,11)       =    109.572637     0.000002     0.012707   109.585344
	   32 B(4,7,12)       =    109.585853     0.000000    -0.004524   109.581329
	   33 B(5,3,6)        =    107.420357     0.000000    -0.000646   107.419711
	   34 B(7,4,8)        =    110.185462    -0.000001    -0.004661   110.180801
	   35 B(7,4,9)        =    110.153824     0.000001     0.005112   110.158936
	   36 B(7,10,13)      =    113.336228    -0.000005    -0.022720   113.313508
	   37 B(7,10,14)      =    108.269736     0.000000    -0.022484   108.247252
	   38 B(7,10,15)      =    108.870987     0.000000     0.006655   108.877642
	   39 B(8,4,9)        =    106.679628     0.000000     0.000298   106.679926
	   40 B(10,7,11)      =    109.092533    -0.000001    -0.001431   109.091102
	   41 B(10,7,12)      =    109.089742     0.000001     0.005278   109.095020
	   42 B(10,13,16)     =    113.403573    -0.000005    -0.020870   113.382703
	   43 B(10,13,17)     =    109.818718     0.000004     0.032916   109.851633
	   44 B(10,13,18)     =    109.701340     0.000003     0.014429   109.715769
	   45 B(11,7,12)      =    106.238135    -0.000001    -0.005314   106.232821
	   46 B(13,10,14)     =    109.539629     0.000003     0.004640   109.544269
	   47 B(13,10,15)     =    110.245342     0.000004     0.041094   110.286436
	   48 B(13,16,19)     =    110.968114     0.000002     0.014726   110.982840
	   49 B(13,16,20)     =    111.226743    -0.000002    -0.009595   111.217149
	   50 B(13,16,21)     =    111.320895    -0.000001    -0.012204   111.308691
	   51 B(14,10,15)     =    106.320908    -0.000002    -0.007429   106.313479
	   52 B(16,13,17)     =    108.601548     0.000000    -0.007698   108.593850
	   53 B(16,13,18)     =    109.195506     0.000000    -0.006028   109.189478
	   54 B(17,13,18)     =    105.836147    -0.000002    -0.012571   105.823576
	   55 B(19,16,20)     =    107.626366    -0.000000    -0.003494   107.622872
	   56 B(19,16,21)     =    107.807410     0.000000     0.002932   107.810342
	   57 B(20,16,21)     =    107.720640     0.000002     0.008074   107.728714
	   58 D(1,2,3,4)      =    179.989816     0.000000     0.001768   179.991583
	   59 D(1,2,3,5)      =    -59.445190     0.000000    -0.001852   -59.447042
	   60 D(1,2,3,6)      =     59.424463    -0.000000    -0.001724    59.422739
	   61 D(2,3,4,7)      =    179.968758    -0.000000    -0.003908   179.964849
	   62 D(2,3,4,8)      =     57.634818    -0.000000     0.001149    57.635967
	   63 D(2,3,4,9)      =    -57.735183     0.000000    -0.000021   -57.735205
	   64 D(3,4,7,10)     =    179.625640     0.000000     0.007883   179.633523
	   65 D(3,4,7,11)     =    -58.477479    -0.000000     0.010662   -58.466817
	   66 D(3,4,7,12)     =     57.722799     0.000000     0.008934    57.731733
	   67 D(4,7,10,13)    =    177.992672     0.000000     0.126293   178.118965
	   68 D(4,7,10,14)    =     56.255882     0.000000     0.151249    56.407131
	   69 D(4,7,10,15)    =    -58.931993     0.000001     0.168503   -58.763491
	   70 D(5,3,4,7)      =     59.045152    -0.000000    -0.001321    59.043832
	   71 D(5,3,4,8)      =    -63.288787    -0.000000     0.003737   -63.285051
	   72 D(5,3,4,9)      =   -178.658789     0.000000     0.002567  -178.656222
	   73 D(6,3,4,7)      =    -59.108412    -0.000000    -0.000462   -59.108874
	   74 D(6,3,4,8)      =    178.557649     0.000000     0.004595   178.562244
	   75 D(6,3,4,9)      =     63.187648     0.000000     0.003425    63.191073
	   76 D(7,10,13,16)   =   -111.023731     0.000000     0.040758  -110.982974
	   77 D(7,10,13,17)   =    127.278022     0.000000     0.041046   127.319067
	   78 D(7,10,13,18)   =     11.355729    -0.000000     0.029048    11.384777
	   79 D(8,4,7,10)     =    -59.080473     0.000000     0.007196   -59.073278
	   80 D(8,4,7,11)     =     62.816407    -0.000000     0.009975    62.826382
	   81 D(8,4,7,12)     =    179.016685     0.000000     0.008247   179.024932
	   82 D(9,4,7,10)     =     58.350283     0.000000     0.007835    58.358118
	   83 D(9,4,7,11)     =   -179.752837    -0.000000     0.010614  -179.742222
	   84 D(9,4,7,12)     =    -63.552559     0.000000     0.008886   -63.543672
	   85 D(10,13,16,19)  =    -61.303306     0.000000     0.098576   -61.204730
	   86 D(10,13,16,20)  =     58.480859    -0.000000     0.097617    58.578476
	   87 D(10,13,16,21)  =    178.621098    -0.000000     0.093122   178.714220
	   88 D(11,7,10,13)   =     55.826565    -0.000000     0.115570    55.942135
	   89 D(11,7,10,14)   =    -65.910225    -0.000000     0.140527   -65.769699
	   90 D(11,7,10,15)   =    178.901900     0.000000     0.157780   179.059680
	   91 D(12,7,10,13)   =    -59.826316     0.000000     0.119791   -59.706525
	   92 D(12,7,10,14)   =    178.436894     0.000000     0.144748   178.581642
	   93 D(12,7,10,15)   =     63.249019     0.000000     0.162001    63.411020
	   94 *D(14,10,13,16) =     10.000010     0.000000    -0.000000    10.000010
	   95 D(14,10,13,17)  =   -111.698237     0.000000     0.000288  -111.697949
	   96 D(14,10,13,18)  =    132.379470    -0.000000    -0.011710   132.367760
	   97 D(15,10,13,16)  =    126.661641     0.000000     0.017664   126.679305
	   98 D(15,10,13,17)  =      4.963394     0.000000     0.017952     4.981346
	   99 D(15,10,13,18)  =   -110.958899     0.000000     0.005954  -110.952945
	  100 D(17,13,16,19)  =     61.072690     0.000000     0.121098    61.193788
	  101 D(17,13,16,20)  =   -179.143145     0.000000     0.120139  -179.023006
	  102 D(17,13,16,21)  =    -59.002905     0.000000     0.115643   -58.887262
	  103 D(18,13,16,19)  =    176.037078    -0.000000     0.098820   176.135898
	  104 D(18,13,16,20)  =    -64.178757    -0.000000     0.097861   -64.080896
	  105 D(18,13,16,21)  =     55.961482    -0.000000     0.093366    56.054848
	 ---------------------------------------------------------------------------

  ==> Convergence Check <==

  Measures of convergence in internal coordinates in au.
  Criteria marked as inactive (o), active & met (*), and active & unmet ( ).
  ---------------------------------------------------------------------------------------------
   Step     Total Energy     Delta E     MAX Force     RMS Force      MAX Disp      RMS Disp   
  ---------------------------------------------------------------------------------------------
    Convergence Criteria    1.00e-06 *    3.00e-04 *             o    1.20e-03 *             o
  ---------------------------------------------------------------------------------------------
      6    -310.20905475   -2.79e-07 *    1.22e-04 *    2.15e-05 o    2.94e-03      9.29e-04 o  ~
  ---------------------------------------------------------------------------------------------


  **** Optimization is complete! (in 6 steps) ****

  ==> Optimization Summary <==

  Measures of convergence in internal coordinates in au.
  --------------------------------------------------------------------------------------------------------------- ~
   Step         Total Energy             Delta E       MAX Force       RMS Force        MAX Disp        RMS Disp  ~
  --------------------------------------------------------------------------------------------------------------- ~
      1    -310.208397694403   -310.208397694403      0.00894961      0.00126100      0.13456970      0.04535086  ~
      2    -310.208968556698     -0.000570862295      0.00352787      0.00052299      0.04082383      0.01219874  ~
      3    -310.209050165027     -0.000081608329      0.00031102      0.00008782      0.02729421      0.01005891  ~
      4    -310.209046685817      0.000003479210      0.00028502      0.00006587      0.01838189      0.00656577  ~
      5    -310.209054466447     -0.000007780630      0.00013693      0.00003416      0.00655328      0.00226298  ~
      6    -310.209054745936     -0.000000279489      0.00012189      0.00002154      0.00294093      0.00092904  ~
  --------------------------------------------------------------------------------------------------------------- ~

	Writing optimization data to binary file.
	Final energy is   -310.2090547459358
	Final (previous) structure:
	Cartesian Geometry (in Angstrom)
	    H    -4.2759402285   0.7351656930   0.0566357285
	    O    -3.5627897351   0.1657141348  -0.1944842704
	    C    -2.3538889192   0.6723218236   0.3100473649
	    C    -1.2347871998  -0.2638762524  -0.1106319085
	    H    -2.1672782353   1.6735609871  -0.0759770059
	    H    -2.3919562464   0.7434719873   1.3962171283
	    C     0.1386167379   0.1896263222   0.3845373116
	    H    -1.2377960379  -0.3347943732  -1.1949179370
	    H    -1.4598031287  -1.2574523449   0.2675396314
	    C     1.2682279795  -0.7577947152  -0.0306464470
	    H     0.3525510552   1.1875645502   0.0038317137
	    H     0.1256302179   0.2741624605   1.4700176333
	    C     2.6653904046  -0.2805104081   0.4239763686
	    H     1.2514537491  -0.8543234096  -1.1137708621
	    H     1.0610678211  -1.7472662419   0.3672954334
	    C     3.5630036917   0.1603162070  -0.7331515892
	    H     3.1671399369  -1.0755930095   0.9683144387
	    H     2.5608262439   0.5409080084   1.1281613146
	    H     3.7437281865  -0.6615843677  -1.4197673225
	    H     3.1067597434   0.9679781739  -1.2994602927
	    H     4.5259467081   0.5111223483  -0.3743402860
	Saving final (previous) structure.
			--------------------------
			 OPTKING Finished Execution 
			--------------------------

    Final optimized geometry and variables:
    Molecular point group: c1
    Full point group: C1

    Geometry (in Angstrom), charge = 0, multiplicity = 1:

    H           -4.275939902002     0.735165636836     0.056635724128
    O           -3.562789462994     0.165714122186    -0.194484255524
    C           -2.353888739480     0.672321772220     0.310047341209
    C           -1.234787105466    -0.263876232214    -0.110631900013
    H           -2.167278069810     1.673560859300    -0.075977000102
    H           -2.391956063707     0.743471930487     1.396217021632
    C            0.138616727312     0.189626307713     0.384537282238
    H           -1.237795943347    -0.334794347633    -1.194917845793
    H           -1.459803017259    -1.257452248904     0.267539610945
    C            1.268227882617    -0.757794657349    -0.030646444650
    H            0.352551028324     1.187564459470     0.003831713372
    H            0.125630208344     0.274162439549     1.470017521035
    C            2.665390201041    -0.280510386700     0.423976336237
    H            1.251453653522    -0.854323344318    -1.113770777057
    H            1.061067740098    -1.747266108437     0.367295405384
    C            3.563003419593     0.160316194788    -0.733151533239
    H            3.167139695068    -1.075592927377     0.968314364786
    H            2.560826048380     0.540907967106     1.128161228428
    H            3.743727900661    -0.661584317200    -1.419767214106
    H            3.106759506160     0.967978099988    -1.299460193434
    H            4.525946362468     0.511122309289    -0.374340257444

	Cleaning optimization helper files.


Properties will be evaluated at   0.000000,   0.000000,   0.000000 Bohr

Properties computed using the  density matrix

  Nuclear Dipole Moment: (a.u.)
     X:     7.8223      Y:     0.6598      Z:     0.1676

  Electronic Dipole Moment: (a.u.)
     X:    -7.7481      Y:    -0.1330      Z:     0.2053

  Dipole Moment: (a.u.)
     X:     0.0742      Y:     0.5268      Z:     0.3729     Total:     0.6496

  Dipole Moment: (Debye)
     X:     0.1887      Y:     1.3389      Z:     0.9477     Total:     1.6512

  Quadrupole Moment: (Debye Ang)
    XX:   -45.9344     YY:   -45.5672     ZZ:   -47.0946
    XY:    -6.0442     XZ:    -3.1739     YZ:     0.0682

  Traceless Quadrupole Moment: (Debye Ang)
    XX:     0.2643     YY:     0.6315     ZZ:    -0.8958
    XY:    -6.0442     XZ:    -3.1739     YZ:     0.0682

  Mulliken Charges: (a.u.)
   Center  Symbol    Alpha    Beta     Spin     Total
       1     H     0.28118  0.28118  0.00000  0.43763
       2     O     4.37175  4.37175  0.00000 -0.74350
       3     C     2.98976  2.98976  0.00000  0.02048
       4     C     3.15984  3.15984  0.00000 -0.31967
       5     H     0.43288  0.43288  0.00000  0.13424
       6     H     0.43283  0.43283  0.00000  0.13434
       7     C     3.16195  3.16195  0.00000 -0.32390
       8     H     0.41473  0.41473  0.00000  0.17054
       9     H     0.41483  0.41483  0.00000  0.17034
      10     C     3.15422  3.15422  0.00000 -0.30843
      11     H     0.42368  0.42368  0.00000  0.15265
      12     H     0.42316  0.42316  0.00000  0.15369
      13     C     3.15540  3.15540  0.00000 -0.31081
      14     H     0.41993  0.41993  0.00000  0.16015
      15     H     0.41953  0.41953  0.00000  0.16094
      16     C     3.23972  3.23972  0.00000 -0.47944
      17     H     0.42008  0.42008  0.00000  0.15985
      18     H     0.42066  0.42066  0.00000  0.15868
      19     H     0.42088  0.42088  0.00000  0.15823
      20     H     0.42243  0.42243  0.00000  0.15513
      21     H     0.42057  0.42057  0.00000  0.15886

   Total alpha = 29.00000, Total beta = 29.00000, Total charge = -0.00000


*** PSI4 exiting successfully. Buy a developer a beer!
