    -----------------------------------------------------------------------
          Psi4: An Open-Source Ab Initio Electronic Structure Package
                              Psi4 1.0.54 Driver

                          Git: Rev {master} 8d4cec3 dirty

    J. M. Turney, A. C. Simmonett, R. M. Parrish, E. G. Hohenstein,
    F. A. Evangelista, J. T. Fermann, B. J. Mintz, L. A. Burns, J. J. Wilke,
    M. L. Abrams, N. J. Russ, M. L. Leininger, C. L. Janssen, E. T. Seidl,
    W. D. Allen, H. F. Schaefer, R. A. King, E. F. Valeev, C. D. Sherrill,
    and T. D. Crawford, WIREs Comput. Mol. Sci. 2, 556-565 (2012)
    (doi: 10.1002/wcms.93)

                         Additional Contributions by
    A. E. DePrince, U. Bozkaya, A. Yu. Sokolov, D. G. A. Smith, R. Di Remigio,
    R. M. Richard, J. F. Gonthier, H. R. McAlexander, M. Saitow, and
    B. P. Pritchard
    -----------------------------------------------------------------------


    Psi4 started on: Sat Sep 10 15:21:01 2016

    Process ID:  28458
    PSI4DATADIR: /export131/home/mjharvey/miniconda3/share/psi4
    Memory level set to 256.000 MB

  ==> Input File <==

--------------------------------------------------------------------------
set {
	reference rhf
	basis cc-pvtz
}


set_num_threads( 4 )
memory 2 gb

molecule MOL {
0 1

H	 1.721971	 -1.628841	 1.019849
C	 0.856761	 -1.022167	 1.227673
O	 0.462329	 -0.453336	 -0.000137
H	 1.123582	 -0.255907	 1.944521
H	 0.073666	 -1.647871	 1.636934
C	 -0.590565	 0.341382	 0.000062
O	 -1.693898	 -0.053880	 0.000252
H	 -0.340426	 1.403822	 0.000200

	symmetry c1
}
set optking {
	frozen_dihedral = ("
		2 3 6 7
	")
}

ee,wfn = optimize('scf', return_wfn=True)
oeprop( wfn, 'DIPOLE', 'QUADRUPOLE', 'MULLIKEN_CHARGES')
f=open( 'psi4out.xyz', 'w' )
f.write( "8  " )
f.write( str(ee) + "\n" )
f.write( MOL.save_string_xyz() )
f.close()
--------------------------------------------------------------------------

  Memory set to   2.000 GiB by Python script.
gradient() will perform analytic gradient computation.

*** tstart() called on cx1-27-2-2
*** at Sat Sep 10 15:21:01 2016


         ---------------------------------------------------------
                                   SCF
            by Justin Turney, Rob Parrish, and Andy Simmonett
                              RHF Reference
                        4 Threads,   2000 MiB Core
         ---------------------------------------------------------

  ==> Geometry <==

    Molecular point group: c1
    Full point group: C1

    Geometry (in Angstrom), charge = 0, multiplicity = 1:

       Center              X                  Y                   Z               Mass       
    ------------   -----------------  -----------------  -----------------  -----------------
           H          1.953648027935    -1.321819927376     0.697093154921     1.007825032070
           C          1.088438027935    -0.715145927376     0.904917154921    12.000000000000
           O          0.694006027935    -0.146314927376    -0.322892845079    15.994914619560
           H          1.355259027935     0.051114072624     1.621765154921     1.007825032070
           H          0.305343027935    -1.340849927376     1.314178154921     1.007825032070
           C         -0.358887972065     0.648403072624    -0.322693845079    12.000000000000
           O         -1.462220972065     0.253141072624    -0.322503845079    15.994914619560
           H         -0.108748972065     1.710843072624    -0.322555845079     1.007825032070

  Running in c1 symmetry.

  Rotational constants: A =      0.88820  B =      0.19132  C =      0.17419 [cm^-1]
  Rotational constants: A =  26627.42327  B =   5735.58278  C =   5221.94162 [MHz]
  Nuclear repulsion =  122.799510523027934

  Charge       = 0
  Multiplicity = 1
  Electrons    = 32
  Nalpha       = 16
  Nbeta        = 16

  ==> Algorithm <==

  SCF Algorithm Type is DF.
  DIIS enabled.
  MOM disabled.
  Fractional occupation disabled.
  Guess Type is SAD.
  Energy threshold   = 1.00e-08
  Density threshold  = 1.00e-08
  Integral threshold = 0.00e+00

  ==> Primary Basis <==

  Basis Set: CC-PVTZ
    Number of shells: 64
    Number of basis function: 176
    Number of Cartesian functions: 200
    Spherical Harmonics?: true
    Max angular momentum: 3

  ==> Pre-Iterations <==

   -------------------------------------------------------
    Irrep   Nso     Nmo     Nalpha   Nbeta   Ndocc  Nsocc
   -------------------------------------------------------
     A        176     176       0       0       0       0
   -------------------------------------------------------
    Total     176     176      16      16      16       0
   -------------------------------------------------------

  ==> Integral Setup <==

  ==> DFJK: Density-Fitted J/K Matrices <==

    J tasked:                  Yes
    K tasked:                  Yes
    wK tasked:                  No
    OpenMP threads:              4
    Integrals threads:           4
    Memory (MB):              1430
    Algorithm:                Core
    Integral Cache:           NONE
    Schwarz Cutoff:          1E-12
    Fitting Condition:       1E-12

   => Auxiliary Basis Set <=

  Basis Set: 
    Number of shells: 140
    Number of basis function: 436
    Number of Cartesian functions: 524
    Spherical Harmonics?: true
    Max angular momentum: 4

  Minimum eigenvalue in the overlap matrix is 1.5392953706E-03.
  Using Symmetric Orthogonalization.
  SCF Guess: Superposition of Atomic Densities via on-the-fly atomic UHF.

  ==> Iterations <==

                           Total Energy        Delta E     RMS |[F,P]|

   @DF-RHF iter   0:  -229.35289926949173   -2.29353e+02   2.16539e-02 
   @DF-RHF iter   1:  -227.68933172372238    1.66357e+00   2.90942e-03 
   @DF-RHF iter   2:  -227.80843877751533   -1.19107e-01   2.01316e-03 DIIS
   @DF-RHF iter   3:  -227.85042715219174   -4.19884e-02   4.18428e-04 DIIS
   @DF-RHF iter   4:  -227.85777454721079   -7.34740e-03   2.19038e-04 DIIS
   @DF-RHF iter   5:  -227.85906453455527   -1.28999e-03   8.72794e-05 DIIS
   @DF-RHF iter   6:  -227.85938409652852   -3.19562e-04   2.98255e-05 DIIS
   @DF-RHF iter   7:  -227.85941407008829   -2.99736e-05   8.01839e-06 DIIS
   @DF-RHF iter   8:  -227.85941641581576   -2.34573e-06   2.20642e-06 DIIS
   @DF-RHF iter   9:  -227.85941659129446   -1.75479e-07   5.28224e-07 DIIS
   @DF-RHF iter  10:  -227.85941660205270   -1.07582e-08   1.67081e-07 DIIS
   @DF-RHF iter  11:  -227.85941660314654   -1.09384e-09   5.98466e-08 DIIS
   @DF-RHF iter  12:  -227.85941660337767   -2.31125e-10   2.58847e-08 DIIS
   @DF-RHF iter  13:  -227.85941660343832   -6.06519e-11   9.13975e-09 DIIS

  ==> Post-Iterations <==

    Orbital Energies (a.u.)
    -----------------------

    Doubly Occupied:                                                      

       1A    -20.589634     2A    -20.558800     3A    -11.374265  
       4A    -11.296339     5A     -1.478609     6A     -1.383375  
       7A     -0.991928     8A     -0.831825     9A     -0.744739  
      10A     -0.690115    11A     -0.672602    12A     -0.626725  
      13A     -0.563139    14A     -0.512196    15A     -0.474870  
      16A     -0.460296  

    Virtual:                                                              

      17A      0.129199    18A      0.168164    19A      0.175718  
      20A      0.206649    21A      0.220451    22A      0.244615  
      23A      0.308833    24A      0.366082    25A      0.378397  
      26A      0.393921    27A      0.478450    28A      0.515599  
      29A      0.561768    30A      0.580928    31A      0.607085  
      32A      0.614423    33A      0.616217    34A      0.636119  
      35A      0.679736    36A      0.712289    37A      0.758474  
      38A      0.771117    39A      0.784027    40A      0.855122  
      41A      0.879990    42A      0.906334    43A      0.922763  
      44A      0.994862    45A      1.019249    46A      1.051337  
      47A      1.059315    48A      1.148117    49A      1.168044  
      50A      1.188355    51A      1.224876    52A      1.250103  
      53A      1.281284    54A      1.291860    55A      1.330546  
      56A      1.356197    57A      1.367227    58A      1.410913  
      59A      1.492851    60A      1.517331    61A      1.537027  
      62A      1.544182    63A      1.582634    64A      1.729654  
      65A      1.791796    66A      1.875190    67A      1.937020  
      68A      1.995496    69A      2.107056    70A      2.159311  
      71A      2.266242    72A      2.294257    73A      2.319426  
      74A      2.359184    75A      2.405812    76A      2.425048  
      77A      2.452059    78A      2.490275    79A      2.616330  
      80A      2.644477    81A      2.774978    82A      2.809776  
      83A      2.884871    84A      2.956125    85A      3.020385  
      86A      3.033381    87A      3.076044    88A      3.100820  
      89A      3.128587    90A      3.160081    91A      3.183185  
      92A      3.251981    93A      3.292327    94A      3.319915  
      95A      3.336706    96A      3.369103    97A      3.420987  
      98A      3.460345    99A      3.505304   100A      3.534566  
     101A      3.571334   102A      3.599835   103A      3.604004  
     104A      3.654580   105A      3.697949   106A      3.717171  
     107A      3.733816   108A      3.742949   109A      3.809284  
     110A      3.836795   111A      3.864921   112A      3.914592  
     113A      3.990884   114A      4.028587   115A      4.063969  
     116A      4.125091   117A      4.142408   118A      4.181712  
     119A      4.211242   120A      4.250195   121A      4.348104  
     122A      4.373875   123A      4.380855   124A      4.417208  
     125A      4.457114   126A      4.559134   127A      4.592524  
     128A      4.749160   129A      4.757393   130A      4.822033  
     131A      4.866221   132A      4.995301   133A      5.007995  
     134A      5.077674   135A      5.106249   136A      5.190114  
     137A      5.243524   138A      5.291173   139A      5.342054  
     140A      5.349473   141A      5.491642   142A      5.554078  
     143A      5.573356   144A      5.596396   145A      5.613843  
     146A      5.653626   147A      5.669071   148A      5.832998  
     149A      5.940486   150A      6.014172   151A      6.107194  
     152A      6.193147   153A      6.239090   154A      6.249757  
     155A      6.353605   156A      6.447445   157A      6.688913  
     158A      6.741821   159A      6.797468   160A      6.841169  
     161A      6.878117   162A      6.924397   163A      6.938597  
     164A      7.218047   165A      7.241384   166A      7.331995  
     167A      7.412699   168A      7.554471   169A      7.641150  
     170A      7.750174   171A      7.818948   172A      7.954372  
     173A     10.418173   174A     11.993217   175A     14.029010  
     176A     14.421363  

    Final Occupation by Irrep:
              A 
    DOCC [    16 ]

  Energy converged.

  @DF-RHF Final Energy:  -227.85941660343832

   => Energetics <=

    Nuclear Repulsion Energy =            122.7995105230279336
    One-Electron Energy =                -554.8189454252095629
    Two-Electron Energy =                 204.1600182987433811
    DFT Exchange-Correlation Energy =       0.0000000000000000
    Empirical Dispersion Energy =           0.0000000000000000
    PCM Polarization Energy =               0.0000000000000000
    EFP Energy =                            0.0000000000000000
    Total Energy =                       -227.8594166034382340


  Saving occupied orbitals to File 180.

*** tstop() called on cx1-27-2-2 at Sat Sep 10 15:21:03 2016
Module time:
	user time   =       6.50 seconds =       0.11 minutes
	system time =       0.29 seconds =       0.00 minutes
	total time  =          2 seconds =       0.03 minutes
Total time:
	user time   =       6.50 seconds =       0.11 minutes
	system time =       0.29 seconds =       0.00 minutes
	total time  =          2 seconds =       0.03 minutes


Properties will be evaluated at   0.000000,   0.000000,   0.000000 Bohr

Properties computed using the SCF density matrix

  Nuclear Dipole Moment: (a.u.)
     X:     3.2826      Y:    -0.8439      Z:     3.1004

  Electronic Dipole Moment: (a.u.)
     X:    -2.2908      Y:     1.0868      Z:    -2.4659

  Dipole Moment: (a.u.)
     X:     0.9918      Y:     0.2429      Z:     0.6345     Total:     1.2022

  Dipole Moment: (Debye)
     X:     2.5210      Y:     0.6174      Z:     1.6128     Total:     3.0558


*** tstart() called on cx1-27-2-2
*** at Sat Sep 10 15:21:03 2016


         ------------------------------------------------------------
                                   SCF GRAD                          
                          Rob Parrish, Justin Turney,                
                       Andy Simmonett, and Alex Sokolov              
         ------------------------------------------------------------

  ==> Geometry <==

    Molecular point group: c1
    Full point group: C1

    Geometry (in Angstrom), charge = 0, multiplicity = 1:

       Center              X                  Y                   Z               Mass       
    ------------   -----------------  -----------------  -----------------  -----------------
           H          1.953648027935    -1.321819927376     0.697093154921     1.007825032070
           C          1.088438027935    -0.715145927376     0.904917154921    12.000000000000
           O          0.694006027935    -0.146314927376    -0.322892845079    15.994914619560
           H          1.355259027935     0.051114072624     1.621765154921     1.007825032070
           H          0.305343027935    -1.340849927376     1.314178154921     1.007825032070
           C         -0.358887972065     0.648403072624    -0.322693845079    12.000000000000
           O         -1.462220972065     0.253141072624    -0.322503845079    15.994914619560
           H         -0.108748972065     1.710843072624    -0.322555845079     1.007825032070

  Nuclear repulsion =  122.799510523027934

  ==> Basis Set <==

  Basis Set: CC-PVTZ
    Number of shells: 64
    Number of basis function: 176
    Number of Cartesian functions: 200
    Spherical Harmonics?: true
    Max angular momentum: 3

  ==> DFJKGrad: Density-Fitted SCF Gradients <==

    Gradient:                    1
    J tasked:                  Yes
    K tasked:                  Yes
    wK tasked:                  No
    OpenMP threads:              4
    Integrals threads:           4
    Memory (MB):              1430
    Schwarz Cutoff:          0E+00
    Fitting Condition:       1E-12

   => Auxiliary Basis Set <=

  Basis Set: 
    Number of shells: 140
    Number of basis function: 436
    Number of Cartesian functions: 524
    Spherical Harmonics?: true
    Max angular momentum: 4


  -Total Gradient:
     Atom            X                  Y                   Z
    ------   -----------------  -----------------  -----------------
       1       -0.000565386973    -0.000228388591     0.000125895590
       2        0.000764144677     0.005650310863    -0.002294907612
       3       -0.018025096328     0.002064741252     0.002916931323
       4        0.000031171278    -0.001210719453    -0.000188585742
       5        0.000594454524    -0.001402855065     0.000988177601
       6        0.012715347111    -0.003081347235    -0.004369166660
       7        0.004447911144    -0.003774832839    -0.000236267281
       8        0.000037454567     0.001983091068     0.003057922779


*** tstop() called on cx1-27-2-2 at Sat Sep 10 15:21:05 2016
Module time:
	user time   =       6.95 seconds =       0.12 minutes
	system time =       0.25 seconds =       0.00 minutes
	total time  =          2 seconds =       0.03 minutes
Total time:
	user time   =      13.50 seconds =       0.23 minutes
	system time =       0.54 seconds =       0.01 minutes
	total time  =          4 seconds =       0.07 minutes

			-----------------------------------------
			 OPTKING 2.0: for geometry optimizations 
			  - R.A. King,  Bethel University        
			-----------------------------------------

	Internal coordinates to be generated automatically.
	Detected frag 1 with atoms:  1 2 3 4 5 6 7 8
	---Fragment 1 Bond Connectivity---
	 1 : 2
	 2 : 1 3 4 5
	 3 : 2 6
	 4 : 2
	 5 : 2
	 6 : 3 7 8
	 7 : 6
	 8 : 6

	Assuming in current code that numbering for constraints corresponds to unified fragment.
	Frozen dihedral atom list: 
	     2     3     6     7
	---Fragment 1 Geometry and Gradient---
	 H           3.6918597329       -2.4978776597        1.3173151519
	 C           2.0568497854       -1.3514299478        1.7100455958
	 O           1.3114813274       -0.2764951419       -0.6101790475
	 H           2.5610684019        0.0965915988        3.0646919947
	 H           0.5770146994       -2.5338391480        2.4834368026
	 C          -0.6781999796        1.2253042310       -0.6098029920
	 O          -2.7631971830        0.4783673002       -0.6094439440
	 H          -0.2055057744        3.2330248636       -0.6095422098
	            -0.0005653870       -0.0002283886        0.0001258956
	             0.0007641447        0.0056503109       -0.0022949076
	            -0.0180250963        0.0020647413        0.0029169313
	             0.0000311713       -0.0012107195       -0.0001885857
	             0.0005944545       -0.0014028551        0.0009881776
	             0.0127153471       -0.0030813472       -0.0043691667
	             0.0044479111       -0.0037748328       -0.0002362673
	             0.0000374546        0.0019830911        0.0030579228

	Previous optimization step data not found.  Starting new optimization.

	---Fragment 1 Intrafragment Coordinates---
	 - Coordinate -           - BOHR/RAD -       - ANG/DEG -
	 R(1,2)           =         2.035150	       1.076955
	 R(2,3)           =         2.663551	       1.409490
	 R(2,4)           =         2.045989	       1.082691
	 R(2,5)           =         2.046005	       1.082699
	 R(3,6)           =         2.492836	       1.319152
	 R(6,7)           =         2.214752	       1.171996
	 R(6,8)           =         2.062615	       1.091489
	 B(1,2,3)         =         1.858824	     106.502747
	 B(1,2,4)         =         1.905473	     109.175572
	 B(1,2,5)         =         1.905475	     109.175697
	 B(2,3,6)         =         2.055963	     117.798026
	 B(3,2,4)         =         1.939168	     111.106168
	 B(3,2,5)         =         1.939175	     111.106529
	 B(3,6,7)         =         2.151031	     123.244978
	 B(3,6,8)         =         1.986131	     113.796940
	 B(4,2,5)         =         1.914506	     109.693126
	 B(7,6,8)         =         2.146023	     122.958080
	 D(1,2,3,6)       =        -3.141189	    -179.976886
	*D(2,3,6,7)       =        -1.396263	     -79.999971
	 D(2,3,6,8)       =         1.745163	      99.990483
	 D(4,2,3,6)       =        -1.067952	     -61.189126
	 D(5,2,3,6)       =         1.068752	      61.235005

	Current energy   :      -227.8594166034

	Generating empirical Hessian (Schlegel '84) for each fragment.
	Taking RFO optimization step.
	Going to follow RFO solution 1.
	Using RFO vector 1.
	Norm of target step-size    0.32041
	Projected energy change by RFO approximation:        -0.0017273810

	Back-transformation to cartesian coordinates...
	Successfully converged to displaced geometry.

	Back-transformation to cartesian coordinates to adjust frozen coordinates...
	Successfully converged to displaced geometry.

	--- Internal Coordinate Step in ANG or DEG, aJ/ANG or AJ/DEG ---
	 ---------------------------------------------------------------------------
	   Coordinate                Previous        Force       Change         New 
	   ----------                --------       ------       ------       ------
	    1 R(1,2)          =      1.076955     0.002882     0.000505     1.077460
	    2 R(2,3)          =      1.409490     0.017265     0.002500     1.411990
	    3 R(2,4)          =      1.082691     0.008025     0.001434     1.084124
	    4 R(2,5)          =      1.082699    -0.006214    -0.001110     1.081589
	    5 R(3,6)          =      1.319152     0.137298     0.014128     1.333280
	    6 R(6,7)          =      1.171996     0.024010     0.001279     1.173276
	    7 R(6,8)          =      1.091489    -0.015977    -0.002939     1.088550
	    8 B(1,2,3)        =    106.502747     0.000046     0.300222   106.802969
	    9 B(1,2,4)        =    109.175572     0.000029     0.220968   109.396540
	   10 B(1,2,5)        =    109.175697     0.000108     0.626883   109.802580
	   11 B(2,3,6)        =    117.798026    -0.000173    -0.621922   117.176103
	   12 B(3,2,4)        =    111.106168    -0.000076    -0.495492   110.610677
	   13 B(3,2,5)        =    111.106529    -0.000147    -0.656745   110.449784
	   14 B(3,6,7)        =    123.244978     0.000590     2.531054   125.776032
	   15 B(3,6,8)        =    113.796940    -0.000328    -3.026493   110.770447
	   16 B(4,2,5)        =    109.693126     0.000045     0.036684   109.729810
	   17 B(7,6,8)        =    122.958080    -0.000262    -2.001797   120.956284
	   18 D(1,2,3,6)      =   -179.976886     0.000002    -1.093637  -181.070523
	   19 *D(2,3,6,7)     =    -79.999971     0.000000     0.000000   -79.999971
	   20 D(2,3,6,8)      =     99.990483     0.000101    17.948059   117.938542
	   21 D(4,2,3,6)      =    -61.189126     0.000007    -0.920803   -62.109929
	   22 D(5,2,3,6)      =     61.235005    -0.000016    -1.665465    59.569540
	 ---------------------------------------------------------------------------
	Successfully symmetrized geometry.

  ==> Convergence Check <==

  Measures of convergence in internal coordinates in au.
  Criteria marked as inactive (o), active & met (*), and active & unmet ( ).
  --------------------------------------------------------------------------------------------- ~
   Step     Total Energy     Delta E     MAX Force     RMS Force      MAX Disp      RMS Disp    ~
  --------------------------------------------------------------------------------------------- ~
    Convergence Criteria    1.00e-06 *    3.00e-04 *             o    1.20e-03 *             o  ~
  --------------------------------------------------------------------------------------------- ~
      1    -227.85941660   -2.28e+02      1.67e-02      4.44e-03 o    3.13e-01      6.97e-02 o  ~
  ---------------------------------------------------------------------------------------------

	Writing optimization data to binary file.
	Structure for next step:
	Cartesian Geometry (in Angstrom)
	    H     2.0141696210  -1.2820957684   0.6337355804
	    C     1.1339573382  -0.7161412841   0.8903342666
	    O     0.6889470900  -0.0932351263  -0.2961182306
	    H     1.3884801189   0.0258898495   1.6386213952
	    H     0.3721637709  -1.3790091633   1.2777764242
	    C    -0.4147549079   0.6504848928  -0.2163826663
	    O    -1.5159647894   0.2456315272  -0.2137293525
	    H    -0.2001620182   1.6878456536  -0.4669301776
			--------------------------
			 OPTKING Finished Execution 
			--------------------------

    Structure for next step:
    Molecular point group: c1
    Full point group: C1

    Geometry (in Angstrom), charge = 0, multiplicity = 1:

    H            2.030747534137    -1.293673492887     0.583090414940
    C            1.150535251345    -0.727719008577     0.839689101113
    O            0.705525003226    -0.104812850843    -0.346763396061
    H            1.405058032101     0.014312124959     1.587976229759
    H            0.388741684040    -1.390586887851     1.227131258684
    C           -0.398176994732     0.638907168287    -0.267027831792
    O           -1.499386876205     0.234053802721    -0.264374517993
    H           -0.183584104982     1.676267929038    -0.517575343089

gradient() will perform analytic gradient computation.

*** tstart() called on cx1-27-2-2
*** at Sat Sep 10 15:21:05 2016


         ---------------------------------------------------------
                                   SCF
            by Justin Turney, Rob Parrish, and Andy Simmonett
                              RHF Reference
                        4 Threads,   2000 MiB Core
         ---------------------------------------------------------

  ==> Geometry <==

    Molecular point group: c1
    Full point group: C1

    Geometry (in Angstrom), charge = 0, multiplicity = 1:

       Center              X                  Y                   Z               Mass       
    ------------   -----------------  -----------------  -----------------  -----------------
           H          2.030747534137    -1.293673492887     0.583090414940     1.007825032070
           C          1.150535251345    -0.727719008577     0.839689101113    12.000000000000
           O          0.705525003226    -0.104812850843    -0.346763396061    15.994914619560
           H          1.405058032101     0.014312124959     1.587976229759     1.007825032070
           H          0.388741684040    -1.390586887851     1.227131258684     1.007825032070
           C         -0.398176994732     0.638907168287    -0.267027831792    12.000000000000
           O         -1.499386876205     0.234053802721    -0.264374517993    15.994914619560
           H         -0.183584104982     1.676267929038    -0.517575343089     1.007825032070

  Running in c1 symmetry.

  Rotational constants: A =      0.89699  B =      0.18798  C =      0.16992 [cm^-1]
  Rotational constants: A =  26891.07005  B =   5635.37477  C =   5093.92858 [MHz]
  Nuclear repulsion =  122.127866330588631

  Charge       = 0
  Multiplicity = 1
  Electrons    = 32
  Nalpha       = 16
  Nbeta        = 16

  ==> Algorithm <==

  SCF Algorithm Type is DF.
  DIIS enabled.
  MOM disabled.
  Fractional occupation disabled.
  Guess Type is READ.
  Energy threshold   = 1.00e-08
  Density threshold  = 1.00e-08
  Integral threshold = 0.00e+00

  ==> Primary Basis <==

  Basis Set: CC-PVTZ
    Number of shells: 64
    Number of basis function: 176
    Number of Cartesian functions: 200
    Spherical Harmonics?: true
    Max angular momentum: 3

  ==> Pre-Iterations <==

   -------------------------------------------------------
    Irrep   Nso     Nmo     Nalpha   Nbeta   Ndocc  Nsocc
   -------------------------------------------------------
     A        176     176       0       0       0       0
   -------------------------------------------------------
    Total     176     176      16      16      16       0
   -------------------------------------------------------

  ==> Integral Setup <==

  ==> DFJK: Density-Fitted J/K Matrices <==

    J tasked:                  Yes
    K tasked:                  Yes
    wK tasked:                  No
    OpenMP threads:              4
    Integrals threads:           4
    Memory (MB):              1430
    Algorithm:                Core
    Integral Cache:           NONE
    Schwarz Cutoff:          1E-12
    Fitting Condition:       1E-12

   => Auxiliary Basis Set <=

  Basis Set: 
    Number of shells: 140
    Number of basis function: 436
    Number of Cartesian functions: 524
    Spherical Harmonics?: true
    Max angular momentum: 4

  Minimum eigenvalue in the overlap matrix is 1.5856373386E-03.
  Using Symmetric Orthogonalization.
  SCF Guess: Reading in previously saved MOs, projecting if necessary.

  Using orbitals from previous SCF, no projection.
  Recomputing DOCC and SOCC from number of alpha and beta electrons from previous calculation.
              A 
    DOCC [    16 ]

  ==> Iterations <==

                           Total Energy        Delta E     RMS |[F,P]|

   @DF-RHF iter   0:  -227.82075500452061   -2.27821e+02   9.67476e-04 
   @DF-RHF iter   1:  -227.85548408011982   -3.47291e-02   1.99339e-04 
   @DF-RHF iter   2:  -227.85634677935866   -8.62699e-04   1.06193e-04 DIIS
   @DF-RHF iter   3:  -227.85653447872852   -1.87699e-04   5.02654e-05 DIIS
   @DF-RHF iter   4:  -227.85661337565102   -7.88969e-05   1.49337e-05 DIIS
   @DF-RHF iter   5:  -227.85662666646226   -1.32908e-05   7.11721e-06 DIIS
   @DF-RHF iter   6:  -227.85663105711649   -4.39065e-06   2.55855e-06 DIIS
   @DF-RHF iter   7:  -227.85663157439257   -5.17276e-07   9.18101e-07 DIIS
   @DF-RHF iter   8:  -227.85663162959895   -5.52064e-08   3.56757e-07 DIIS
   @DF-RHF iter   9:  -227.85663163581705   -6.21810e-09   1.48753e-07 DIIS
   @DF-RHF iter  10:  -227.85663163690469   -1.08764e-09   4.56618e-08 DIIS
   @DF-RHF iter  11:  -227.85663163700980   -1.05103e-10   1.30970e-08 DIIS
   @DF-RHF iter  12:  -227.85663163701724   -7.44649e-12   4.26628e-09 DIIS

  ==> Post-Iterations <==

    Orbital Energies (a.u.)
    -----------------------

    Doubly Occupied:                                                      

       1A    -20.593555     2A    -20.562355     3A    -11.375118  
       4A    -11.295470     5A     -1.473642     6A     -1.385953  
       7A     -0.990832     8A     -0.828919     9A     -0.741756  
      10A     -0.691058    11A     -0.670810    12A     -0.625588  
      13A     -0.563838    14A     -0.518433    15A     -0.475914  
      16A     -0.457245  

    Virtual:                                                              

      17A      0.126547    18A      0.163575    19A      0.180537  
      20A      0.205719    21A      0.221259    22A      0.241273  
      23A      0.312757    24A      0.366814    25A      0.376994  
      26A      0.394069    27A      0.494764    28A      0.511162  
      29A      0.552667    30A      0.576741    31A      0.600519  
      32A      0.609245    33A      0.622815    34A      0.636089  
      35A      0.682538    36A      0.716884    37A      0.745736  
      38A      0.771122    39A      0.786260    40A      0.852251  
      41A      0.883009    42A      0.892313    43A      0.922293  
      44A      0.977080    45A      1.004507    46A      1.050834  
      47A      1.084712    48A      1.135771    49A      1.168355  
      50A      1.184296    51A      1.246601    52A      1.252819  
      53A      1.275268    54A      1.295320    55A      1.331064  
      56A      1.361522    57A      1.384953    58A      1.407335  
      59A      1.500755    60A      1.518149    61A      1.533980  
      62A      1.545276    63A      1.587779    64A      1.716639  
      65A      1.783574    66A      1.868250    67A      1.935415  
      68A      1.962439    69A      2.097540    70A      2.161387  
      71A      2.241260    72A      2.259396    73A      2.309046  
      74A      2.373055    75A      2.409957    76A      2.442694  
      77A      2.482839    78A      2.496637    79A      2.597520  
      80A      2.648169    81A      2.738927    82A      2.826999  
      83A      2.864573    84A      2.932283    85A      3.025215  
      86A      3.059896    87A      3.084124    88A      3.100815  
      89A      3.126426    90A      3.133363    91A      3.215424  
      92A      3.249118    93A      3.290796    94A      3.305408  
      95A      3.332690    96A      3.365615    97A      3.419547  
      98A      3.458439    99A      3.481723   100A      3.521218  
     101A      3.569263   102A      3.602132   103A      3.644697  
     104A      3.654893   105A      3.669891   106A      3.721928  
     107A      3.726048   108A      3.741174   109A      3.816058  
     110A      3.830310   111A      3.872645   112A      3.885950  
     113A      4.012312   114A      4.024730   115A      4.073469  
     116A      4.130786   117A      4.148266   118A      4.183035  
     119A      4.206087   120A      4.244024   121A      4.329054  
     122A      4.366740   123A      4.380932   124A      4.402297  
     125A      4.462636   126A      4.553713   127A      4.582894  
     128A      4.718044   129A      4.775636   130A      4.836463  
     131A      4.882404   132A      4.996814   133A      5.024858  
     134A      5.050873   135A      5.112060   136A      5.189429  
     137A      5.234669   138A      5.278861   139A      5.329961  
     140A      5.360769   141A      5.499661   142A      5.555505  
     143A      5.565544   144A      5.591493   145A      5.625724  
     146A      5.658140   147A      5.686390   148A      5.855923  
     149A      5.932278   150A      5.974980   151A      6.102221  
     152A      6.185240   153A      6.193316   154A      6.238972  
     155A      6.325391   156A      6.415447   157A      6.673778  
     158A      6.713773   159A      6.832002   160A      6.875976  
     161A      6.890113   162A      6.914001   163A      6.932109  
     164A      7.200914   165A      7.221716   166A      7.319206  
     167A      7.414472   168A      7.548058   169A      7.608847  
     170A      7.740772   171A      7.762946   172A      7.904475  
     173A     10.387776   174A     11.802441   175A     14.004030  
     176A     14.365005  

    Final Occupation by Irrep:
              A 
    DOCC [    16 ]

  Energy converged.

  @DF-RHF Final Energy:  -227.85663163701724

   => Energetics <=

    Nuclear Repulsion Energy =            122.1278663305886312
    One-Electron Energy =                -553.4680239662982331
    Two-Electron Energy =                 203.4835259986924143
    DFT Exchange-Correlation Energy =       0.0000000000000000
    Empirical Dispersion Energy =           0.0000000000000000
    PCM Polarization Energy =               0.0000000000000000
    EFP Energy =                            0.0000000000000000
    Total Energy =                       -227.8566316370171876


  Saving occupied orbitals to File 180.

*** tstop() called on cx1-27-2-2 at Sat Sep 10 15:21:07 2016
Module time:
	user time   =       5.00 seconds =       0.08 minutes
	system time =       0.10 seconds =       0.00 minutes
	total time  =          2 seconds =       0.03 minutes
Total time:
	user time   =      19.26 seconds =       0.32 minutes
	system time =       0.67 seconds =       0.01 minutes
	total time  =          6 seconds =       0.10 minutes


Properties will be evaluated at   0.000000,   0.000000,   0.000000 Bohr

Properties computed using the SCF density matrix

  Nuclear Dipole Moment: (a.u.)
     X:     3.4095      Y:    -0.9309      Z:     2.6976

  Electronic Dipole Moment: (a.u.)
     X:    -2.4190      Y:     1.1308      Z:    -2.1132

  Dipole Moment: (a.u.)
     X:     0.9905      Y:     0.1999      Z:     0.5843     Total:     1.1673

  Dipole Moment: (Debye)
     X:     2.5176      Y:     0.5081      Z:     1.4853     Total:     2.9669


*** tstart() called on cx1-27-2-2
*** at Sat Sep 10 15:21:07 2016


         ------------------------------------------------------------
                                   SCF GRAD                          
                          Rob Parrish, Justin Turney,                
                       Andy Simmonett, and Alex Sokolov              
         ------------------------------------------------------------

  ==> Geometry <==

    Molecular point group: c1
    Full point group: C1

    Geometry (in Angstrom), charge = 0, multiplicity = 1:

       Center              X                  Y                   Z               Mass       
    ------------   -----------------  -----------------  -----------------  -----------------
           H          2.030747534137    -1.293673492887     0.583090414940     1.007825032070
           C          1.150535251345    -0.727719008577     0.839689101113    12.000000000000
           O          0.705525003226    -0.104812850843    -0.346763396061    15.994914619560
           H          1.405058032101     0.014312124959     1.587976229759     1.007825032070
           H          0.388741684040    -1.390586887851     1.227131258684     1.007825032070
           C         -0.398176994732     0.638907168287    -0.267027831792    12.000000000000
           O         -1.499386876205     0.234053802721    -0.264374517993    15.994914619560
           H         -0.183584104982     1.676267929038    -0.517575343089     1.007825032070

  Nuclear repulsion =  122.127866330588631

  ==> Basis Set <==

  Basis Set: CC-PVTZ
    Number of shells: 64
    Number of basis function: 176
    Number of Cartesian functions: 200
    Spherical Harmonics?: true
    Max angular momentum: 3

  ==> DFJKGrad: Density-Fitted SCF Gradients <==

    Gradient:                    1
    J tasked:                  Yes
    K tasked:                  Yes
    wK tasked:                  No
    OpenMP threads:              4
    Integrals threads:           4
    Memory (MB):              1430
    Schwarz Cutoff:          0E+00
    Fitting Condition:       1E-12

   => Auxiliary Basis Set <=

  Basis Set: 
    Number of shells: 140
    Number of basis function: 436
    Number of Cartesian functions: 524
    Spherical Harmonics?: true
    Max angular momentum: 4


  -Total Gradient:
     Atom            X                  Y                   Z
    ------   -----------------  -----------------  -----------------
       1        0.000105924994    -0.000031430272    -0.000102961803
       2        0.001914077482     0.005159477630    -0.000840977626
       3       -0.003835092806    -0.001396516816    -0.014756814128
       4       -0.000359717124     0.000360605095     0.000220722745
       5       -0.000578401320     0.000280110097    -0.000501712929
       6        0.007222460133    -0.005009933970     0.048766743801
       7       -0.003211276197     0.004525765917    -0.019882332758
       8       -0.001257975161    -0.003888077682    -0.012902667304


*** tstop() called on cx1-27-2-2 at Sat Sep 10 15:21:09 2016
Module time:
	user time   =       6.68 seconds =       0.11 minutes
	system time =       0.24 seconds =       0.00 minutes
	total time  =          2 seconds =       0.03 minutes
Total time:
	user time   =      25.99 seconds =       0.43 minutes
	system time =       0.92 seconds =       0.02 minutes
	total time  =          8 seconds =       0.13 minutes

			-----------------------------------------
			 OPTKING 2.0: for geometry optimizations 
			  - R.A. King,  Bethel University        
			-----------------------------------------

	Previous internal coordinate definitions found.
	---Fragment 1 Geometry and Gradient---
	 H           3.8375566846       -2.4446886069        1.1018811949
	 C           2.1741965313       -1.3751896279        1.5867824379
	 O           1.3332490360       -0.1980675833       -0.6552878515
	 H           2.6551748815        0.0270459966        3.0008401798
	 H           0.7346153193       -2.6278283820        2.3189420080
	 C          -0.7524454725        1.2073595724       -0.5046094719
	 O          -2.8334305633        0.4422975875       -0.4995954355
	 H          -0.3469236808        3.1676873112       -0.9780756516
	             0.0001059250       -0.0000314303       -0.0001029618
	             0.0019140775        0.0051594776       -0.0008409776
	            -0.0038350928       -0.0013965168       -0.0147568141
	            -0.0003597171        0.0003606051        0.0002207227
	            -0.0005784013        0.0002801101       -0.0005017129
	             0.0072224601       -0.0050099340        0.0487667438
	            -0.0032112762        0.0045257659       -0.0198823328
	            -0.0012579752       -0.0038880777       -0.0129026673

	---Fragment 1 Intrafragment Coordinates---
	 - Coordinate -           - BOHR/RAD -       - ANG/DEG -
	 R(1,2)           =         2.036105	       1.077460
	 R(2,3)           =         2.668274	       1.411990
	 R(2,4)           =         2.048698	       1.084124
	 R(2,5)           =         2.043907	       1.081589
	 R(3,6)           =         2.519534	       1.333280
	 R(6,7)           =         2.217170	       1.173276
	 R(6,8)           =         2.057062	       1.088550
	 B(1,2,3)         =         1.864063	     106.802969
	 B(1,2,4)         =         1.909330	     109.396540
	 B(1,2,5)         =         1.916417	     109.802580
	 B(2,3,6)         =         2.045109	     117.176103
	 B(3,2,4)         =         1.930520	     110.610677
	 B(3,2,5)         =         1.927712	     110.449784
	 B(3,6,7)         =         2.195206	     125.776032
	 B(3,6,8)         =         1.933309	     110.770447
	 B(4,2,5)         =         1.915146	     109.729810
	 B(7,6,8)         =         2.111085	     120.956284
	 D(1,2,3,6)       =         3.122908	     178.929477
	*D(2,3,6,7)       =        -1.396263	     -79.999971
	 D(2,3,6,8)       =         2.058416	     117.938542
	 D(4,2,3,6)       =        -1.084023	     -62.109929
	 D(5,2,3,6)       =         1.039685	      59.569540

	Current energy   :      -227.8566316370

	Energy change for the previous step:
		Projected    :        -0.0017273810
		Actual       :         0.0027849664

	Performing BFGS update.
	Previous computed or guess Hessian on step 1.
	Steps to be used in Hessian update: 1
	Taking RFO optimization step.
	Going to follow RFO solution 1.
	Using RFO vector 1.
	Norm of target step-size    0.25623
	Projected energy change by RFO approximation:        -0.0064838132

	Back-transformation to cartesian coordinates...
	Could not converge backtransformation.
	Using first guess instead.

	Back-transformation to cartesian coordinates to adjust frozen coordinates...
	Successfully converged to displaced geometry.

	--- Internal Coordinate Step in ANG or DEG, aJ/ANG or AJ/DEG ---
	 ---------------------------------------------------------------------------
	   Coordinate                Previous        Force       Change         New 
	   ----------                --------       ------       ------       ------
	    1 R(1,2)          =      1.077460    -0.001051     0.000587     1.078047
	    2 R(2,3)          =      1.411990     0.026638     0.003166     1.415156
	    3 R(2,4)          =      1.084124    -0.002593     0.001673     1.085798
	    4 R(2,5)          =      1.081589    -0.000461     0.000730     1.082319
	    5 R(3,6)          =      1.333280     0.030996     0.006044     1.339324
	    6 R(6,7)          =      1.173276    -0.011595     0.000711     1.173987
	    7 R(6,8)          =      1.088550     0.008103     0.019531     1.108081
	    8 B(1,2,3)        =    106.802969    -0.000022     0.010586   106.813555
	    9 B(1,2,4)        =    109.396540    -0.000032     0.031039   109.427579
	   10 B(1,2,5)        =    109.802580    -0.000037     0.125006   109.927586
	   11 B(2,3,6)        =    117.176103     0.000269     0.088609   117.264712
	   12 B(3,2,4)        =    110.610677     0.000009    -0.117647   110.493029
	   13 B(3,2,5)        =    110.449784     0.000098    -0.039284   110.410499
	   14 B(3,6,7)        =    125.776032    -0.000362     0.941225   126.717257
	   15 B(3,6,8)        =    110.770447     0.000561     1.113534   111.883981
	   16 B(4,2,5)        =    109.729810    -0.000017    -0.006833   109.722976
	   17 B(7,6,8)        =    120.956284     0.000315     0.347704   121.303987
	   18 D(1,2,3,6)      =    178.929477     0.000000    -0.590868   178.338609
	   19 *D(2,3,6,7)     =    -79.999971     0.000000     0.000000   -79.999971
	   20 D(2,3,6,8)      =    117.938542    -0.000430   -14.406842   103.531699
	   21 D(4,2,3,6)      =    -62.109929    -0.000010    -0.612253   -62.722182
	   22 D(5,2,3,6)      =     59.569540     0.000001    -0.725793    58.843748
	 ---------------------------------------------------------------------------
	Successfully symmetrized geometry.

  ==> Convergence Check <==

  Measures of convergence in internal coordinates in au.
  Criteria marked as inactive (o), active & met (*), and active & unmet ( ).
  ---------------------------------------------------------------------------------------------
   Step     Total Energy     Delta E     MAX Force     RMS Force      MAX Disp      RMS Disp   
  ---------------------------------------------------------------------------------------------
    Convergence Criteria    1.00e-06 *    3.00e-04 *             o    1.20e-03 *             o
  ---------------------------------------------------------------------------------------------
      2    -227.85663164    2.78e-03      2.46e-02      5.82e-03 o    2.51e-01      5.47e-02 o  ~
  ---------------------------------------------------------------------------------------------

	Writing optimization data to binary file.
	Structure for next step:
	Cartesian Geometry (in Angstrom)
	    H     2.0225242410  -1.3096610730   0.5976504590
	    C     1.1512542791  -0.7204572174   0.8341113082
	    O     0.7027342346  -0.1475997316  -0.3796965725
	    H     1.4218054261   0.0556625971   1.5436161070
	    H     0.3827907360  -1.3526790915   1.2597566880
	    C    -0.4025771289   0.6071477731  -0.3303870294
	    O    -1.5125430988   0.2255463700  -0.3058536135
	    H    -0.1665291601   1.6887891583  -0.3770514313
			--------------------------
			 OPTKING Finished Execution 
			--------------------------

    Structure for next step:
    Molecular point group: c1
    Full point group: C1

    Geometry (in Angstrom), charge = 0, multiplicity = 1:

    H            2.027180307237    -1.292366589666     0.628855983860
    C            1.155910345338    -0.703162734074     0.865316833055
    O            0.707390300786    -0.130305248305    -0.348491047564
    H            1.426461492333     0.072957080416     1.574821631930
    H            0.387446802253    -1.335384608211     1.290962212851
    C           -0.397921062708     0.624442256471    -0.299181504469
    O           -1.507887032616     0.242840853315    -0.274648088577
    H           -0.161873093856     1.706083641607    -0.345845906406

gradient() will perform analytic gradient computation.

*** tstart() called on cx1-27-2-2
*** at Sat Sep 10 15:21:09 2016


         ---------------------------------------------------------
                                   SCF
            by Justin Turney, Rob Parrish, and Andy Simmonett
                              RHF Reference
                        4 Threads,   2000 MiB Core
         ---------------------------------------------------------

  ==> Geometry <==

    Molecular point group: c1
    Full point group: C1

    Geometry (in Angstrom), charge = 0, multiplicity = 1:

       Center              X                  Y                   Z               Mass       
    ------------   -----------------  -----------------  -----------------  -----------------
           H          2.027180307237    -1.292366589666     0.628855983860     1.007825032070
           C          1.155910345338    -0.703162734074     0.865316833055    12.000000000000
           O          0.707390300786    -0.130305248305    -0.348491047564    15.994914619560
           H          1.426461492333     0.072957080416     1.574821631930     1.007825032070
           H          0.387446802253    -1.335384608211     1.290962212851     1.007825032070
           C         -0.397921062708     0.624442256471    -0.299181504469    12.000000000000
           O         -1.507887032616     0.242840853315    -0.274648088577    15.994914619560
           H         -0.161873093856     1.706083641607    -0.345845906406     1.007825032070

  Running in c1 symmetry.

  Rotational constants: A =      0.89685  B =      0.18518  C =      0.16887 [cm^-1]
  Rotational constants: A =  26886.73759  B =   5551.56108  C =   5062.53636 [MHz]
  Nuclear repulsion =  121.673727225805749

  Charge       = 0
  Multiplicity = 1
  Electrons    = 32
  Nalpha       = 16
  Nbeta        = 16

  ==> Algorithm <==

  SCF Algorithm Type is DF.
  DIIS enabled.
  MOM disabled.
  Fractional occupation disabled.
  Guess Type is READ.
  Energy threshold   = 1.00e-08
  Density threshold  = 1.00e-08
  Integral threshold = 0.00e+00

  ==> Primary Basis <==

  Basis Set: CC-PVTZ
    Number of shells: 64
    Number of basis function: 176
    Number of Cartesian functions: 200
    Spherical Harmonics?: true
    Max angular momentum: 3

  ==> Pre-Iterations <==

   -------------------------------------------------------
    Irrep   Nso     Nmo     Nalpha   Nbeta   Ndocc  Nsocc
   -------------------------------------------------------
     A        176     176       0       0       0       0
   -------------------------------------------------------
    Total     176     176      16      16      16       0
   -------------------------------------------------------

  ==> Integral Setup <==

  ==> DFJK: Density-Fitted J/K Matrices <==

    J tasked:                  Yes
    K tasked:                  Yes
    wK tasked:                  No
    OpenMP threads:              4
    Integrals threads:           4
    Memory (MB):              1430
    Algorithm:                Core
    Integral Cache:           NONE
    Schwarz Cutoff:          1E-12
    Fitting Condition:       1E-12

   => Auxiliary Basis Set <=

  Basis Set: 
    Number of shells: 140
    Number of basis function: 436
    Number of Cartesian functions: 524
    Spherical Harmonics?: true
    Max angular momentum: 4

  Minimum eigenvalue in the overlap matrix is 1.5670336982E-03.
  Using Symmetric Orthogonalization.
  SCF Guess: Reading in previously saved MOs, projecting if necessary.

  Using orbitals from previous SCF, no projection.
  Recomputing DOCC and SOCC from number of alpha and beta electrons from previous calculation.
              A 
    DOCC [    16 ]

  ==> Iterations <==

                           Total Energy        Delta E     RMS |[F,P]|

   @DF-RHF iter   0:  -227.84276301542644   -2.27843e+02   6.54933e-04 
   @DF-RHF iter   1:  -227.85883239319168   -1.60694e-02   1.21256e-04 
   @DF-RHF iter   2:  -227.85927202455611   -4.39631e-04   5.55754e-05 DIIS
   @DF-RHF iter   3:  -227.85937171786139   -9.96933e-05   3.67928e-05 DIIS
   @DF-RHF iter   4:  -227.85941032497755   -3.86071e-05   1.09511e-05 DIIS
   @DF-RHF iter   5:  -227.85942068935577   -1.03644e-05   4.51012e-06 DIIS
   @DF-RHF iter   6:  -227.85942230302982   -1.61367e-06   1.72860e-06 DIIS
   @DF-RHF iter   7:  -227.85942251367817   -2.10648e-07   5.64039e-07 DIIS
   @DF-RHF iter   8:  -227.85942252873014   -1.50520e-08   2.17379e-07 DIIS
   @DF-RHF iter   9:  -227.85942253070232   -1.97218e-09   7.38949e-08 DIIS
   @DF-RHF iter  10:  -227.85942253097409   -2.71768e-10   2.38742e-08 DIIS
   @DF-RHF iter  11:  -227.85942253100092   -2.68301e-11   7.21238e-09 DIIS

  ==> Post-Iterations <==

    Orbital Energies (a.u.)
    -----------------------

    Doubly Occupied:                                                      

       1A    -20.592737     2A    -20.564311     3A    -11.379551  
       4A    -11.297444     5A     -1.470703     6A     -1.386082  
       7A     -0.988567     8A     -0.827720     9A     -0.738733  
      10A     -0.691271    11A     -0.668930    12A     -0.626808  
      13A     -0.564556    14A     -0.516160    15A     -0.478039  
      16A     -0.457335  

    Virtual:                                                              

      17A      0.128626    18A      0.167300    19A      0.176910  
      20A      0.205889    21A      0.219821    22A      0.240427  
      23A      0.310908    24A      0.368354    25A      0.376222  
      26A      0.393982    27A      0.484016    28A      0.510379  
      29A      0.555034    30A      0.575471    31A      0.601205  
      32A      0.611566    33A      0.614747    34A      0.632019  
      35A      0.678913    36A      0.710506    37A      0.753247  
      38A      0.761123    39A      0.782946    40A      0.854369  
      41A      0.878478    42A      0.898613    43A      0.922401  
      44A      0.992066    45A      1.014846    46A      1.045515  
      47A      1.057785    48A      1.144793    49A      1.164216  
      50A      1.183376    51A      1.228532    52A      1.252073  
      53A      1.274441    54A      1.288096    55A      1.329500  
      56A      1.360350    57A      1.376602    58A      1.409526  
      59A      1.495372    60A      1.515190    61A      1.535505  
      62A      1.541794    63A      1.578114    64A      1.720372  
      65A      1.782416    66A      1.867535    67A      1.926217  
      68A      1.953227    69A      2.099189    70A      2.163873  
      71A      2.255884    72A      2.286607    73A      2.331092  
      74A      2.364292    75A      2.405206    76A      2.415820  
      77A      2.464983    78A      2.495728    79A      2.608892  
      80A      2.637563    81A      2.762771    82A      2.806623  
      83A      2.891635    84A      2.945114    85A      3.014595  
      86A      3.029017    87A      3.067052    88A      3.099293  
      89A      3.127707    90A      3.148915    91A      3.183929  
      92A      3.236697    93A      3.289367    94A      3.316579  
      95A      3.331438    96A      3.365369    97A      3.409410  
      98A      3.456590    99A      3.487668   100A      3.518400  
     101A      3.569681   102A      3.593490   103A      3.602533  
     104A      3.646983   105A      3.666444   106A      3.712801  
     107A      3.723201   108A      3.734845   109A      3.811999  
     110A      3.828601   111A      3.863270   112A      3.896005  
     113A      3.973730   114A      4.021124   115A      4.069363  
     116A      4.121661   117A      4.137521   118A      4.173948  
     119A      4.197295   120A      4.234434   121A      4.333977  
     122A      4.366177   123A      4.372895   124A      4.398634  
     125A      4.453656   126A      4.547255   127A      4.583449  
     128A      4.715091   129A      4.756345   130A      4.824202  
     131A      4.850238   132A      4.969788   133A      4.996731  
     134A      5.060300   135A      5.078391   136A      5.176329  
     137A      5.233453   138A      5.264189   139A      5.326115  
     140A      5.338448   141A      5.500385   142A      5.551704  
     143A      5.567561   144A      5.585802   145A      5.612273  
     146A      5.650682   147A      5.666462   148A      5.839895  
     149A      5.918557   150A      5.977505   151A      6.097853  
     152A      6.184789   153A      6.199319   154A      6.220205  
     155A      6.324225   156A      6.413905   157A      6.668180  
     158A      6.710942   159A      6.796010   160A      6.823290  
     161A      6.873676   162A      6.906083   163A      6.922812  
     164A      7.206896   165A      7.231723   166A      7.323475  
     167A      7.402133   168A      7.540870   169A      7.602978  
     170A      7.732282   171A      7.769231   172A      7.932987  
     173A     10.346591   174A     11.745507   175A     13.984502  
     176A     14.255802  

    Final Occupation by Irrep:
              A 
    DOCC [    16 ]

  Energy converged.

  @DF-RHF Final Energy:  -227.85942253100092

   => Energetics <=

    Nuclear Repulsion Energy =            121.6737272258057487
    One-Electron Energy =                -552.5684029138252527
    Two-Electron Energy =                 203.0352531570187580
    DFT Exchange-Correlation Energy =       0.0000000000000000
    Empirical Dispersion Energy =           0.0000000000000000
    PCM Polarization Energy =               0.0000000000000000
    EFP Energy =                            0.0000000000000000
    Total Energy =                       -227.8594225310007459


  Saving occupied orbitals to File 180.

*** tstop() called on cx1-27-2-2 at Sat Sep 10 15:21:11 2016
Module time:
	user time   =       5.46 seconds =       0.09 minutes
	system time =       0.16 seconds =       0.00 minutes
	total time  =          2 seconds =       0.03 minutes
Total time:
	user time   =      32.16 seconds =       0.54 minutes
	system time =       1.10 seconds =       0.02 minutes
	total time  =         10 seconds =       0.17 minutes


Properties will be evaluated at   0.000000,   0.000000,   0.000000 Bohr

Properties computed using the SCF density matrix

  Nuclear Dipole Moment: (a.u.)
     X:     3.4453      Y:    -0.7951      Z:     2.9489

  Electronic Dipole Moment: (a.u.)
     X:    -2.4521      Y:     1.0022      Z:    -2.3370

  Dipole Moment: (a.u.)
     X:     0.9932      Y:     0.2071      Z:     0.6120     Total:     1.1848

  Dipole Moment: (Debye)
     X:     2.5245      Y:     0.5264      Z:     1.5554     Total:     3.0116


*** tstart() called on cx1-27-2-2
*** at Sat Sep 10 15:21:11 2016


         ------------------------------------------------------------
                                   SCF GRAD                          
                          Rob Parrish, Justin Turney,                
                       Andy Simmonett, and Alex Sokolov              
         ------------------------------------------------------------

  ==> Geometry <==

    Molecular point group: c1
    Full point group: C1

    Geometry (in Angstrom), charge = 0, multiplicity = 1:

       Center              X                  Y                   Z               Mass       
    ------------   -----------------  -----------------  -----------------  -----------------
           H          2.027180307237    -1.292366589666     0.628855983860     1.007825032070
           C          1.155910345338    -0.703162734074     0.865316833055    12.000000000000
           O          0.707390300786    -0.130305248305    -0.348491047564    15.994914619560
           H          1.426461492333     0.072957080416     1.574821631930     1.007825032070
           H          0.387446802253    -1.335384608211     1.290962212851     1.007825032070
           C         -0.397921062708     0.624442256471    -0.299181504469    12.000000000000
           O         -1.507887032616     0.242840853315    -0.274648088577    15.994914619560
           H         -0.161873093856     1.706083641607    -0.345845906406     1.007825032070

  Nuclear repulsion =  121.673727225805749

  ==> Basis Set <==

  Basis Set: CC-PVTZ
    Number of shells: 64
    Number of basis function: 176
    Number of Cartesian functions: 200
    Spherical Harmonics?: true
    Max angular momentum: 3

  ==> DFJKGrad: Density-Fitted SCF Gradients <==

    Gradient:                    1
    J tasked:                  Yes
    K tasked:                  Yes
    wK tasked:                  No
    OpenMP threads:              4
    Integrals threads:           4
    Memory (MB):              1430
    Schwarz Cutoff:          0E+00
    Fitting Condition:       1E-12

   => Auxiliary Basis Set <=

  Basis Set: 
    Number of shells: 140
    Number of basis function: 436
    Number of Cartesian functions: 524
    Spherical Harmonics?: true
    Max angular momentum: 4


  -Total Gradient:
     Atom            X                  Y                   Z
    ------   -----------------  -----------------  -----------------
       1        0.000682698428    -0.000523742841     0.000253683919
       2        0.003290972211     0.001390982999    -0.001014092131
       3        0.004172591674    -0.001085948834    -0.001943750811
       4       -0.000017587651     0.001142463761     0.000743370060
       5       -0.000952850783    -0.000014119612    -0.000017750554
       6        0.001903346695    -0.018355109237     0.006331341095
       7       -0.010353570087     0.005573896823    -0.003857789512
       8        0.001274399510     0.011871576941    -0.000495012066


*** tstop() called on cx1-27-2-2 at Sat Sep 10 15:21:13 2016
Module time:
	user time   =       6.56 seconds =       0.11 minutes
	system time =       0.23 seconds =       0.00 minutes
	total time  =          2 seconds =       0.03 minutes
Total time:
	user time   =      38.78 seconds =       0.65 minutes
	system time =       1.33 seconds =       0.02 minutes
	total time  =         12 seconds =       0.20 minutes

			-----------------------------------------
			 OPTKING 2.0: for geometry optimizations 
			  - R.A. King,  Bethel University        
			-----------------------------------------

	Previous internal coordinate definitions found.
	---Fragment 1 Geometry and Gradient---
	 H           3.8308156027       -2.4422189178        1.1883655865
	 C           2.1843539869       -1.3287849943        1.6352118327
	 O           1.3367739375       -0.2462412330       -0.6585526397
	 H           2.6956215596        0.1378689014        2.9759815925
	 H           0.7321683473       -2.5235111916        2.4395650302
	 C          -0.7519618310        1.1800248505       -0.5653711075
	 O          -2.8494935310        0.4589027066       -0.5190096703
	 H          -0.3058958157        3.2240308424       -0.6535540473
	             0.0006826984       -0.0005237428        0.0002536839
	             0.0032909722        0.0013909830       -0.0010140921
	             0.0041725917       -0.0010859488       -0.0019437508
	            -0.0000175877        0.0011424638        0.0007433701
	            -0.0009528508       -0.0000141196       -0.0000177506
	             0.0019033467       -0.0183551092        0.0063313411
	            -0.0103535701        0.0055738968       -0.0038577895
	             0.0012743995        0.0118715769       -0.0004950121

	---Fragment 1 Intrafragment Coordinates---
	 - Coordinate -           - BOHR/RAD -       - ANG/DEG -
	 R(1,2)           =         2.037214	       1.078047
	 R(2,3)           =         2.674257	       1.415156
	 R(2,4)           =         2.051861	       1.085798
	 R(2,5)           =         2.045287	       1.082319
	 R(3,6)           =         2.530955	       1.339324
	 R(6,7)           =         2.218514	       1.173987
	 R(6,8)           =         2.093970	       1.108081
	 B(1,2,3)         =         1.864248	     106.813555
	 B(1,2,4)         =         1.909872	     109.427579
	 B(1,2,5)         =         1.918598	     109.927586
	 B(2,3,6)         =         2.046655	     117.264712
	 B(3,2,4)         =         1.928467	     110.493029
	 B(3,2,5)         =         1.927027	     110.410499
	 B(3,6,7)         =         2.211633	     126.717257
	 B(3,6,8)         =         1.952744	     111.883981
	 B(4,2,5)         =         1.915027	     109.722976
	 B(7,6,8)         =         2.117154	     121.303987
	 D(1,2,3,6)       =         3.112596	     178.338609
	*D(2,3,6,7)       =        -1.396263	     -79.999971
	 D(2,3,6,8)       =         1.806969	     103.531699
	 D(4,2,3,6)       =        -1.094709	     -62.722182
	 D(5,2,3,6)       =         1.027017	      58.843748

	Current energy   :      -227.8594225310

	Energy change for the previous step:
		Projected    :        -0.0064838132
		Actual       :        -0.0027908940

	Performing BFGS update.
	Previous computed or guess Hessian on step 1.
	Steps to be used in Hessian update: 2 1
	Taking RFO optimization step.
	Going to follow RFO solution 1.
	Using RFO vector 1.
	Norm of target step-size    0.05879
	Projected energy change by RFO approximation:        -0.0013135243

	Back-transformation to cartesian coordinates...
	Could not converge backtransformation.
	Using first guess instead.

	Back-transformation to cartesian coordinates to adjust frozen coordinates...
	Successfully converged to displaced geometry.

	--- Internal Coordinate Step in ANG or DEG, aJ/ANG or AJ/DEG ---
	 ---------------------------------------------------------------------------
	   Coordinate                Previous        Force       Change         New 
	   ----------                --------       ------       ------       ------
	    1 R(1,2)          =      1.078047    -0.006446    -0.000749     1.077299
	    2 R(2,3)          =      1.415156    -0.000941    -0.001475     1.413681
	    3 R(2,4)          =      1.085798    -0.010694    -0.001728     1.084069
	    4 R(2,5)          =      1.082319    -0.005584    -0.000879     1.081440
	    5 R(3,6)          =      1.339324    -0.045167    -0.004678     1.334646
	    6 R(6,7)          =      1.173987    -0.065058    -0.001318     1.172669
	    7 R(6,8)          =      1.108081    -0.097881    -0.019307     1.088774
	    8 B(1,2,3)        =    106.813555    -0.000084    -0.184410   106.629145
	    9 B(1,2,4)        =    109.427579    -0.000011    -0.112285   109.315294
	   10 B(1,2,5)        =    109.927586    -0.000020    -0.126712   109.800874
	   11 B(2,3,6)        =    117.264712    -0.000132    -0.072775   117.191936
	   12 B(3,2,4)        =    110.493029     0.000039     0.174337   110.667367
	   13 B(3,2,5)        =    110.410499     0.000079     0.192478   110.602978
	   14 B(3,6,7)        =    126.717257    -0.000891    -2.016029   124.701228
	   15 B(3,6,8)        =    111.883981     0.000341     0.821489   112.705470
	   16 B(4,2,5)        =    109.722976    -0.000005     0.045977   109.768954
	   17 B(7,6,8)        =    121.303987     0.000547     1.200122   122.504110
	   18 D(1,2,3,6)      =    178.338609     0.000001    -0.264107   178.074501
	   19 *D(2,3,6,7)     =    -79.999971     0.000000     0.000000   -79.999971
	   20 D(2,3,6,8)      =    103.531699     0.000004    -0.160783   103.370917
	   21 D(4,2,3,6)      =    -62.722182    -0.000008    -0.412729   -63.134911
	   22 D(5,2,3,6)      =     58.843748     0.000008    -0.108145    58.735602
	 ---------------------------------------------------------------------------
	Successfully symmetrized geometry.

  ==> Convergence Check <==

  Measures of convergence in internal coordinates in au.
  Criteria marked as inactive (o), active & met (*), and active & unmet ( ).
  ---------------------------------------------------------------------------------------------
   Step     Total Energy     Delta E     MAX Force     RMS Force      MAX Disp      RMS Disp   
  ---------------------------------------------------------------------------------------------
    Convergence Criteria    1.00e-06 *    3.00e-04 *             o    1.20e-03 *             o
  ---------------------------------------------------------------------------------------------
      3    -227.85942253   -2.79e-03      1.19e-02      4.53e-03 o    3.65e-02      1.25e-02 o  ~
  ---------------------------------------------------------------------------------------------

	Writing optimization data to binary file.
	Structure for next step:
	Cartesian Geometry (in Angstrom)
	    H     2.0138898562  -1.2962427758   0.6236438843
	    C     1.1501815067  -0.6988737897   0.8639168063
	    O     0.7058937904  -0.1239107513  -0.3487325866
	    H     1.4329674400   0.0719176542   1.5718144937
	    H     0.3797333884  -1.3247789274   1.2930614522
	    C    -0.3907486714   0.6350948536  -0.2980785170
	    O    -1.4879997911   0.2220441068  -0.2739649992
	    H    -0.1672094604   1.6998542811  -0.3398704189
			--------------------------
			 OPTKING Finished Execution 
			--------------------------

    Structure for next step:
    Molecular point group: c1
    Full point group: C1

    Geometry (in Angstrom), charge = 0, multiplicity = 1:

    H            2.009033377802    -1.295382949173     0.623588029880
    C            1.145325028301    -0.698013963108     0.863860951835
    O            0.701037311968    -0.123050924627    -0.348788441027
    H            1.428110961624     0.072777480845     1.571758639296
    H            0.374876909957    -1.323919100752     1.293005597739
    C           -0.395605149782     0.635954680179    -0.298134371452
    O           -1.492856269498     0.222903933440    -0.274020853648
    H           -0.172065938811     1.700714107749    -0.339926273280

gradient() will perform analytic gradient computation.

*** tstart() called on cx1-27-2-2
*** at Sat Sep 10 15:21:13 2016


         ---------------------------------------------------------
                                   SCF
            by Justin Turney, Rob Parrish, and Andy Simmonett
                              RHF Reference
                        4 Threads,   2000 MiB Core
         ---------------------------------------------------------

  ==> Geometry <==

    Molecular point group: c1
    Full point group: C1

    Geometry (in Angstrom), charge = 0, multiplicity = 1:

       Center              X                  Y                   Z               Mass       
    ------------   -----------------  -----------------  -----------------  -----------------
           H          2.009033377802    -1.295382949173     0.623588029880     1.007825032070
           C          1.145325028301    -0.698013963108     0.863860951835    12.000000000000
           O          0.701037311968    -0.123050924627    -0.348788441027    15.994914619560
           H          1.428110961624     0.072777480845     1.571758639296     1.007825032070
           H          0.374876909957    -1.323919100752     1.293005597739     1.007825032070
           C         -0.395605149782     0.635954680179    -0.298134371452    12.000000000000
           O         -1.492856269498     0.222903933440    -0.274020853648    15.994914619560
           H         -0.172065938811     1.700714107749    -0.339926273280     1.007825032070

  Running in c1 symmetry.

  Rotational constants: A =      0.88821  B =      0.18841  C =      0.17145 [cm^-1]
  Rotational constants: A =  26627.76103  B =   5648.28782  C =   5140.06617 [MHz]
  Nuclear repulsion =  122.187002521147406

  Charge       = 0
  Multiplicity = 1
  Electrons    = 32
  Nalpha       = 16
  Nbeta        = 16

  ==> Algorithm <==

  SCF Algorithm Type is DF.
  DIIS enabled.
  MOM disabled.
  Fractional occupation disabled.
  Guess Type is READ.
  Energy threshold   = 1.00e-08
  Density threshold  = 1.00e-08
  Integral threshold = 0.00e+00

  ==> Primary Basis <==

  Basis Set: CC-PVTZ
    Number of shells: 64
    Number of basis function: 176
    Number of Cartesian functions: 200
    Spherical Harmonics?: true
    Max angular momentum: 3

  ==> Pre-Iterations <==

   -------------------------------------------------------
    Irrep   Nso     Nmo     Nalpha   Nbeta   Ndocc  Nsocc
   -------------------------------------------------------
     A        176     176       0       0       0       0
   -------------------------------------------------------
    Total     176     176      16      16      16       0
   -------------------------------------------------------

  ==> Integral Setup <==

  ==> DFJK: Density-Fitted J/K Matrices <==

    J tasked:                  Yes
    K tasked:                  Yes
    wK tasked:                  No
    OpenMP threads:              4
    Integrals threads:           4
    Memory (MB):              1430
    Algorithm:                Core
    Integral Cache:           NONE
    Schwarz Cutoff:          1E-12
    Fitting Condition:       1E-12

   => Auxiliary Basis Set <=

  Basis Set: 
    Number of shells: 140
    Number of basis function: 436
    Number of Cartesian functions: 524
    Spherical Harmonics?: true
    Max angular momentum: 4

  Minimum eigenvalue in the overlap matrix is 1.5475480801E-03.
  Using Symmetric Orthogonalization.
  SCF Guess: Reading in previously saved MOs, projecting if necessary.

  Using orbitals from previous SCF, no projection.
  Recomputing DOCC and SOCC from number of alpha and beta electrons from previous calculation.
              A 
    DOCC [    16 ]

  ==> Iterations <==

                           Total Energy        Delta E     RMS |[F,P]|

   @DF-RHF iter   0:  -227.87141055853311   -2.27871e+02   3.65822e-04 
   @DF-RHF iter   1:  -227.85996248691396    1.14481e-02   6.41513e-05 
   @DF-RHF iter   2:  -227.86002361767396   -6.11308e-05   3.63168e-05 DIIS
   @DF-RHF iter   3:  -227.86003810866856   -1.44910e-05   1.15206e-05 DIIS
   @DF-RHF iter   4:  -227.86004078503117   -2.67636e-06   2.77653e-06 DIIS
   @DF-RHF iter   5:  -227.86004095725150   -1.72220e-07   1.03788e-06 DIIS
   @DF-RHF iter   6:  -227.86004098116746   -2.39160e-08   3.76788e-07 DIIS
   @DF-RHF iter   7:  -227.86004098710680   -5.93934e-09   1.49349e-07 DIIS
   @DF-RHF iter   8:  -227.86004098873235   -1.62555e-09   5.67907e-08 DIIS
   @DF-RHF iter   9:  -227.86004098899764   -2.65288e-10   2.02452e-08 DIIS
   @DF-RHF iter  10:  -227.86004098902492   -2.72848e-11   6.85088e-09 DIIS

  ==> Post-Iterations <==

    Orbital Energies (a.u.)
    -----------------------

    Doubly Occupied:                                                      

       1A    -20.590387     2A    -20.562126     3A    -11.376139  
       4A    -11.295969     5A     -1.473018     6A     -1.383897  
       7A     -0.988813     8A     -0.831634     9A     -0.741552  
      10A     -0.690215    11A     -0.669053    12A     -0.627271  
      13A     -0.563552    14A     -0.515179    15A     -0.475676  
      16A     -0.459721  

    Virtual:                                                              

      17A      0.129081    18A      0.167070    19A      0.176650  
      20A      0.206439    21A      0.220612    22A      0.242530  
      23A      0.310552    24A      0.366668    25A      0.377174  
      26A      0.393563    27A      0.483394    28A      0.513227  
      29A      0.556861    30A      0.577436    31A      0.606140  
      32A      0.613186    33A      0.617680    34A      0.635152  
      35A      0.679256    36A      0.711497    37A      0.758066  
      38A      0.763714    39A      0.782475    40A      0.854173  
      41A      0.879157    42A      0.903761    43A      0.922415  
      44A      0.992512    45A      1.015397    46A      1.047567  
      47A      1.060969    48A      1.146873    49A      1.165677  
      50A      1.185982    51A      1.230353    52A      1.253452  
      53A      1.277884    54A      1.289757    55A      1.330737  
      56A      1.357930    57A      1.372508    58A      1.410763  
      59A      1.495674    60A      1.517346    61A      1.538005  
      62A      1.543640    63A      1.584100    64A      1.727989  
      65A      1.786684    66A      1.874096    67A      1.933475  
      68A      1.972710    69A      2.101531    70A      2.163492  
      71A      2.256560    72A      2.286934    73A      2.317629  
      74A      2.364046    75A      2.406700    76A      2.419938  
      77A      2.457817    78A      2.494456    79A      2.612914  
      80A      2.640095    81A      2.768877    82A      2.807416  
      83A      2.887160    84A      2.948506    85A      3.019676  
      86A      3.034373    87A      3.069429    88A      3.101134  
      89A      3.127398    90A      3.154107    91A      3.187053  
      92A      3.242663    93A      3.292326    94A      3.318195  
      95A      3.334042    96A      3.366905    97A      3.418111  
      98A      3.459889    99A      3.497436   100A      3.526100  
     101A      3.568930   102A      3.597842   103A      3.605340  
     104A      3.652261   105A      3.687674   106A      3.716440  
     107A      3.727822   108A      3.739700   109A      3.811573  
     110A      3.833588   111A      3.867257   112A      3.895172  
     113A      3.991783   114A      4.025486   115A      4.070560  
     116A      4.125140   117A      4.141111   118A      4.180159  
     119A      4.208701   120A      4.246666   121A      4.347464  
     122A      4.370458   123A      4.379452   124A      4.406660  
     125A      4.458539   126A      4.552228   127A      4.588382  
     128A      4.734779   129A      4.759516   130A      4.825270  
     131A      4.865475   132A      5.004504   133A      5.010149  
     134A      5.072128   135A      5.104696   136A      5.190721  
     137A      5.240301   138A      5.284805   139A      5.333785  
     140A      5.347629   141A      5.503612   142A      5.554404  
     143A      5.570686   144A      5.595337   145A      5.612536  
     146A      5.654991   147A      5.670023   148A      5.840298  
     149A      5.928958   150A      5.997313   151A      6.106534  
     152A      6.189891   153A      6.221855   154A      6.232527  
     155A      6.332523   156A      6.425329   157A      6.679312  
     158A      6.727908   159A      6.808231   160A      6.818134  
     161A      6.875908   162A      6.915058   163A      6.923981  
     164A      7.212452   165A      7.238298   166A      7.324940  
     167A      7.409361   168A      7.550446   169A      7.620670  
     170A      7.741390   171A      7.791838   172A      7.943580  
     173A     10.423686   174A     11.820663   175A     14.009661  
     176A     14.370710  

    Final Occupation by Irrep:
              A 
    DOCC [    16 ]

  Energy converged.

  @DF-RHF Final Energy:  -227.86004098902492

   => Energetics <=

    Nuclear Repulsion Energy =            122.1870025211474058
    One-Electron Energy =                -553.6056832013659914
    Two-Electron Energy =                 203.5586396911937754
    DFT Exchange-Correlation Energy =       0.0000000000000000
    Empirical Dispersion Energy =           0.0000000000000000
    PCM Polarization Energy =               0.0000000000000000
    EFP Energy =                            0.0000000000000000
    Total Energy =                       -227.8600409890248102


  Saving occupied orbitals to File 180.

*** tstop() called on cx1-27-2-2 at Sat Sep 10 15:21:15 2016
Module time:
	user time   =       5.17 seconds =       0.09 minutes
	system time =       0.12 seconds =       0.00 minutes
	total time  =          2 seconds =       0.03 minutes
Total time:
	user time   =      44.64 seconds =       0.74 minutes
	system time =       1.48 seconds =       0.02 minutes
	total time  =         14 seconds =       0.23 minutes


Properties will be evaluated at   0.000000,   0.000000,   0.000000 Bohr

Properties computed using the SCF density matrix

  Nuclear Dipole Moment: (a.u.)
     X:     3.4085      Y:    -0.7924      Z:     2.9486

  Electronic Dipole Moment: (a.u.)
     X:    -2.4255      Y:     1.0442      Z:    -2.3412

  Dipole Moment: (a.u.)
     X:     0.9830      Y:     0.2517      Z:     0.6074     Total:     1.1826

  Dipole Moment: (Debye)
     X:     2.4986      Y:     0.6398      Z:     1.5438     Total:     3.0059


*** tstart() called on cx1-27-2-2
*** at Sat Sep 10 15:21:15 2016


         ------------------------------------------------------------
                                   SCF GRAD                          
                          Rob Parrish, Justin Turney,                
                       Andy Simmonett, and Alex Sokolov              
         ------------------------------------------------------------

  ==> Geometry <==

    Molecular point group: c1
    Full point group: C1

    Geometry (in Angstrom), charge = 0, multiplicity = 1:

       Center              X                  Y                   Z               Mass       
    ------------   -----------------  -----------------  -----------------  -----------------
           H          2.009033377802    -1.295382949173     0.623588029880     1.007825032070
           C          1.145325028301    -0.698013963108     0.863860951835    12.000000000000
           O          0.701037311968    -0.123050924627    -0.348788441027    15.994914619560
           H          1.428110961624     0.072777480845     1.571758639296     1.007825032070
           H          0.374876909957    -1.323919100752     1.293005597739     1.007825032070
           C         -0.395605149782     0.635954680179    -0.298134371452    12.000000000000
           O         -1.492856269498     0.222903933440    -0.274020853648    15.994914619560
           H         -0.172065938811     1.700714107749    -0.339926273280     1.007825032070

  Nuclear repulsion =  122.187002521147406

  ==> Basis Set <==

  Basis Set: CC-PVTZ
    Number of shells: 64
    Number of basis function: 176
    Number of Cartesian functions: 200
    Spherical Harmonics?: true
    Max angular momentum: 3

  ==> DFJKGrad: Density-Fitted SCF Gradients <==

    Gradient:                    1
    J tasked:                  Yes
    K tasked:                  Yes
    wK tasked:                  No
    OpenMP threads:              4
    Integrals threads:           4
    Memory (MB):              1430
    Schwarz Cutoff:          0E+00
    Fitting Condition:       1E-12

   => Auxiliary Basis Set <=

  Basis Set: 
    Number of shells: 140
    Number of basis function: 436
    Number of Cartesian functions: 524
[...]

  ==> Post-Iterations <==

    Orbital Energies (a.u.)
    -----------------------

    Doubly Occupied:                                                      

       1A    -20.589833     2A    -20.562637     3A    -11.376141  
       4A    -11.295479     5A     -1.472925     6A     -1.383790  
       7A     -0.987615     8A     -0.831887     9A     -0.741137  
      10A     -0.690216    11A     -0.668250    12A     -0.627319  
      13A     -0.563341    14A     -0.516078    15A     -0.475314  
      16A     -0.460027  

    Virtual:                                                              

      17A      0.129264    18A      0.166847    19A      0.176504  
      20A      0.206599    21A      0.220959    22A      0.242861  
      23A      0.310027    24A      0.366654    25A      0.377441  
      26A      0.394272    27A      0.483286    28A      0.513202  
      29A      0.556833    30A      0.576816    31A      0.606491  
      32A      0.613404    33A      0.617230    34A      0.634546  
      35A      0.679068    36A      0.711497    37A      0.758260  
      38A      0.764778    39A      0.782744    40A      0.853814  
      41A      0.878745    42A      0.904773    43A      0.922033  
      44A      0.992447    45A      1.014106    46A      1.047747  
      47A      1.060541    48A      1.146820    49A      1.166037  
      50A      1.186456    51A      1.230557    52A      1.253653  
      53A      1.278406    54A      1.290977    55A      1.331138  
      56A      1.358196    57A      1.370743    58A      1.411212  
      59A      1.495084    60A      1.517852    61A      1.538245  
      62A      1.543513    63A      1.584649    64A      1.728320  
      65A      1.787153    66A      1.875716    67A      1.933743  
      68A      1.974286    69A      2.103051    70A      2.163152  
      71A      2.254632    72A      2.287384    73A      2.316265  
      74A      2.363507    75A      2.406532    76A      2.419555  
      77A      2.457114    78A      2.493890    79A      2.613195  
      80A      2.640669    81A      2.769377    82A      2.808476  
      83A      2.886860    84A      2.948910    85A      3.020248  
      86A      3.034392    87A      3.069439    88A      3.101616  
      89A      3.126317    90A      3.154238    91A      3.187633  
      92A      3.243609    93A      3.293352    94A      3.318442  
      95A      3.333779    96A      3.366302    97A      3.418103  
      98A      3.460778    99A      3.497296   100A      3.525124  
     101A      3.567388   102A      3.598349   103A      3.604540  
     104A      3.652239   105A      3.688771   106A      3.715767  
     107A      3.728325   108A      3.739236   109A      3.810080  
     110A      3.833465   111A      3.865522   112A      3.891636  
     113A      3.991850   114A      4.026123   115A      4.070602  
     116A      4.125337   117A      4.141038   118A      4.179777  
     119A      4.208655   120A      4.248015   121A      4.349418  
     122A      4.371032   123A      4.380370   124A      4.406834  
     125A      4.458273   126A      4.553013   127A      4.590395  
     128A      4.735159   129A      4.758485   130A      4.823599  
     131A      4.866038   132A      5.004189   133A      5.010581  
     134A      5.072431   135A      5.105271   136A      5.191542  
     137A      5.239737   138A      5.284346   139A      5.335310  
     140A      5.348277   141A      5.503830   142A      5.554328  
     143A      5.570563   144A      5.596617   145A      5.611282  
     146A      5.654481   147A      5.669095   148A      5.839865  
     149A      5.929314   150A      5.996145   151A      6.107510  
     152A      6.190368   153A      6.224586   154A      6.234057  
     155A      6.331291   156A      6.423273   157A      6.677149  
     158A      6.731676   159A      6.807702   160A      6.816071  
     161A      6.874997   162A      6.914888   163A      6.920659  
     164A      7.214101   165A      7.240035   166A      7.324866  
     167A      7.408323   168A      7.552029   169A      7.619876  
     170A      7.741296   171A      7.791016   172A      7.939628  
     173A     10.425437   174A     11.794730   175A     14.007003  
     176A     14.390073  

    Final Occupation by Irrep:
              A 
    DOCC [    16 ]

  Energy converged.

  @DF-RHF Final Energy:  -227.86005882714511

   => Energetics <=

    Nuclear Repulsion Energy =            122.2098157117141426
    One-Electron Energy =                -553.6557727838169285
    Two-Electron Energy =                 203.5858982449575478
    DFT Exchange-Correlation Energy =       0.0000000000000000
    Empirical Dispersion Energy =           0.0000000000000000
    PCM Polarization Energy =               0.0000000000000000
    EFP Energy =                            0.0000000000000000
    Total Energy =                       -227.8600588271452239


  Saving occupied orbitals to File 180.

*** tstop() called on cx1-27-2-2 at Sat Sep 10 15:21:25 2016
Module time:
	user time   =       4.54 seconds =       0.08 minutes
	system time =       0.12 seconds =       0.00 minutes
	total time  =          1 seconds =       0.02 minutes
Total time:
	user time   =      79.08 seconds =       1.32 minutes
	system time =       2.58 seconds =       0.04 minutes
	total time  =         24 seconds =       0.40 minutes


Properties will be evaluated at   0.000000,   0.000000,   0.000000 Bohr

Properties computed using the SCF density matrix

  Nuclear Dipole Moment: (a.u.)
     X:     3.4089      Y:    -0.7890      Z:     2.9399

  Electronic Dipole Moment: (a.u.)
     X:    -2.4376      Y:     1.0500      Z:    -2.3355

  Dipole Moment: (a.u.)
     X:     0.9712      Y:     0.2610      Z:     0.6044     Total:     1.1733

  Dipole Moment: (Debye)
     X:     2.4686      Y:     0.6635      Z:     1.5362     Total:     2.9823


*** tstart() called on cx1-27-2-2
*** at Sat Sep 10 15:21:25 2016


         ------------------------------------------------------------
                                   SCF GRAD                          
                          Rob Parrish, Justin Turney,                
                       Andy Simmonett, and Alex Sokolov              
         ------------------------------------------------------------

  ==> Geometry <==

    Molecular point group: c1
    Full point group: C1

    Geometry (in Angstrom), charge = 0, multiplicity = 1:

       Center              X                  Y                   Z               Mass       
    ------------   -----------------  -----------------  -----------------  -----------------
           H          2.012147022951    -1.290515239462     0.617235240207     1.007825032070
           C          1.146160837497    -0.696793401549     0.858108511311    12.000000000000
           O          0.701534437414    -0.120272773879    -0.354659149999    15.994914619560
           H          1.426091942384     0.072860380494     1.568343025906     1.007825032070
           H          0.377737721044    -1.326924162951     1.284523169266     1.007825032070
           C         -0.398725252498     0.637730006116    -0.293944272240    12.000000000000
           O         -1.491660823642     0.217643744278    -0.266392591296    15.994914619560
           H         -0.175685019046     1.702488792216    -0.330966558959     1.007825032070

  Nuclear repulsion =  122.209815711714143

  ==> Basis Set <==

  Basis Set: CC-PVTZ
    Number of shells: 64
    Number of basis function: 176
    Number of Cartesian functions: 200
    Spherical Harmonics?: true
    Max angular momentum: 3

  ==> DFJKGrad: Density-Fitted SCF Gradients <==

    Gradient:                    1
    J tasked:                  Yes
    K tasked:                  Yes
    wK tasked:                  No
    OpenMP threads:              4
    Integrals threads:           4
    Memory (MB):              1430
    Schwarz Cutoff:          0E+00
    Fitting Condition:       1E-12

   => Auxiliary Basis Set <=

  Basis Set: 
    Number of shells: 140
    Number of basis function: 436
    Number of Cartesian functions: 524
    Spherical Harmonics?: true
    Max angular momentum: 4


  -Total Gradient:
     Atom            X                  Y                   Z
    ------   -----------------  -----------------  -----------------
       1       -0.000000825534    -0.000002694132     0.000002963454
       2        0.001702729129     0.002386731187     0.000549495726
       3       -0.002565650319    -0.003488657924    -0.002717765979
       4       -0.000004132656     0.000001903805    -0.000010527477
       5        0.000001661787    -0.000000343455    -0.000002234479
       6        0.000983400230     0.000969645468     0.006086079969
       7       -0.000112385359     0.000121637004    -0.003902417504
       8       -0.000004797278     0.000011778046    -0.000005593709


*** tstop() called on cx1-27-2-2 at Sat Sep 10 15:21:27 2016
Module time:
	user time   =       6.45 seconds =       0.11 minutes
	system time =       0.24 seconds =       0.00 minutes
	total time  =          2 seconds =       0.03 minutes
Total time:
	user time   =      85.57 seconds =       1.43 minutes
	system time =       2.82 seconds =       0.05 minutes
	total time  =         26 seconds =       0.43 minutes

			-----------------------------------------
			 OPTKING 2.0: for geometry optimizations 
			  - R.A. King,  Bethel University        
			-----------------------------------------

	Previous internal coordinate definitions found.
	---Fragment 1 Geometry and Gradient---
	 H           3.8024068125       -2.4387203729        1.1664055636
	 C           2.1659300871       -1.3167487001        1.6215900787
	 O           1.3257079595       -0.2272826039       -0.6702086640
	 H           2.6949232114        0.1376861651        2.9637388014
	 H           0.7138208428       -2.5075232671        2.4273970013
	 C          -0.7534815295        1.2051350583       -0.5554741729
	 O          -2.8188304398        0.4112870712       -0.5034090414
	 H          -0.3319965716        3.2172375616       -0.6254361556
	            -0.0000008255       -0.0000026941        0.0000029635
	             0.0017027291        0.0023867312        0.0005494957
	            -0.0025656503       -0.0034886579       -0.0027177660
	            -0.0000041327        0.0000019038       -0.0000105275
	             0.0000016618       -0.0000003435       -0.0000022345
	             0.0009834002        0.0009696455        0.0060860800
	            -0.0001123854        0.0001216370       -0.0039024175
	            -0.0000047973        0.0000117780       -0.0000055937

	---Fragment 1 Intrafragment Coordinates---
	 - Coordinate -           - BOHR/RAD -       - ANG/DEG -
	 R(1,2)           =         2.035699	       1.077245
	 R(2,3)           =         2.673060	       1.414523
	 R(2,4)           =         2.048555	       1.084049
	 R(2,5)           =         2.043499	       1.081373
	 R(3,6)           =         2.527452	       1.337470
	 R(6,7)           =         2.213272	       1.171213
	 R(6,8)           =         2.056964	       1.088498
	 B(1,2,3)         =         1.860440	     106.595347
	 B(1,2,4)         =         1.907327	     109.281811
	 B(1,2,5)         =         1.915857	     109.770519
	 B(2,3,6)         =         2.038289	     116.785372
	 B(3,2,4)         =         1.932129	     110.702821
	 B(3,2,5)         =         1.930738	     110.623115
	 B(3,6,7)         =         2.171778	     124.433688
	 B(3,6,8)         =         1.965218	     112.598719
	 B(4,2,5)         =         1.916502	     109.807496
	 B(7,6,8)         =         2.144642	     122.878908
	 D(1,2,3,6)       =         3.110916	     178.242329
	*D(2,3,6,7)       =        -1.396263	     -79.999971
	 D(2,3,6,8)       =         1.803755	     103.347573
	 D(4,2,3,6)       =        -1.099697	     -63.007975
	 D(5,2,3,6)       =         1.028855	      58.949052

	Current energy   :      -227.8600588271

	Energy change for the previous step:
		Projected    :         0.0000000517
		Actual       :        -0.0000000777

	Performing BFGS update.
	Previous computed or guess Hessian on step 1.
	Steps to be used in Hessian update: 6 5
	Taking RFO optimization step.
	Going to follow RFO solution 1.
	Using RFO vector 1.
	Norm of target step-size    0.00024
	Projected energy change by RFO approximation:        -0.0000000122

	Back-transformation to cartesian coordinates...
	Successfully converged to displaced geometry.

	Back-transformation to cartesian coordinates to adjust frozen coordinates...
	Successfully converged to displaced geometry.

	--- Internal Coordinate Step in ANG or DEG, aJ/ANG or AJ/DEG ---
	 ---------------------------------------------------------------------------
	   Coordinate                Previous        Force       Change         New 
	   ----------                --------       ------       ------       ------
	    1 R(1,2)          =      1.077245    -0.000001     0.000001     1.077246
	    2 R(2,3)          =      1.414523    -0.000203    -0.000030     1.414492
	    3 R(2,4)          =      1.084049     0.000055     0.000010     1.084059
	    4 R(2,5)          =      1.081373     0.000015     0.000004     1.081377
	    5 R(3,6)          =      1.337470    -0.000094    -0.000003     1.337467
	    6 R(6,7)          =      1.171213     0.000252     0.000013     1.171226
	    7 R(6,8)          =      1.088498    -0.000088    -0.000012     1.088487
	    8 B(1,2,3)        =    106.595347    -0.000001    -0.002573   106.592774
	    9 B(1,2,4)        =    109.281811    -0.000000    -0.001755   109.280056
	   10 B(1,2,5)        =    109.770519     0.000000     0.000109   109.770628
	   11 B(2,3,6)        =    116.785372    -0.000001    -0.004729   116.780643
	   12 B(3,2,4)        =    110.702821     0.000001     0.005548   110.708369
	   13 B(3,2,5)        =    110.623115    -0.000000     0.000290   110.623405
	   14 B(3,6,7)        =    124.433688     0.000000    -0.000229   124.433459
	   15 B(3,6,8)        =    112.598719    -0.000001    -0.001721   112.596998
	   16 B(4,2,5)        =    109.807496    -0.000000    -0.001671   109.805825
	   17 B(7,6,8)        =    122.878908     0.000000     0.002293   122.881201
	   18 D(1,2,3,6)      =    178.242329    -0.000000     0.003833   178.246162
	   19 *D(2,3,6,7)     =    -79.999971     0.000000     0.000000   -79.999971
	   20 D(2,3,6,8)      =    103.347573    -0.000000    -0.006544   103.341029
	   21 D(4,2,3,6)      =    -63.007975    -0.000000     0.003232   -63.004743
	   22 D(5,2,3,6)      =     58.949052     0.000000     0.005082    58.954134
	 ---------------------------------------------------------------------------
	Successfully symmetrized geometry.

  ==> Convergence Check <==

  Measures of convergence in internal coordinates in au.
  Criteria marked as inactive (o), active & met (*), and active & unmet ( ).
  ---------------------------------------------------------------------------------------------
   Step     Total Energy     Delta E     MAX Force     RMS Force      MAX Disp      RMS Disp   
  ---------------------------------------------------------------------------------------------
    Convergence Criteria    1.00e-06 *    3.00e-04 *             o    1.20e-03 *             o
  ---------------------------------------------------------------------------------------------
      7    -227.86005883   -7.77e-08 *    3.06e-05 *    1.09e-05 o    1.14e-04 *    5.04e-05 o  ~
  ---------------------------------------------------------------------------------------------


  **** Optimization is complete! (in 7 steps) ****

  ==> Optimization Summary <==

  Measures of convergence in internal coordinates in au.
  --------------------------------------------------------------------------------------------------------------- ~
   Step         Total Energy             Delta E       MAX Force       RMS Force        MAX Disp        RMS Disp  ~
  --------------------------------------------------------------------------------------------------------------- ~
      1    -227.859416603438   -227.859416603438      0.01666493      0.00443900      0.31325272      0.06968370  ~
      2    -227.856631637017      0.002784966421      0.02463717      0.00581544      0.25144684      0.05470853  ~
      3    -227.859422531001     -0.002790893984      0.01188063      0.00452992      0.03648548      0.01251834  ~
      4    -227.860040989025     -0.000618458024      0.00235075      0.00073843      0.00571069      0.00214406  ~
      5    -227.860056527414     -0.000015538389      0.00066972      0.00025573      0.00271709      0.00120160  ~
      6    -227.860058749443     -0.000002222029      0.00010241      0.00004346      0.00142841      0.00053923  ~
      7    -227.860058827145     -0.000000077702      0.00003056      0.00001092      0.00011421      0.00005042  ~
  --------------------------------------------------------------------------------------------------------------- ~

	Writing optimization data to binary file.
	Final energy is   -227.8600588271451
	Final (previous) structure:
	Cartesian Geometry (in Angstrom)
	    H     2.0121470230  -1.2905152395   0.6172352402
	    C     1.1461608375  -0.6967934015   0.8581085113
	    O     0.7015344374  -0.1202727739  -0.3546591500
	    H     1.4260919424   0.0728603805   1.5683430259
	    H     0.3777377210  -1.3269241630   1.2845231693
	    C    -0.3987252525   0.6377300061  -0.2939442722
	    O    -1.4916608236   0.2176437443  -0.2663925913
	    H    -0.1756850190   1.7024887922  -0.3309665590
	Saving final (previous) structure.
			--------------------------
			 OPTKING Finished Execution 
			--------------------------

    Final optimized geometry and variables:
    Molecular point group: c1
    Full point group: C1

    Geometry (in Angstrom), charge = 0, multiplicity = 1:

    H            2.012147022951    -1.290515239462     0.617235240207
    C            1.146160837497    -0.696793401549     0.858108511311
    O            0.701534437414    -0.120272773879    -0.354659149999
    H            1.426091942384     0.072860380494     1.568343025906
    H            0.377737721044    -1.326924162951     1.284523169266
    C           -0.398725252498     0.637730006116    -0.293944272240
    O           -1.491660823642     0.217643744278    -0.266392591296
    H           -0.175685019046     1.702488792216    -0.330966558959

	Cleaning optimization helper files.


Properties will be evaluated at   0.000000,   0.000000,   0.000000 Bohr

Properties computed using the  density matrix

  Nuclear Dipole Moment: (a.u.)
     X:     3.4089      Y:    -0.7890      Z:     2.9399

  Electronic Dipole Moment: (a.u.)
     X:    -2.4376      Y:     1.0500      Z:    -2.3355

  Dipole Moment: (a.u.)
     X:     0.9712      Y:     0.2610      Z:     0.6044     Total:     1.1733

  Dipole Moment: (Debye)
     X:     2.4686      Y:     0.6635      Z:     1.5362     Total:     2.9823

  Quadrupole Moment: (Debye Ang)
    XX:   -27.2716     YY:   -20.7885     ZZ:   -22.4898
    XY:    -0.9408     XZ:     1.2614     YZ:    -1.3750

  Traceless Quadrupole Moment: (Debye Ang)
    XX:    -3.7550     YY:     2.7281     ZZ:     1.0268
    XY:    -0.9408     XZ:     1.2614     YZ:    -1.3750

  Mulliken Charges: (a.u.)
   Center  Symbol    Alpha    Beta     Spin     Total
       1     H     0.44469  0.44469  0.00000  0.11061
       2     C     3.02244  3.02244  0.00000 -0.04487
       3     O     4.15643  4.15643  0.00000 -0.31286
       4     H     0.46550  0.46550  0.00000  0.06899
       5     H     0.45297  0.45297  0.00000  0.09406
       6     C     2.83028  2.83028  0.00000  0.33943
       7     O     4.16462  4.16462  0.00000 -0.32924
       8     H     0.46306  0.46306  0.00000  0.07388

   Total alpha = 16.00000, Total beta = 16.00000, Total charge =  0.00000


*** Psi4 exiting successfully. Buy a developer a beer!
