    -----------------------------------------------------------------------
          Psi4: An Open-Source Ab Initio Electronic Structure Package
                              Psi4 (no tag) Driver

                          Git: Rev {detached?}  

    J. M. Turney, A. C. Simmonett, R. M. Parrish, E. G. Hohenstein,
    F. A. Evangelista, J. T. Fermann, B. J. Mintz, L. A. Burns, J. J. Wilke,
    M. L. Abrams, N. J. Russ, M. L. Leininger, C. L. Janssen, E. T. Seidl,
    W. D. Allen, H. F. Schaefer, R. A. King, E. F. Valeev, C. D. Sherrill,
    and T. D. Crawford, WIREs Comput. Mol. Sci. 2, 556-565 (2012)
    (doi: 10.1002/wcms.93)

                         Additional Contributions by
    A. E. DePrince, M. Saitow, U. Bozkaya, A. Yu. Sokolov
    -----------------------------------------------------------------------


    Psi4 started on: Fri Sep  9 20:30:48 2016

    Process ID:  24792
    PSI4DATADIR: /export131/home/mjharvey/miniconda3/share
    Memory level set to 256.000 MB

  ==> Input File <==

--------------------------------------------------------------------------
set {
	reference rhf
	basis cc-pvtz
}


set_num_threads( 4 )
memory 2 gb

molecule MOL {
0 1

H	 -0.000342	 -0.223902	 -3.352295
C	 -0.027146	 0.371068	 -2.446756
C	 0.024493	 -0.518541	 -1.216015
H	 -0.932586	 0.964979	 -2.449855
H	 0.819708	 1.049865	 -2.473332
N	 -0.042516	 0.263377	 -0.000000
H	 -0.822211	 -1.197105	 -1.225584
H	 0.921114	 -1.142847	 -1.255206
C	 0.024493	 -0.518541	 1.216015
H	 0.682568	 0.950412	 -0.000000
C	 0.439641	 0.338466	 2.400070
H	 -0.959682	 -0.936562	 1.400693
H	 0.707877	 -1.366802	 1.122949
H	 -0.252826	 1.159541	 2.537503
H	 0.464240	 -0.249621	 3.310156
H	 1.430494	 0.756313	 2.250915

	symmetry c1
}
set optking {
	frozen_dihedral = ("
		12 9 6 3
	")
}

ee = optimize('scf')
oeprop('DIPOLE', 'QUADRUPOLE', 'MULLIKEN_CHARGES')
f=open( 'psi4out.xyz', 'w' )
f.write( "16  " )
f.write( str(ee) + "\n" )
f.write( MOL.save_string_xyz() )
f.close()
--------------------------------------------------------------------------

  Memory set to   2.000 GiB by Python script.
gradient() will perform analytic gradient computation.

*** tstart() called on cx1-27-1-1
*** at Fri Sep  9 20:30:49 2016


         ---------------------------------------------------------
                                   SCF
            by Justin Turney, Rob Parrish, and Andy Simmonett
                              RHF Reference
                        4 Threads,   2000 MiB Core
         ---------------------------------------------------------

  ==> Geometry <==

    Molecular point group: c1
    Full point group: C1

    Geometry (in Angstrom), charge = 0, multiplicity = 1:

       Center              X                  Y                   Z               Mass       
    ------------   -----------------  -----------------  -----------------  -----------------
           H         -0.096346373472    -0.217333829908    -3.342781453891     1.007825032070
           C         -0.123150373472     0.377636170092    -2.437242453891    12.000000000000
           C         -0.071511373472    -0.511972829908    -1.206501453891    12.000000000000
           H         -1.028590373472     0.971547170092    -2.440341453891     1.007825032070
           H          0.723703626528     1.056433170092    -2.463818453891     1.007825032070
           N         -0.138520373472     0.269945170092     0.009513546109    14.003074004780
           H         -0.918215373472    -1.190536829908    -1.216070453891     1.007825032070
           H          0.825109626528    -1.136278829908    -1.245692453891     1.007825032070
           C         -0.071511373472    -0.511972829908     1.225528546109    12.000000000000
           H          0.586563626528     0.956980170092     0.009513546109     1.007825032070
           C          0.343636626528     0.345034170092     2.409583546109    12.000000000000
           H         -1.055686373472    -0.929993829908     1.410206546109     1.007825032070
           H          0.611872626528    -1.360233829908     1.132462546109     1.007825032070
           H         -0.348830373472     1.166109170092     2.547016546109     1.007825032070
           H          0.368235626528    -0.243052829908     3.319669546109     1.007825032070
           H          1.334489626528     0.762881170092     2.260428546109     1.007825032070

  Running in c1 symmetry.

  Rotational constants: A =      0.58816  B =      0.07096  C =      0.06696 [cm^-1]
  Rotational constants: A =  17632.51344  B =   2127.43137  C =   2007.42690 [MHz]
  Nuclear repulsion =  189.622029046297598

  Charge       = 0
  Multiplicity = 1
  Electrons    = 42
  Nalpha       = 21
  Nbeta        = 21

  ==> Algorithm <==

  SCF Algorithm Type is DF.
  DIIS enabled.
  MOM disabled.
  Fractional occupation disabled.
  Guess Type is CORE.
  Energy threshold   = 1.00e-08
  Density threshold  = 1.00e-08
  Integral threshold = 0.00e+00

  ==> Primary Basis <==

  Basis Set: CC-PVTZ
    Number of shells: 116
    Number of basis function: 304
    Number of Cartesian functions: 340
    Spherical Harmonics?: true
    Max angular momentum: 3

  ==> Pre-Iterations <==

   -------------------------------------------------------
    Irrep   Nso     Nmo     Nalpha   Nbeta   Ndocc  Nsocc
   -------------------------------------------------------
     A        304     304       0       0       0       0
   -------------------------------------------------------
    Total     304     304      21      21      21       0
   -------------------------------------------------------

 OEINTS: Overlap, kinetic, potential, dipole, and quadrupole integrals
         stored in file 35.

  ==> Integral Setup <==

  ==> DFJK: Density-Fitted J/K Matrices <==

    J tasked:                  Yes
    K tasked:                  Yes
    wK tasked:                  No
    OpenMP threads:              4
    Integrals threads:           4
    Memory (MB):              1430
    Algorithm:                Core
    Integral Cache:           NONE
    Schwarz Cutoff:          1E-12
    Fitting Condition:       1E-12

   => Auxiliary Basis Set <=

  Basis Set: 
    Number of shells: 235
    Number of basis function: 725
    Number of Cartesian functions: 865
    Spherical Harmonics?: true
    Max angular momentum: 4

  Minimum eigenvalue in the overlap matrix is 7.0672366231E-04.
  Using Symmetric Orthogonalization.
  SCF Guess: Core (One-Electron) Hamiltonian.

  ==> Iterations <==

                           Total Energy        Delta E     RMS |[F,P]|

   @DF-RHF iter   1:  -128.25987696559679   -1.28260e+02   4.35901e-02 
   @DF-RHF iter   2:  -150.22687897196658   -2.19670e+01   2.09512e-02 DIIS
   @DF-RHF iter   3:  -164.41109322225645   -1.41842e+01   2.52421e-02 DIIS
   @DF-RHF iter   4:  -199.62228456745515   -3.52112e+01   1.28691e-02 DIIS
   @DF-RHF iter   5:  -211.39335815326604   -1.17711e+01   4.16223e-03 DIIS
   @DF-RHF iter   6:  -212.28903735912752   -8.95679e-01   1.44309e-03 DIIS
   @DF-RHF iter   7:  -212.38874192526436   -9.97046e-02   2.48967e-04 DIIS
   @DF-RHF iter   8:  -212.39294616171742   -4.20424e-03   8.99559e-05 DIIS
   @DF-RHF iter   9:  -212.39342533287106   -4.79171e-04   2.49940e-05 DIIS
   @DF-RHF iter  10:  -212.39347686467272   -5.15318e-05   4.94555e-06 DIIS
   @DF-RHF iter  11:  -212.39347922969591   -2.36502e-06   1.96602e-06 DIIS
   @DF-RHF iter  12:  -212.39347952414192   -2.94446e-07   5.95475e-07 DIIS
   @DF-RHF iter  13:  -212.39347955762662   -3.34847e-08   1.33541e-07 DIIS
   @DF-RHF iter  14:  -212.39347955914502   -1.51840e-09   3.46643e-08 DIIS
   @DF-RHF iter  15:  -212.39347955923301   -8.79936e-11   1.21978e-08 DIIS
   @DF-RHF iter  16:  -212.39347955924677   -1.37561e-11   3.29288e-09 DIIS

  ==> Post-Iterations <==

    Orbital Energies (a.u.)
    -----------------------

    Doubly Occupied:                                                      

       1A    -15.528156     2A    -11.238895     3A    -11.238538  
       4A    -11.209365     5A    -11.206356     6A     -1.207380  
       7A     -1.029862     8A     -0.964013     9A     -0.833422  
      10A     -0.823475    11A     -0.657678    12A     -0.630109  
      13A     -0.605564    14A     -0.591272    15A     -0.553011  
      16A     -0.521341    17A     -0.509026    18A     -0.490727  
      19A     -0.485312    20A     -0.472099    21A     -0.361862  

    Virtual:                                                              

      22A      0.141806    23A      0.157603    24A      0.167382  
      25A      0.186555    26A      0.206341    27A      0.214530  
      28A      0.227428    29A      0.236143    30A      0.242237  
      31A      0.250767    32A      0.254897    33A      0.307346  
      34A      0.339414    35A      0.354743    36A      0.360150  
      37A      0.365315    38A      0.397167    39A      0.425798  
      40A      0.446392    41A      0.478063    42A      0.487966  
      43A      0.500165    44A      0.522908    45A      0.557286  
      46A      0.583699    47A      0.590549    48A      0.604831  
      49A      0.619615    50A      0.628769    51A      0.635007  
      52A      0.646348    53A      0.651591    54A      0.651836  
      55A      0.667033    56A      0.676473    57A      0.686094  
      58A      0.689570    59A      0.704563    60A      0.739256  
      61A      0.747544    62A      0.779739    63A      0.797992  
      64A      0.808645    65A      0.852272    66A      0.867281  
      67A      0.890049    68A      0.922196    69A      0.943017  
      70A      0.971748    71A      1.011547    72A      1.032727  
      73A      1.039881    74A      1.054793    75A      1.082228  
      76A      1.118201    77A      1.147103    78A      1.162918  
      79A      1.167532    80A      1.175606    81A      1.200386  
      82A      1.216539    83A      1.242364    84A      1.264844  
      85A      1.281796    86A      1.288773    87A      1.298087  
      88A      1.315023    89A      1.329187    90A      1.346879  
      91A      1.361593    92A      1.366460    93A      1.378942  
      94A      1.392019    95A      1.408955    96A      1.416686  
      97A      1.431450    98A      1.459762    99A      1.501883  
     100A      1.513981   101A      1.524194   102A      1.526942  
     103A      1.551009   104A      1.560640   105A      1.581321  
     106A      1.583029   107A      1.597891   108A      1.618956  
     109A      1.630469   110A      1.666838   111A      1.675159  
     112A      1.705235   113A      1.729362   114A      1.758388  
     115A      1.762820   116A      1.795850   117A      1.814797  
     118A      1.840002   119A      1.876251   120A      1.987604  
     121A      1.998965   122A      2.070376   123A      2.124357  
     124A      2.167220   125A      2.194981   126A      2.501753  
     127A      2.527831   128A      2.599097   129A      2.610923  
     130A      2.622514   131A      2.641837   132A      2.671181  
     133A      2.724448   134A      2.735600   135A      2.744781  
     136A      2.783178   137A      2.812372   138A      2.840648  
     139A      2.864392   140A      2.885426   141A      2.921248  
     142A      2.954464   143A      2.977116   144A      3.003904  
     145A      3.026002   146A      3.070594   147A      3.095867  
     148A      3.102392   149A      3.124137   150A      3.132759  
     151A      3.156029   152A      3.181194   153A      3.191743  
     154A      3.202685   155A      3.223617   156A      3.228050  
     157A      3.241705   158A      3.284942   159A      3.306492  
     160A      3.314252   161A      3.322533   162A      3.345303  
     163A      3.365328   164A      3.373117   165A      3.379719  
     166A      3.404117   167A      3.415566   168A      3.423385  
     169A      3.432802   170A      3.446941   171A      3.452985  
     172A      3.476035   173A      3.495968   174A      3.526348  
     175A      3.539795   176A      3.544476   177A      3.588108  
     178A      3.613251   179A      3.616937   180A      3.630874  
     181A      3.644449   182A      3.673167   183A      3.710962  
     184A      3.723992   185A      3.731330   186A      3.746518  
     187A      3.764633   188A      3.788933   189A      3.790826  
     190A      3.812859   191A      3.822038   192A      3.854735  
     193A      3.865788   194A      3.874596   195A      3.895463  
     196A      3.926937   197A      3.968877   198A      3.978997  
     199A      3.997086   200A      4.028210   201A      4.035501  
     202A      4.059681   203A      4.080714   204A      4.104797  
     205A      4.114401   206A      4.131764   207A      4.135172  
     208A      4.150800   209A      4.175831   210A      4.198882  
     211A      4.217705   212A      4.227139   213A      4.241207  
     214A      4.270367   215A      4.293850   216A      4.302444  
     217A      4.332680   218A      4.344249   219A      4.351218  
     220A      4.374643   221A      4.379061   222A      4.397359  
     223A      4.412385   224A      4.423845   225A      4.440432  
     226A      4.457986   227A      4.463054   228A      4.474349  
     229A      4.497083   230A      4.511260   231A      4.530571  
     232A      4.550054   233A      4.583916   234A      4.618645  
     235A      4.627695   236A      4.646358   237A      4.658926  
     238A      4.684741   239A      4.714269   240A      4.733539  
     241A      4.742105   242A      4.782527   243A      4.813512  
     244A      4.821106   245A      4.840219   246A      4.926413  
     247A      5.010338   248A      5.074674   249A      5.097971  
     250A      5.128692   251A      5.156838   252A      5.192125  
     253A      5.206805   254A      5.223327   255A      5.233944  
     256A      5.251488   257A      5.258890   258A      5.281891  
     259A      5.301051   260A      5.304547   261A      5.344825  
     262A      5.369247   263A      5.380323   264A      5.450872  
     265A      5.472551   266A      5.477436   267A      5.508098  
     268A      5.536636   269A      5.608098   270A      5.657634  
     271A      5.686903   272A      5.704423   273A      5.715676  
     274A      5.723723   275A      5.739163   276A      5.751746  
     277A      5.768556   278A      5.774003   279A      5.797904  
     280A      5.822150   281A      5.876178   282A      5.889378  
     283A      5.928141   284A      5.934542   285A      5.964924  
     286A      6.011603   287A      6.161027   288A      6.188211  
     289A      6.266841   290A      6.282601   291A      6.309046  
     292A      6.318511   293A      6.326384   294A      6.354247  
     295A      6.384388   296A      6.437973   297A      6.544061  
     298A      6.593708   299A      7.043919   300A     12.293406  
     301A     13.639136   302A     13.666619   303A     14.238346  
     304A     14.365379  

    Final Occupation by Irrep:
              A 
    DOCC [    21 ]

  Energy converged.

  @DF-RHF Final Energy:  -212.39347955924677

   => Energetics <=

    Nuclear Repulsion Energy =            189.6220290462975981
    One-Electron Energy =                -661.7160878198949376
    Two-Electron Energy =                 259.7005792143506824
    DFT Exchange-Correlation Energy =       0.0000000000000000
    Empirical Dispersion Energy =           0.0000000000000000
    PCM Polarization Energy =               0.0000000000000000
    EFP Energy =                            0.0000000000000000
    Total Energy =                       -212.3934795592466571

    Alert: EFP and PCM quantities not currently incorporated into SCF psivars.

Properties will be evaluated at   0.000000,   0.000000,   0.000000 Bohr
  ==> Properties <==


Properties computed using the SCF density matrix

  Nuclear Dipole Moment: (a.u.)
     X:     0.9400      Y:    -0.1540      Z:    -0.0276

  Electronic Dipole Moment: (a.u.)
     X:    -0.5999      Y:     0.0165      Z:     0.0470

  Dipole Moment: (a.u.)
     X:     0.3402      Y:    -0.1375      Z:     0.0194     Total:     0.3674

  Dipole Moment: (Debye)
     X:     0.8646      Y:    -0.3496      Z:     0.0492     Total:     0.9339


  Saving occupied orbitals to File 180.

*** tstop() called on cx1-27-1-1 at Fri Sep  9 20:30:59 2016
Module time:
	user time   =      31.03 seconds =       0.52 minutes
	system time =       0.52 seconds =       0.01 minutes
	total time  =         10 seconds =       0.17 minutes
Total time:
	user time   =      31.03 seconds =       0.52 minutes
	system time =       0.52 seconds =       0.01 minutes
	total time  =         10 seconds =       0.17 minutes

*** tstart() called on cx1-27-1-1
*** at Fri Sep  9 20:30:59 2016


         ------------------------------------------------------------
                                   SCF GRAD                          
                          Rob Parrish, Justin Turney,                
                       Andy Simmonett, and Alex Sokolov              
         ------------------------------------------------------------

  ==> Geometry <==

    Molecular point group: c1
    Full point group: C1

    Geometry (in Angstrom), charge = 0, multiplicity = 1:

       Center              X                  Y                   Z               Mass       
    ------------   -----------------  -----------------  -----------------  -----------------
           H         -0.096346373472    -0.217333829908    -3.342781453891     1.007825032070
           C         -0.123150373472     0.377636170092    -2.437242453891    12.000000000000
           C         -0.071511373472    -0.511972829908    -1.206501453891    12.000000000000
           H         -1.028590373472     0.971547170092    -2.440341453891     1.007825032070
           H          0.723703626528     1.056433170092    -2.463818453891     1.007825032070
           N         -0.138520373472     0.269945170092     0.009513546109    14.003074004780
           H         -0.918215373472    -1.190536829908    -1.216070453891     1.007825032070
           H          0.825109626528    -1.136278829908    -1.245692453891     1.007825032070
           C         -0.071511373472    -0.511972829908     1.225528546109    12.000000000000
           H          0.586563626528     0.956980170092     0.009513546109     1.007825032070
           C          0.343636626528     0.345034170092     2.409583546109    12.000000000000
           H         -1.055686373472    -0.929993829908     1.410206546109     1.007825032070
           H          0.611872626528    -1.360233829908     1.132462546109     1.007825032070
           H         -0.348830373472     1.166109170092     2.547016546109     1.007825032070
           H          0.368235626528    -0.243052829908     3.319669546109     1.007825032070
           H          1.334489626528     0.762881170092     2.260428546109     1.007825032070

  Nuclear repulsion =  189.622029046297541

  ==> Basis Set <==

  Basis Set: CC-PVTZ
    Number of shells: 116
    Number of basis function: 304
    Number of Cartesian functions: 340
    Spherical Harmonics?: true
    Max angular momentum: 3

  ==> DFJKGrad: Density-Fitted SCF Gradients <==

    Gradient:                    1
    J tasked:                  Yes
    K tasked:                  Yes
    wK tasked:                  No
    OpenMP threads:              4
    Integrals threads:           4
    Memory (MB):              1430
    Schwarz Cutoff:          0E+00
    Fitting Condition:       1E-12

   => Auxiliary Basis Set <=

  Basis Set: 
    Number of shells: 235
    Number of basis function: 725
    Number of Cartesian functions: 865
    Spherical Harmonics?: true
    Max angular momentum: 4


  -Total Gradient:
     Atom            X                  Y                   Z
    ------   -----------------  -----------------  -----------------
       1       -0.000002848889    -0.000007592443     0.000034935868
       2        0.000335090553     0.000138142442     0.000074765978
       3        0.001780609925    -0.000779484556     0.000447097785
       4       -0.000017786099    -0.000008235413     0.000062331413
       5       -0.000022215938     0.000010003496    -0.000102897213
       6       -0.003868130783    -0.001239662741     0.001048611238
       7        0.000127348655     0.000311062229     0.000174643671
       8        0.000152759239    -0.000219471307    -0.000411574472
       9        0.001414621397     0.000759196905    -0.000839963251
      10       -0.000291164989     0.001067418986     0.000757195828
      11        0.000597691768     0.000614317380    -0.000282854939
      12       -0.000101775247     0.001486109736    -0.000902655870
      13       -0.000762793621    -0.001636744605     0.000172945441
      14        0.000304154588    -0.000306306704    -0.000470945328
      15        0.000484022963    -0.000467257882     0.000110555458
      16       -0.000129583522     0.000278504476     0.000127808393


*** tstop() called on cx1-27-1-1 at Fri Sep  9 20:31:16 2016
Module time:
	user time   =      62.90 seconds =       1.05 minutes
	system time =       0.52 seconds =       0.01 minutes
	total time  =         17 seconds =       0.28 minutes
Total time:
	user time   =      93.95 seconds =       1.57 minutes
	system time =       1.05 seconds =       0.02 minutes
	total time  =         27 seconds =       0.45 minutes
CURRENT ENERGY: -212.3934795592

			-----------------------------------------
			 OPTKING 2.0: for geometry optimizations 
			  - R.A. King,  Bethel University        
			-----------------------------------------

	Internal coordinates to be generated automatically.
	Detected frag with atoms:  1 2 3 4 5 6 7 8 9 10 11 12 13 14 15 16
	---Fragment 1 Bond Connectivity---
	 1 : 2
	 2 : 1 3 4 5
	 3 : 2 6 7 8
	 4 : 2
	 5 : 2
	 6 : 3 9 10
	 7 : 3
	 8 : 3
	 9 : 6 11 12 13
	 10 : 6
	 11 : 9 14 15 16
	 12 : 9
	 13 : 9
	 14 : 11
	 15 : 11
	 16 : 11

	Assuming in current code that numbering for constraints corresponds to unified fragment.
	Frozen dihedral atom list: 
	    12     9     6     3
	---Fragment 1 Geometry and Gradient---
	 H          -0.1820682598       -0.4107014179       -6.3169414699
	 C          -0.2327204790        0.7136289393       -4.6057207573
	 C          -0.1351369112       -0.9674884360       -2.2799573268
	 H          -1.9437541088        1.8359580767       -4.6115770186
	 H           1.3676016555        1.9963693692       -4.6559421190
	 N          -0.2617655697        0.5101224424        0.0179779967
	 H          -1.7351755869       -2.2497885596       -2.2980401161
	 H           1.5592312237       -2.1472557991       -2.3540175837
	 C          -0.1351369112       -0.9674884360        2.3159133202
	 H           1.1084446137        1.8084304361        0.0179779967
	 C           0.6493791134        0.6520200880        4.5534529965
	 H          -1.9949581281       -1.7574336438        2.6649041629
	 H           1.1562716923       -2.5704694152        2.1400440679
	 H          -0.6591938727        2.2036269725        4.8131637281
	 H           0.6958644865       -0.4593032843        6.2732662938
	 H           2.5218199213        1.4416364834        4.2715908951
	            -0.0000028489       -0.0000075924        0.0000349359
	             0.0003350906        0.0001381424        0.0000747660
	             0.0017806099       -0.0007794846        0.0004470978
	            -0.0000177861       -0.0000082354        0.0000623314
	            -0.0000222159        0.0000100035       -0.0001028972
	            -0.0038681308       -0.0012396627        0.0010486112
	             0.0001273487        0.0003110622        0.0001746437
	             0.0001527592       -0.0002194713       -0.0004115745
	             0.0014146214        0.0007591969       -0.0008399633
	            -0.0002911650        0.0010674190        0.0007571958
	             0.0005976918        0.0006143174       -0.0002828549
	            -0.0001017752        0.0014861097       -0.0009026559
	            -0.0007627936       -0.0016367446        0.0001729454
	             0.0003041546       -0.0003063067       -0.0004709453
	             0.0004840230       -0.0004672579        0.0001105555
	            -0.0001295835        0.0002785045        0.0001278084

	Previous optimization step data not found.  Starting new optimization.

	---Fragment 1 Intrafragment Coordinates---
	 - Coordinate -           - BOHR/RAD -       - ANG/DEG -
	 R(1,2)           =         2.048160	       1.083840
	 R(2,3)           =         2.871385	       1.519472
	 R(2,4)           =         2.046288	       1.082849
	 R(2,5)           =         2.051579	       1.085649
	 R(3,6)           =         2.734936	       1.447266
	 R(3,7)           =         2.050547	       1.085103
	 R(3,8)           =         2.065967	       1.093263
	 R(6,9)           =         2.734936	       1.447266
	 R(6,10)          =         1.887612	       0.998881
	 R(9,11)          =         2.871386	       1.519472
	 R(9,12)          =         2.050547	       1.085103
	 R(9,13)          =         2.065966	       1.093262
	 R(11,14)         =         2.046289	       1.082849
	 R(11,15)         =         2.048160	       1.083840
	 R(11,16)         =         2.051579	       1.085649
	 B(1,2,3)         =         1.933173	     110.762653
	 B(1,2,4)         =         1.895860	     108.624763
	 B(1,2,5)         =         1.879142	     107.666922
	 B(2,3,6)         =         1.941927	     111.264199
	 B(2,3,7)         =         1.909709	     109.418240
	 B(2,3,8)         =         1.910459	     109.461259
	 B(3,2,4)         =         1.930343	     110.600490
	 B(3,2,5)         =         1.938402	     111.062259
	 B(3,6,9)         =         1.995361	     114.325736
	 B(3,6,10)        =         1.915579	     109.754617
	 B(4,2,5)         =         1.885197	     108.013824
	 B(6,3,7)         =         1.885083	     108.007303
	 B(6,3,8)         =         1.956935	     112.124113
	 B(6,9,11)        =         1.941927	     111.264199
	 B(6,9,12)        =         1.885083	     108.007310
	 B(6,9,13)        =         1.956935	     112.124094
	 B(7,3,8)         =         1.857227	     106.411259
	 B(9,6,10)        =         1.915579	     109.754617
	 B(9,11,14)       =         1.930343	     110.600487
	 B(9,11,15)       =         1.933173	     110.762664
	 B(9,11,16)       =         1.938402	     111.062233
	 B(11,9,12)       =         1.909708	     109.418223
	 B(11,9,13)       =         1.910460	     109.461285
	 B(12,9,13)       =         1.857227	     106.411262
	 B(14,11,15)      =         1.895859	     108.624724
	 B(14,11,16)      =         1.885197	     108.013818
	 B(15,11,16)      =         1.879143	     107.666986
	 D(1,2,3,6)       =        -3.117971	    -178.646606
	 D(1,2,3,7)       =        -1.036329	     -59.377272
	 D(1,2,3,8)       =         0.992614	      56.872577
	 D(2,3,6,9)       =        -3.124283	    -179.008252
	 D(2,3,6,10)      =        -0.963362	     -55.196591
	 D(3,6,9,11)      =         2.790648	     159.892351
	*D(3,6,9,12)      =        -1.396264	     -80.000019
	 D(3,6,9,13)      =         0.644489	      36.926494
	 D(4,2,3,6)       =        -1.015025	     -58.156665
	 D(4,2,3,7)       =         1.066617	      61.112668
	 D(4,2,3,8)       =         3.095560	     177.362517
	 D(5,2,3,6)       =         1.077963	      61.762739
	 D(5,2,3,7)       =        -3.123580	    -178.967928
	 D(5,2,3,8)       =        -1.094637	     -62.718079
	 D(6,9,11,14)     =         1.015025	      58.156662
	 D(6,9,11,15)     =         3.117971	     178.646559
	 D(6,9,11,16)     =        -1.077963	     -61.762715
	 D(7,3,6,9)       =         1.062628	      60.884102
	 D(7,3,6,10)      =        -3.059636	    -175.304237
	 D(8,3,6,9)       =        -0.978125	     -56.042415
	 D(8,3,6,10)      =         1.182796	      67.769246
	 D(10,6,9,11)     =         0.629727	      36.080690
	 D(10,6,9,12)     =         2.726000	     156.188320
	 D(10,6,9,13)     =        -1.516432	     -86.885167
	 D(12,9,11,14)    =        -1.066617	     -61.112670
	 D(12,9,11,15)    =         1.036328	      59.377227
	 D(12,9,11,16)    =         3.123580	     178.967954
	 D(13,9,11,14)    =        -3.095560	    -177.362527
	 D(13,9,11,15)    =        -0.992615	     -56.872630
	 D(13,9,11,16)    =         1.094637	      62.718097

	Current energy   :      -212.3934795592

	Generating empirical Hessian (Schlegel '84) for each fragment.
	Taking RFO optimization step.
	Going to follow RFO solution 1.
	Using RFO vector 1.
	Norm of target step-size    0.14627
	Projected energy change by RFO approximation:         0.0000070945

	Back-transformation to cartesian coordinates...
	Successfully converged to displaced geometry.

	Back-transformation to cartesian coordinates to adjust frozen coordinates...
	Successfully converged to displaced geometry.

	--- Internal Coordinate Step in ANG or DEG, aJ/ANG or AJ/DEG ---
	 ---------------------------------------------------------------------------
	   Coordinate                Previous        Force       Change         New 
	   ----------                --------       ------       ------       ------
	    1 R(1,2)          =      1.083840     0.000207     0.000037     1.083877
	    2 R(2,3)          =      1.519472    -0.000095    -0.000020     1.519452
	    3 R(2,4)          =      1.082849    -0.000084    -0.000015     1.082834
	    4 R(2,5)          =      1.085649     0.000070     0.000013     1.085662
	    5 R(3,6)          =      1.447266    -0.001437    -0.000239     1.447027
	    6 R(3,7)          =      1.085103     0.002434     0.000441     1.085544
	    7 R(3,8)          =      1.093263    -0.002186    -0.000407     1.092855
	    8 R(6,9)          =      1.447266     0.016984     0.002824     1.450090
	    9 R(6,10)         =      0.998881    -0.004307    -0.000577     0.998304
	   10 R(9,11)         =      1.519472    -0.000073    -0.000015     1.519457
	   11 R(9,12)         =      1.085103     0.005222     0.000947     1.086050
	   12 R(9,13)         =      1.093262    -0.006413    -0.001195     1.092067
	   13 R(11,14)        =      1.082849     0.004008     0.000722     1.083571
	   14 R(11,15)        =      1.083840    -0.002944    -0.000532     1.083308
	   15 R(11,16)        =      1.085649     0.000236     0.000043     1.085692
	   16 B(1,2,3)        =    110.762653     0.000004     0.022418   110.785071
	   17 B(1,2,4)        =    108.624763    -0.000004    -0.003305   108.621457
	   18 B(1,2,5)        =    107.666922     0.000004     0.010597   107.677519
	   19 B(2,3,6)        =    111.264199     0.000023     0.089532   111.353731
	   20 B(2,3,7)        =    109.418240    -0.000021    -0.056819   109.361421
	   21 B(2,3,8)        =    109.461259     0.000021     0.120927   109.582186
	   22 B(3,2,4)        =    110.600490     0.000008     0.042197   110.642687
	   23 B(3,2,5)        =    111.062259    -0.000013    -0.069193   110.993066
	   24 B(3,6,9)        =    114.325736     0.000089     0.135313   114.461050
	   25 B(3,6,10)       =    109.754617    -0.000041    -0.675370   109.079248
	   26 B(4,2,5)        =    108.013824     0.000001    -0.003067   108.010757
	   27 B(6,3,7)        =    108.007303     0.000013     0.129445   108.136748
	   28 B(6,3,8)        =    112.124113    -0.000038    -0.253126   111.870987
	   29 B(6,9,11)       =    111.264199     0.000032    -0.116320   111.147879
	   30 B(6,9,12)       =    108.007310     0.000095     0.742822   108.750132
	   31 B(6,9,13)       =    112.124094    -0.000052    -0.116091   112.008004
	   32 B(7,3,8)        =    106.411259     0.000000    -0.034108   106.377152
	   33 B(9,6,10)       =    109.754617    -0.000006    -0.136546   109.618071
	   34 B(9,11,14)      =    110.600487     0.000032     0.142794   110.743281
	   35 B(9,11,15)      =    110.762664     0.000014     0.030525   110.793189
	   36 B(9,11,16)      =    111.062233    -0.000029    -0.090571   110.971662
	   37 B(11,9,12)      =    109.418223    -0.000130    -1.248863   108.169360
	   38 B(11,9,13)      =    109.461285     0.000010    -0.116147   109.345139
	   39 B(12,9,13)      =    106.411262     0.000044     0.857634   107.268896
	   40 B(14,11,15)     =    108.624724    -0.000037    -0.262955   108.361769
	   41 B(14,11,16)     =    108.013818     0.000008     0.110458   108.124275
	   42 B(15,11,16)     =    107.666986     0.000010     0.064837   107.731823
	   43 D(1,2,3,6)      =   -178.646606    -0.000003    -0.389462  -179.036068
	   44 D(1,2,3,7)      =    -59.377272     0.000001    -0.209673   -59.586946
	   45 D(1,2,3,8)      =     56.872577     0.000001    -0.214435    56.658141
	   46 D(2,3,6,9)      =   -179.008252    -0.000006    -0.583535  -179.591787
	   47 D(2,3,6,10)     =    -55.196591    -0.000000    -1.190161   -56.386752
	   48 D(3,6,9,11)     =    159.892351     0.000019     1.134857   161.027208
	   49 *D(3,6,9,12)    =    -80.000019    -0.000000    -0.000000   -80.000019
	   50 D(3,6,9,13)     =     36.926494     0.000019     1.454827    38.381320
	   51 D(4,2,3,6)      =    -58.156665    -0.000002    -0.350878   -58.507543
	   52 D(4,2,3,7)      =     61.112668     0.000001    -0.171089    60.941579
	   53 D(4,2,3,8)      =    177.362517     0.000001    -0.175851   177.186666
	   54 D(5,2,3,6)      =     61.762739    -0.000003    -0.372221    61.390518
	   55 D(5,2,3,7)      =   -178.967928     0.000001    -0.192432  -179.160360
	   56 D(5,2,3,8)      =    -62.718079     0.000001    -0.197194   -62.915273
	   57 D(6,9,11,14)    =     58.156662     0.000007    -2.018721    56.137940
	   58 D(6,9,11,15)    =    178.646559     0.000004    -2.234647   176.411911
	   59 D(6,9,11,16)    =    -61.762715     0.000004    -2.192475   -63.955190
	   60 D(7,3,6,9)      =     60.884102    -0.000005    -0.650531    60.233571
	   61 D(7,3,6,10)     =   -175.304237     0.000001    -1.257157  -176.561394
	   62 D(8,3,6,9)      =    -56.042415    -0.000002    -0.544527   -56.586942
	   63 D(8,3,6,10)     =     67.769246     0.000004    -1.151153    66.618093
	   64 D(10,6,9,11)    =     36.080690     0.000017     2.032174    38.112865
	   65 D(10,6,9,12)    =    156.188320    -0.000002     0.897318   157.085637
	   66 D(10,6,9,13)    =    -86.885167     0.000017     2.352144   -84.533023
	   67 D(12,9,11,14)   =    -61.112670    -0.000005    -2.069815   -63.182484
	   68 D(12,9,11,15)   =     59.377227    -0.000009    -2.285741    57.091486
	   69 D(12,9,11,16)   =    178.967954    -0.000008    -2.243569   176.724385
	   70 D(13,9,11,14)   =   -177.362527    -0.000001    -2.329798  -179.692325
	   71 D(13,9,11,15)   =    -56.872630    -0.000005    -2.545724   -59.418354
	   72 D(13,9,11,16)   =     62.718097    -0.000004    -2.503552    60.214545
	 ---------------------------------------------------------------------------

  ==> Convergence Check <==

  Measures of convergence in internal coordinates in au.
  Criteria marked as inactive (o), active & met (*), and active & unmet ( ).
  --------------------------------------------------------------------------------------------- ~
   Step     Total Energy     Delta E     MAX Force     RMS Force      MAX Disp      RMS Disp    ~
  --------------------------------------------------------------------------------------------- ~
    Convergence Criteria    1.00e-06 *    3.00e-04 *             o    1.20e-03 *             o  ~
  --------------------------------------------------------------------------------------------- ~
      1    -212.39347956   -2.12e+02      2.06e-03      5.27e-04 o    4.44e-02      1.72e-02 o  ~
  ---------------------------------------------------------------------------------------------

	Writing optimization data to binary file.
	Structure for next step:
	Cartesian Geometry (in Angstrom)
	    H    -0.1063149679  -0.2127142219  -3.3466465416
	    C    -0.1324057220   0.3806403241  -2.4399826523
	    C    -0.0699416062  -0.5101558691  -1.2106275571
	    H    -1.0407422518   0.9700905912  -2.4385336300
	    H     0.7109710318   1.0636900784  -2.4686186648
	    N    -0.1266352627   0.2685111579   0.0077117669
	    H    -0.9154328600  -1.1909792460  -1.2161852164
	    H     0.8272271139  -1.1326436270  -1.2545578759
	    C    -0.0623021161  -0.5162407368   1.2254088700
	    H     0.6132422165   0.9386992239   0.0013823644
	    C     0.3366464158   0.3448341701   2.4120591109
	    H    -1.0452868196  -0.9328716324   1.4245679521
	    H     0.6328032122  -1.3537912779   1.1362590760
	    H    -0.3427568553   1.1813826668   2.5248590768
	    H     0.3219793015  -0.2326760228   3.3284774491
	    H     1.3401982663   0.7394151281   2.2859012074
			--------------------------
			 OPTKING Finished Execution 
			--------------------------

    Structure for next step:
    Molecular point group: c1
    Full point group: C1

    Geometry (in Angstrom), charge = 0, multiplicity = 1:

    H           -0.107605998726    -0.212512358498    -3.345647590389
    C           -0.133696750753     0.380842142202    -2.438983770375
    C           -0.071232639714    -0.509953983021    -1.209628768987
    H           -1.042033211245     0.970292364242    -2.437534748120
    H            0.709679938557     1.063891844275    -2.467619780680
    N           -0.127926291956     0.268712984567     0.008710461989
    H           -0.916723829048    -1.190777307933    -1.215186427879
    H            0.825936011845    -1.132441693368    -1.253559084442
    C           -0.063593150203    -0.516038850227     1.226407472040
    H            0.611951130739     0.938900999337     0.002381059930
    C            0.335355351213     0.345035990862     2.413057622301
    H           -1.046577778710    -0.932669714008     1.425566538909
    H            0.631512125011    -1.353589327339     1.137257684901
    H           -0.344047868034     1.181584423725     2.525857579634
    H            0.320688237996    -0.232474157882     3.329475890508
    H            1.338907125008     0.739616918772     2.286899728513

gradient() will perform analytic gradient computation.

*** tstart() called on cx1-27-1-1
*** at Fri Sep  9 20:31:16 2016


         ---------------------------------------------------------
                                   SCF
            by Justin Turney, Rob Parrish, and Andy Simmonett
                              RHF Reference
                        4 Threads,   2000 MiB Core
         ---------------------------------------------------------

  ==> Geometry <==

    Molecular point group: c1
    Full point group: C1

    Geometry (in Angstrom), charge = 0, multiplicity = 1:

       Center              X                  Y                   Z               Mass       
    ------------   -----------------  -----------------  -----------------  -----------------
           H         -0.107605998726    -0.212512358498    -3.345647590389     1.007825032070
           C         -0.133696750753     0.380842142202    -2.438983770375    12.000000000000
           C         -0.071232639714    -0.509953983021    -1.209628768987    12.000000000000
           H         -1.042033211245     0.970292364242    -2.437534748120     1.007825032070
           H          0.709679938557     1.063891844275    -2.467619780680     1.007825032070
           N         -0.127926291956     0.268712984567     0.008710461989    14.003074004780
           H         -0.916723829048    -1.190777307933    -1.215186427879     1.007825032070
           H          0.825936011845    -1.132441693368    -1.253559084442     1.007825032070
           C         -0.063593150203    -0.516038850227     1.226407472040    12.000000000000
           H          0.611951130739     0.938900999337     0.002381059930     1.007825032070
           C          0.335355351213     0.345035990862     2.413057622301    12.000000000000
           H         -1.046577778710    -0.932669714008     1.425566538909     1.007825032070
           H          0.631512125011    -1.353589327339     1.137257684901     1.007825032070
           H         -0.344047868034     1.181584423725     2.525857579634     1.007825032070
           H          0.320688237996    -0.232474157882     3.329475890508     1.007825032070
           H          1.338907125008     0.739616918772     2.286899728513     1.007825032070

  Running in c1 symmetry.

  Rotational constants: A =      0.59029  B =      0.07079  C =      0.06681 [cm^-1]
  Rotational constants: A =  17696.46431  B =   2122.28948  C =   2002.83579 [MHz]
  Nuclear repulsion =  189.526867526386127

  Charge       = 0
  Multiplicity = 1
  Electrons    = 42
  Nalpha       = 21
  Nbeta        = 21

  ==> Algorithm <==

  SCF Algorithm Type is DF.
  DIIS enabled.
  MOM disabled.
  Fractional occupation disabled.
  Guess Type is READ.
  Energy threshold   = 1.00e-08
  Density threshold  = 1.00e-08
  Integral threshold = 0.00e+00

  ==> Primary Basis <==

  Basis Set: CC-PVTZ
    Number of shells: 116
    Number of basis function: 304
    Number of Cartesian functions: 340
    Spherical Harmonics?: true
    Max angular momentum: 3

  ==> Pre-Iterations <==

   -------------------------------------------------------
    Irrep   Nso     Nmo     Nalpha   Nbeta   Ndocc  Nsocc
   -------------------------------------------------------
     A        304     304       0       0       0       0
   -------------------------------------------------------
    Total     304     304      21      21      21       0
   -------------------------------------------------------

 OEINTS: Overlap, kinetic, potential, dipole, and quadrupole integrals
         stored in file 35.

  ==> Integral Setup <==

  ==> DFJK: Density-Fitted J/K Matrices <==

    J tasked:                  Yes
    K tasked:                  Yes
    wK tasked:                  No
    OpenMP threads:              4
    Integrals threads:           4
    Memory (MB):              1430
    Algorithm:                Core
    Integral Cache:           NONE
    Schwarz Cutoff:          1E-12
    Fitting Condition:       1E-12

   => Auxiliary Basis Set <=

  Basis Set: 
    Number of shells: 235
    Number of basis function: 725
    Number of Cartesian functions: 865
    Spherical Harmonics?: true
    Max angular momentum: 4

  Minimum eigenvalue in the overlap matrix is 7.1078606997E-04.
  Using Symmetric Orthogonalization.
  SCF Guess: Reading in previously saved MOs, projecting if necessary.

  Using orbitals from previous SCF, no projection.
  Recomputing DOCC and SOCC from number of alpha and beta electrons from previous calculation.
              A 
    DOCC [    21 ]

  ==> Iterations <==

                           Total Energy        Delta E     RMS |[F,P]|

   @DF-RHF iter   0:  -212.39248289899228   -2.12392e+02   1.03836e-04 
   @DF-RHF iter   1:  -212.39354901101512   -1.06611e-03   2.15552e-05 
   @DF-RHF iter   2:  -212.39358666861085   -3.76576e-05   7.64883e-06 DIIS
   @DF-RHF iter   3:  -212.39359233383948   -5.66523e-06   3.52340e-06 DIIS
   @DF-RHF iter   4:  -212.39359312281238   -7.88973e-07   6.60549e-07 DIIS
   @DF-RHF iter   5:  -212.39359317763990   -5.48275e-08   2.28662e-07 DIIS
   @DF-RHF iter   6:  -212.39359318419372   -6.55382e-09   7.12347e-08 DIIS
   @DF-RHF iter   7:  -212.39359318493672   -7.43000e-10   2.12499e-08 DIIS
   @DF-RHF iter   8:  -212.39359318500266   -6.59384e-11   4.78873e-09 DIIS

  ==> Post-Iterations <==

    Orbital Energies (a.u.)
    -----------------------

    Doubly Occupied:                                                      

       1A    -15.528605     2A    -11.238995     3A    -11.238795  
       4A    -11.208896     5A    -11.206379     6A     -1.207163  
       7A     -1.029995     8A     -0.964218     9A     -0.833121  
      10A     -0.822666    11A     -0.658366    12A     -0.629817  
      13A     -0.606371    14A     -0.590650    15A     -0.553091  
      16A     -0.521579    17A     -0.508371    18A     -0.488881  
      19A     -0.484652    20A     -0.473608    21A     -0.362804  

    Virtual:                                                              

      22A      0.141742    23A      0.157497    24A      0.167826  
      25A      0.185746    26A      0.206736    27A      0.214639  
      28A      0.227492    29A      0.235724    30A      0.241924  
      31A      0.250924    32A      0.254461    33A      0.307355  
      34A      0.339289    35A      0.354470    36A      0.359702  
      37A      0.365207    38A      0.397615    39A      0.426279  
      40A      0.445894    41A      0.479211    42A      0.486796  
      43A      0.499712    44A      0.521970    45A      0.557557  
      46A      0.583289    47A      0.591114    48A      0.604497  
      49A      0.619351    50A      0.628623    51A      0.636261  
      52A      0.646627    53A      0.651531    54A      0.651860  
      55A      0.666765    56A      0.676615    57A      0.686097  
      58A      0.689451    59A      0.704986    60A      0.737887  
      61A      0.746468    62A      0.779322    63A      0.798725  
      64A      0.809037    65A      0.851857    66A      0.869638  
      67A      0.886936    68A      0.922078    69A      0.945655  
      70A      0.969995    71A      1.011195    72A      1.030838  
      73A      1.039836    74A      1.055065    75A      1.083489  
      76A      1.118094    77A      1.148006    78A      1.161613  
      79A      1.166559    80A      1.174231    81A      1.199725  
      82A      1.215502    83A      1.242585    84A      1.264392  
      85A      1.282134    86A      1.289465    87A      1.299164  
      88A      1.316810    89A      1.330379    90A      1.345523  
      91A      1.363900    92A      1.368524    93A      1.378820  
      94A      1.390723    95A      1.410826    96A      1.416897  
      97A      1.432801    98A      1.461934    99A      1.501700  
     100A      1.512548   101A      1.523752   102A      1.526248  
     103A      1.552225   104A      1.562343   105A      1.581256  
     106A      1.583905   107A      1.594494   108A      1.617981  
     109A      1.631547   110A      1.665116   111A      1.673487  
     112A      1.703494   113A      1.730789   114A      1.758249  
     115A      1.762487   116A      1.793733   117A      1.815655  
     118A      1.836772   119A      1.874367   120A      1.986620  
     121A      2.001171   122A      2.067555   123A      2.124046  
     124A      2.168117   125A      2.197939   126A      2.503206  
     127A      2.527958   128A      2.600976   129A      2.613116  
     130A      2.621058   131A      2.644182   132A      2.669732  
     133A      2.724763   134A      2.735520   135A      2.745551  
     136A      2.782583   137A      2.813987   138A      2.838482  
     139A      2.866239   140A      2.884831   141A      2.920770  
     142A      2.952730   143A      2.976684   144A      3.007281  
     145A      3.026863   146A      3.072057   147A      3.095096  
     148A      3.102777   149A      3.123515   150A      3.133208  
     151A      3.153995   152A      3.184138   153A      3.189576  
     154A      3.201452   155A      3.223552   156A      3.226828  
     157A      3.243568   158A      3.286545   159A      3.304213  
     160A      3.311930   161A      3.322682   162A      3.342438  
     163A      3.364958   164A      3.372990   165A      3.379021  
     166A      3.404242   167A      3.419798   168A      3.423540  
     169A      3.432556   170A      3.445739   171A      3.449152  
     172A      3.475862   173A      3.494073   174A      3.526145  
     175A      3.539655   176A      3.547245   177A      3.588024  
     178A      3.612299   179A      3.620588   180A      3.631907  
     181A      3.645047   182A      3.670838   183A      3.713335  
     184A      3.721722   185A      3.729194   186A      3.742090  
     187A      3.764182   188A      3.788293   189A      3.791107  
     190A      3.810382   191A      3.819283   192A      3.854289  
     193A      3.864285   194A      3.876181   195A      3.895525  
     196A      3.924418   197A      3.968869   198A      3.987463  
     199A      3.998850   200A      4.028473   201A      4.037374  
     202A      4.060766   203A      4.082031   204A      4.106965  
     205A      4.112691   206A      4.131758   207A      4.138391  
     208A      4.152333   209A      4.175913   210A      4.196747  
     211A      4.215076   212A      4.225177   213A      4.243023  
     214A      4.272845   215A      4.294355   216A      4.303775  
     217A      4.330304   218A      4.342372   219A      4.352905  
     220A      4.374403   221A      4.378957   222A      4.394020  
     223A      4.410176   224A      4.422992   225A      4.438530  
     226A      4.456920   227A      4.462768   228A      4.473357  
     229A      4.497195   230A      4.509437   231A      4.530573  
     232A      4.550950   233A      4.583024   234A      4.619408  
     235A      4.629674   236A      4.649534   237A      4.656532  
     238A      4.682983   239A      4.713510   240A      4.735258  
     241A      4.739960   242A      4.780116   243A      4.812610  
     244A      4.820497   245A      4.840033   246A      4.926432  
     247A      5.012565   248A      5.076803   249A      5.100614  
     250A      5.129809   251A      5.154377   252A      5.191695  
     253A      5.205588   254A      5.223410   255A      5.233632  
     256A      5.250961   257A      5.258500   258A      5.280777  
     259A      5.298844   260A      5.304658   261A      5.345344  
     262A      5.369056   263A      5.374929   264A      5.448194  
     265A      5.472922   266A      5.480575   267A      5.507071  
     268A      5.535733   269A      5.601341   270A      5.661298  
     271A      5.684771   272A      5.702353   273A      5.714103  
     274A      5.726210   275A      5.739818   276A      5.755108  
     277A      5.769247   278A      5.777861   279A      5.795532  
     280A      5.825393   281A      5.879684   282A      5.891787  
     283A      5.931185   284A      5.939170   285A      5.963817  
     286A      6.009897   287A      6.162522   288A      6.191974  
     289A      6.265502   290A      6.280438   291A      6.312212  
     292A      6.316356   293A      6.327328   294A      6.351175  
     295A      6.385415   296A      6.428536   297A      6.543181  
     298A      6.589851   299A      7.036905   300A     12.309037  
     301A     13.626358   302A     13.670814   303A     14.243143  
     304A     14.365291  

    Final Occupation by Irrep:
              A 
    DOCC [    21 ]

  Energy converged.

  @DF-RHF Final Energy:  -212.39359318500266

   => Energetics <=

    Nuclear Repulsion Energy =            189.5268675263861269
    One-Electron Energy =                -661.5268794453442069
    Two-Electron Energy =                 259.6064187339554792
    DFT Exchange-Correlation Energy =       0.0000000000000000
    Empirical Dispersion Energy =           0.0000000000000000
    PCM Polarization Energy =               0.0000000000000000
    EFP Energy =                            0.0000000000000000
    Total Energy =                       -212.3935931850026009

    Alert: EFP and PCM quantities not currently incorporated into SCF psivars.

Properties will be evaluated at   0.000000,   0.000000,   0.000000 Bohr
  ==> Properties <==


Properties computed using the SCF density matrix

  Nuclear Dipole Moment: (a.u.)
     X:     0.9207      Y:    -0.1509      Z:    -0.0114

  Electronic Dipole Moment: (a.u.)
     X:    -0.5810      Y:     0.0031      Z:     0.0298

  Dipole Moment: (a.u.)
     X:     0.3396      Y:    -0.1478      Z:     0.0185     Total:     0.3709

  Dipole Moment: (Debye)
     X:     0.8633      Y:    -0.3757      Z:     0.0469     Total:     0.9427


  Saving occupied orbitals to File 180.

*** tstop() called on cx1-27-1-1 at Fri Sep  9 20:31:25 2016
Module time:
	user time   =      25.14 seconds =       0.42 minutes
	system time =       0.35 seconds =       0.01 minutes
	total time  =          9 seconds =       0.15 minutes
Total time:
	user time   =     120.19 seconds =       2.00 minutes
	system time =       1.45 seconds =       0.02 minutes
	total time  =         36 seconds =       0.60 minutes

*** tstart() called on cx1-27-1-1
*** at Fri Sep  9 20:31:25 2016


         ------------------------------------------------------------
                                   SCF GRAD                          
                          Rob Parrish, Justin Turney,                
                       Andy Simmonett, and Alex Sokolov              
         ------------------------------------------------------------

  ==> Geometry <==

    Molecular point group: c1
    Full point group: C1

    Geometry (in Angstrom), charge = 0, multiplicity = 1:

       Center              X                  Y                   Z               Mass       
    ------------   -----------------  -----------------  -----------------  -----------------
           H         -0.107605998726    -0.212512358498    -3.345647590389     1.007825032070
           C         -0.133696750753     0.380842142202    -2.438983770375    12.000000000000
           C         -0.071232639714    -0.509953983021    -1.209628768987    12.000000000000
           H         -1.042033211245     0.970292364242    -2.437534748120     1.007825032070
           H          0.709679938557     1.063891844275    -2.467619780680     1.007825032070
           N         -0.127926291956     0.268712984567     0.008710461989    14.003074004780
           H         -0.916723829048    -1.190777307933    -1.215186427879     1.007825032070
           H          0.825936011845    -1.132441693368    -1.253559084442     1.007825032070
           C         -0.063593150203    -0.516038850227     1.226407472040    12.000000000000
           H          0.611951130739     0.938900999337     0.002381059930     1.007825032070
           C          0.335355351213     0.345035990862     2.413057622301    12.000000000000
           H         -1.046577778710    -0.932669714008     1.425566538909     1.007825032070
           H          0.631512125011    -1.353589327339     1.137257684901     1.007825032070
           H         -0.344047868034     1.181584423725     2.525857579634     1.007825032070
           H          0.320688237996    -0.232474157882     3.329475890508     1.007825032070
           H          1.338907125008     0.739616918772     2.286899728513     1.007825032070

  Nuclear repulsion =  189.526867526386127

  ==> Basis Set <==

  Basis Set: CC-PVTZ
    Number of shells: 116
    Number of basis function: 304
    Number of Cartesian functions: 340
    Spherical Harmonics?: true
    Max angular momentum: 3

  ==> DFJKGrad: Density-Fitted SCF Gradients <==

    Gradient:                    1
    J tasked:                  Yes
    K tasked:                  Yes
    wK tasked:                  No
    OpenMP threads:              4
    Integrals threads:           4
    Memory (MB):              1430
    Schwarz Cutoff:          0E+00
    Fitting Condition:       1E-12

   => Auxiliary Basis Set <=

  Basis Set: 
    Number of shells: 235
    Number of basis function: 725
    Number of Cartesian functions: 865
    Spherical Harmonics?: true
    Max angular momentum: 4


  -Total Gradient:
     Atom            X                  Y                   Z
    ------   -----------------  -----------------  -----------------
       1       -0.000016678753     0.000037186047    -0.000037353760
       2       -0.000018388006    -0.000035254867    -0.000147076306
       3        0.002433241263     0.000819472041     0.000158709732
       4       -0.000030873377     0.000010747645    -0.000039022403
       5        0.000004376112    -0.000066655146     0.000040367064
       6       -0.002680378657    -0.000019226072    -0.000059068471
       7       -0.000044727466     0.000039177071     0.000011221598
       8       -0.000001645824     0.000072614452     0.000183000028
       9        0.002101108497    -0.002157039120    -0.001828279584
      10       -0.000396806655    -0.000060340287    -0.000397097056
      11       -0.000826683453    -0.000595635789    -0.000088444252
      12       -0.000793083327     0.002266159239     0.002379209926
      13        0.000182144621    -0.000288646038     0.000014844409
      14        0.000095989976     0.000131186839     0.000119146357
      15        0.000023325244     0.000102511004    -0.000024572141
      16       -0.000030920196    -0.000256257017    -0.000285585142


*** tstop() called on cx1-27-1-1 at Fri Sep  9 20:31:42 2016
Module time:
	user time   =      63.32 seconds =       1.06 minutes
	system time =       0.49 seconds =       0.01 minutes
	total time  =         17 seconds =       0.28 minutes
Total time:
	user time   =     183.54 seconds =       3.06 minutes
	system time =       1.94 seconds =       0.03 minutes
	total time  =         53 seconds =       0.88 minutes
CURRENT ENERGY: -212.3935931850

			-----------------------------------------
			 OPTKING 2.0: for geometry optimizations 
			  - R.A. King,  Bethel University        
			-----------------------------------------

	Previous internal coordinate definitions found.
	---Fragment 1 Geometry and Gradient---
	 H          -0.2033458678       -0.4015901574       -6.3223576830
	 C          -0.2526502438        0.7196873486       -4.6090113686
	 C          -0.1346101808       -0.9636733683       -2.2858670958
	 H          -1.9691573906        1.8335868372       -4.6062731133
	 H           1.3411007259        2.0104642207       -4.6631255856
	 N          -0.2417456570        0.5077939492        0.0164603876
	 H          -1.7323569764       -2.2502429972       -2.2963695491
	 H           1.5607928657       -2.1400046619       -2.3688833610
	 C          -0.1201736378       -0.9751721009        2.3175742495
	 H           1.1564200438        1.7742657546        0.0044995512
	 C           0.6337297710        0.6520235287        4.5600180490
	 H          -1.9777453785       -1.7624903319        2.6939303427
	 H           1.1933849659       -2.5579131251        2.1491055670
	 H          -0.6501562472        2.2328709637        4.7731790762
	 H           0.6060129439       -0.4393124914        6.2917975991
	 H           2.5301677836        1.3976734197        4.3216141803
	            -0.0000166788        0.0000371860       -0.0000373538
	            -0.0000183880       -0.0000352549       -0.0001470763
	             0.0024332413        0.0008194720        0.0001587097
	            -0.0000308734        0.0000107476       -0.0000390224
	             0.0000043761       -0.0000666551        0.0000403671
	            -0.0026803787       -0.0000192261       -0.0000590685
	            -0.0000447275        0.0000391771        0.0000112216
	            -0.0000016458        0.0000726145        0.0001830000
	             0.0021011085       -0.0021570391       -0.0018282796
	            -0.0003968067       -0.0000603403       -0.0003970971
	            -0.0008266835       -0.0005956358       -0.0000884443
	            -0.0007930833        0.0022661592        0.0023792099
	             0.0001821446       -0.0002886460        0.0000148444
	             0.0000959900        0.0001311868        0.0001191464
	             0.0000233252        0.0001025110       -0.0000245721
	            -0.0000309202       -0.0002562570       -0.0002855851

	---Fragment 1 Intrafragment Coordinates---
	 - Coordinate -           - BOHR/RAD -       - ANG/DEG -
	 R(1,2)           =         2.048231	       1.083877
	 R(2,3)           =         2.871347	       1.519452
	 R(2,4)           =         2.046259	       1.082834
	 R(2,5)           =         2.051603	       1.085662
	 R(3,6)           =         2.734485	       1.447027
	 R(3,7)           =         2.051382	       1.085544
	 R(3,8)           =         2.065197	       1.092855
	 R(6,9)           =         2.740272	       1.450090
	 R(6,10)          =         1.886521	       0.998304
	 R(9,11)          =         2.871357	       1.519457
	 R(9,12)          =         2.052337	       1.086050
	 R(9,13)          =         2.063707	       1.092067
	 R(11,14)         =         2.047652	       1.083571
	 R(11,15)         =         2.047155	       1.083308
	 R(11,16)         =         2.051660	       1.085692
	 B(1,2,3)         =         1.933564	     110.785071
	 B(1,2,4)         =         1.895802	     108.621457
	 B(1,2,5)         =         1.879327	     107.677519
	 B(2,3,6)         =         1.943489	     111.353731
	 B(2,3,7)         =         1.908717	     109.361421
	 B(2,3,8)         =         1.912570	     109.582186
	 B(3,2,4)         =         1.931079	     110.642687
	 B(3,2,5)         =         1.937194	     110.993066
	 B(3,6,9)         =         1.997722	     114.461050
	 B(3,6,10)        =         1.903792	     109.079248
	 B(4,2,5)         =         1.885143	     108.010757
	 B(6,3,7)         =         1.887342	     108.136748
	 B(6,3,8)         =         1.952517	     111.870987
	 B(6,9,11)        =         1.939896	     111.147879
	 B(6,9,12)        =         1.898048	     108.750132
	 B(6,9,13)        =         1.954908	     112.008004
	 B(7,3,8)         =         1.856632	     106.377152
	 B(9,6,10)        =         1.913196	     109.618071
	 B(9,11,14)       =         1.932835	     110.743281
	 B(9,11,15)       =         1.933706	     110.793189
	 B(9,11,16)       =         1.936821	     110.971662
	 B(11,9,12)       =         1.887911	     108.169360
	 B(11,9,13)       =         1.908433	     109.345139
	 B(12,9,13)       =         1.872195	     107.268896
	 B(14,11,15)      =         1.891270	     108.361769
	 B(14,11,16)      =         1.887125	     108.124275
	 B(15,11,16)      =         1.880275	     107.731823
	 D(1,2,3,6)       =        -3.124769	    -179.036068
	 D(1,2,3,7)       =        -1.039988	     -59.586946
	 D(1,2,3,8)       =         0.988871	      56.658141
	 D(2,3,6,9)       =        -3.134468	    -179.591787
	 D(2,3,6,10)      =        -0.984134	     -56.386752
	 D(3,6,9,11)      =         2.810455	     161.027208
	*D(3,6,9,12)      =        -1.396264	     -80.000019
	 D(3,6,9,13)      =         0.669880	      38.381320
	 D(4,2,3,6)       =        -1.021149	     -58.507543
	 D(4,2,3,7)       =         1.063631	      60.941579
	 D(4,2,3,8)       =         3.092491	     177.186666
	 D(5,2,3,6)       =         1.071467	      61.390518
	 D(5,2,3,7)       =        -3.126938	    -179.160360
	 D(5,2,3,8)       =        -1.098079	     -62.915273
	 D(6,9,11,14)     =         0.979792	      56.137940
	 D(6,9,11,15)     =         3.078969	     176.411911
	 D(6,9,11,16)     =        -1.116229	     -63.955190
	 D(7,3,6,9)       =         1.051274	      60.233571
	 D(7,3,6,10)      =        -3.081578	    -176.561394
	 D(8,3,6,9)       =        -0.987628	     -56.586942
	 D(8,3,6,10)      =         1.162705	      66.618093
	 D(10,6,9,11)     =         0.665195	      38.112865
	 D(10,6,9,12)     =         2.741662	     157.085637
	 D(10,6,9,13)     =        -1.475380	     -84.533023
	 D(12,9,11,14)    =        -1.102742	     -63.182484
	 D(12,9,11,15)    =         0.996434	      57.091486
	 D(12,9,11,16)    =         3.084422	     176.724385
	 D(13,9,11,14)    =        -3.136223	    -179.692325
	 D(13,9,11,15)    =        -1.037046	     -59.418354
	 D(13,9,11,16)    =         1.050942	      60.214545

	Current energy   :      -212.3935931850

	Energy change for the previous step:
		Projected    :         0.0000070945
		Actual       :        -0.0001136258

	Performing BFGS update.
	Previous computed or guess Hessian on step 1.
	Steps to be used in Hessian update: 1
	Taking RFO optimization step.
	Going to follow RFO solution 1.
	Using RFO vector 1.
	Norm of target step-size    0.02804
	Projected energy change by RFO approximation:        -0.0000500510

	Back-transformation to cartesian coordinates...
	Successfully converged to displaced geometry.

	Back-transformation to cartesian coordinates to adjust frozen coordinates...
	Successfully converged to displaced geometry.

	--- Internal Coordinate Step in ANG or DEG, aJ/ANG or AJ/DEG ---
	 ---------------------------------------------------------------------------
	   Coordinate                Previous        Force       Change         New 
	   ----------                --------       ------       ------       ------
	    1 R(1,2)          =      1.083877    -0.000086    -0.000011     1.083866
	    2 R(2,3)          =      1.519452    -0.000981    -0.000183     1.519269
	    3 R(2,4)          =      1.082834    -0.000261    -0.000042     1.082792
	    4 R(2,5)          =      1.085662     0.000326     0.000053     1.085715
	    5 R(3,6)          =      1.447027     0.004317     0.000614     1.447641
	    6 R(3,7)          =      1.085544    -0.000084     0.000016     1.085560
	    7 R(3,8)          =      1.092855     0.000412     0.000041     1.092896
	    8 R(6,9)          =      1.450090    -0.005812    -0.000662     1.449428
	    9 R(6,10)         =      0.998304     0.002736     0.000284     0.998588
	   10 R(9,11)         =      1.519457     0.006281     0.001161     1.520618
	   11 R(9,12)         =      1.086050    -0.002346    -0.000311     1.085739
	   12 R(9,13)         =      1.092067    -0.002769    -0.000531     1.091536
	   13 R(11,14)        =      1.083571    -0.000441    -0.000022     1.083549
	   14 R(11,15)        =      1.083308     0.000624     0.000064     1.083372
	   15 R(11,16)        =      1.085692     0.000729     0.000119     1.085811
	   16 B(1,2,3)        =    110.785071    -0.000006    -0.022899   110.762172
	   17 B(1,2,4)        =    108.621457     0.000004     0.012446   108.633904
	   18 B(1,2,5)        =    107.677519    -0.000000     0.005712   107.683231
	   19 B(2,3,6)        =    111.353731    -0.000024    -0.066943   111.286788
	   20 B(2,3,7)        =    109.361421     0.000007     0.000722   109.362143
	   21 B(2,3,8)        =    109.582186    -0.000001    -0.018472   109.563714
	   22 B(3,2,4)        =    110.642687    -0.000004    -0.015535   110.627152
	   23 B(3,2,5)        =    110.993066     0.000008     0.032095   111.025160
	   24 B(3,6,9)        =    114.461050    -0.000034    -0.129061   114.331989
	   25 B(3,6,10)       =    109.079248     0.000023    -0.008795   109.070452
	   26 B(4,2,5)        =    108.010757    -0.000002    -0.011253   107.999504
	   27 B(6,3,7)        =    108.136748     0.000007     0.028277   108.165024
	   28 B(6,3,8)        =    111.870987     0.000018     0.078434   111.949422
	   29 B(6,9,11)       =    111.147879    -0.000019    -0.082131   111.065748
	   30 B(6,9,12)       =    108.750132    -0.000032    -0.211626   108.538506
	   31 B(6,9,13)       =    112.008004     0.000011    -0.001583   112.006421
	   32 B(7,3,8)        =    106.377152    -0.000005    -0.020166   106.356985
	   33 B(9,6,10)       =    109.618071    -0.000015    -0.227158   109.390914
	   34 B(9,11,14)      =    110.743281    -0.000028    -0.129255   110.614026
	   35 B(9,11,15)      =    110.793189    -0.000012    -0.057911   110.735278
	   36 B(9,11,16)      =    110.971662     0.000048     0.225739   111.197402
	   37 B(11,9,12)      =    108.169360     0.000036     0.137940   108.307300
	   38 B(11,9,13)      =    109.345139     0.000001     0.036428   109.381566
	   39 B(12,9,13)      =    107.268896     0.000005     0.132098   107.400994
	   40 B(14,11,15)     =    108.361769     0.000010    -0.040178   108.321591
	   41 B(14,11,16)     =    108.124275    -0.000008    -0.006569   108.117706
	   42 B(15,11,16)     =    107.731823    -0.000011     0.007024   107.738847
	   43 D(1,2,3,6)      =   -179.036068     0.000001    -0.060520  -179.096588
	   44 D(1,2,3,7)      =    -59.586946     0.000000    -0.066709   -59.653655
	   45 D(1,2,3,8)      =     56.658141    -0.000001    -0.101034    56.557107
	   46 D(2,3,6,9)      =   -179.591787     0.000003    -0.066678  -179.658465
	   47 D(2,3,6,10)     =    -56.386752    -0.000003    -0.461309   -56.848061
	   48 D(3,6,9,11)     =    161.027208    -0.000003     0.012713   161.039921
	   49 *D(3,6,9,12)    =    -80.000019     0.000000     0.000000   -80.000019
	   50 D(3,6,9,13)     =     38.381320    -0.000002     0.026389    38.407709
	   51 D(4,2,3,6)      =    -58.507543     0.000000    -0.070295   -58.577838
	   52 D(4,2,3,7)      =     60.941579    -0.000000    -0.076483    60.865096
	   53 D(4,2,3,8)      =    177.186666    -0.000001    -0.110809   177.075857
	   54 D(5,2,3,6)      =     61.390518     0.000000    -0.073642    61.316875
	   55 D(5,2,3,7)      =   -179.160360    -0.000000    -0.079831  -179.240191
	   56 D(5,2,3,8)      =    -62.915273    -0.000001    -0.114156   -63.029429
	   57 D(6,9,11,14)    =     56.137940    -0.000000     0.374328    56.512268
	   58 D(6,9,11,15)    =    176.411911    -0.000004     0.200757   176.612668
	   59 D(6,9,11,16)    =    -63.955190    -0.000001     0.319516   -63.635674
	   60 D(7,3,6,9)      =     60.233571     0.000003    -0.045152    60.188418
	   61 D(7,3,6,10)     =   -176.561394    -0.000003    -0.439784  -177.001178
	   62 D(8,3,6,9)      =    -56.586942     0.000001    -0.082772   -56.669714
	   63 D(8,3,6,10)     =     66.618093    -0.000004    -0.477404    66.140689
	   64 D(10,6,9,11)    =     38.112865    -0.000002     0.290626    38.403491
	   65 D(10,6,9,12)    =    157.085637     0.000001     0.277913   157.363550
	   66 D(10,6,9,13)    =    -84.533023    -0.000001     0.304302   -84.228721
	   67 D(12,9,11,14)   =    -63.182484     0.000006     0.595923   -62.586561
	   68 D(12,9,11,15)   =     57.091486     0.000003     0.422352    57.513839
	   69 D(12,9,11,16)   =    176.724385     0.000005     0.541112   177.265497
	   70 D(13,9,11,14)   =   -179.692325    -0.000000     0.341603  -179.350722
	   71 D(13,9,11,15)   =    -59.418354    -0.000003     0.168032   -59.250322
	   72 D(13,9,11,16)   =     60.214545    -0.000001     0.286791    60.501336
	 ---------------------------------------------------------------------------

  ==> Convergence Check <==

  Measures of convergence in internal coordinates in au.
  Criteria marked as inactive (o), active & met (*), and active & unmet ( ).
  ---------------------------------------------------------------------------------------------
   Step     Total Energy     Delta E     MAX Force     RMS Force      MAX Disp      RMS Disp   
  ---------------------------------------------------------------------------------------------
    Convergence Criteria    1.00e-06 *    3.00e-04 *             o    1.20e-03 *             o
  ---------------------------------------------------------------------------------------------
      2    -212.39359319   -1.14e-04      7.62e-04      2.32e-04 o    1.04e-02      3.30e-03 o  ~
  ---------------------------------------------------------------------------------------------

	Writing optimization data to binary file.
	Structure for next step:
	Cartesian Geometry (in Angstrom)
	    H    -0.1074821703  -0.2130679816  -3.3445678610
	    C    -0.1339706257   0.3805076671  -2.4380736720
	    C    -0.0712522029  -0.5103189578  -1.2089794149
	    H    -1.0427008161   0.9692728843  -2.4364834797
	    H     0.7088090466   1.0643689244  -2.4669220680
	    N    -0.1271452114   0.2700093087   0.0090628684
	    H    -0.9170862480  -1.1907446993  -1.2141056306
	    H     0.8253907614  -1.1335514146  -1.2540809842
	    C    -0.0639722473  -0.5159538445   1.2252505718
	    H     0.6178010725   0.9350022503   0.0049947202
	    C     0.3362507637   0.3455843865   2.4126223142
	    H    -1.0486700259  -0.9295655407   1.4205066955
	    H     0.6299890801  -1.3536728224   1.1352765099
	    H    -0.3474401042   1.1783340840   2.5273945125
	    H     0.3242458500  -0.2335718290   3.3281157202
	    H     1.3378255498   0.7457878458   2.2874430644
			--------------------------
			 OPTKING Finished Execution 
			--------------------------

    Structure for next step:
    Molecular point group: c1
    Full point group: C1

    Geometry (in Angstrom), charge = 0, multiplicity = 1:

    H           -0.107654558560    -0.213288518248    -3.344625337149
    C           -0.134143011907     0.380287085163    -2.438131217338
    C           -0.071424593976    -0.510539471761    -1.209037054143
    H           -1.042873132989     0.969052257364    -2.436541025153
    H            0.708636595961     1.064148290211    -2.466979611133
    N           -0.127317598201     0.269788735230     0.009005136157
    H           -0.917258574501    -1.190965161254    -1.214163269408
    H            0.825218301887    -1.133771880944    -1.254138619955
    C           -0.064144638886    -0.516174357947     1.225192746717
    H            0.617628628853     0.934781625973     0.004936988247
    C            0.336078341578     0.345363807262     2.412564398416
    H           -1.048842342282    -0.929786022633     1.420448855482
    H            0.629816635485    -1.353893271946     1.135218691663
    H           -0.347612474137     1.178113441122     2.527336587949
    H            0.324073428780    -0.233792364078     3.328057734481
    H            1.337653051107     0.745567235934     2.287385158153

gradient() will perform analytic gradient computation.

*** tstart() called on cx1-27-1-1
*** at Fri Sep  9 20:31:42 2016


         ---------------------------------------------------------
                                   SCF
            by Justin Turney, Rob Parrish, and Andy Simmonett
                              RHF Reference
                        4 Threads,   2000 MiB Core
         ---------------------------------------------------------

  ==> Geometry <==

    Molecular point group: c1
    Full point group: C1

    Geometry (in Angstrom), charge = 0, multiplicity = 1:

       Center              X                  Y                   Z               Mass       
    ------------   -----------------  -----------------  -----------------  -----------------
           H         -0.107654558560    -0.213288518248    -3.344625337149     1.007825032070
           C         -0.134143011907     0.380287085163    -2.438131217338    12.000000000000
           C         -0.071424593976    -0.510539471761    -1.209037054143    12.000000000000
           H         -1.042873132989     0.969052257364    -2.436541025153     1.007825032070
           H          0.708636595961     1.064148290211    -2.466979611133     1.007825032070
           N         -0.127317598201     0.269788735230     0.009005136157    14.003074004780
           H         -0.917258574501    -1.190965161254    -1.214163269408     1.007825032070
           H          0.825218301887    -1.133771880944    -1.254138619955     1.007825032070
           C         -0.064144638886    -0.516174357947     1.225192746717    12.000000000000
           H          0.617628628853     0.934781625973     0.004936988247     1.007825032070
           C          0.336078341578     0.345363807262     2.412564398416    12.000000000000
           H         -1.048842342282    -0.929786022633     1.420448855482     1.007825032070
           H          0.629816635485    -1.353893271946     1.135218691663     1.007825032070
           H         -0.347612474137     1.178113441122     2.527336587949     1.007825032070
           H          0.324073428780    -0.233792364078     3.328057734481     1.007825032070
           H          1.337653051107     0.745567235934     2.287385158153     1.007825032070

  Running in c1 symmetry.

  Rotational constants: A =      0.58992  B =      0.07084  C =      0.06685 [cm^-1]
  Rotational constants: A =  17685.32531  B =   2123.66142  C =   2004.03787 [MHz]
  Nuclear repulsion =  189.546270686279996

  Charge       = 0
  Multiplicity = 1
  Electrons    = 42
  Nalpha       = 21
  Nbeta        = 21

  ==> Algorithm <==

  SCF Algorithm Type is DF.
  DIIS enabled.
  MOM disabled.
  Fractional occupation disabled.
  Guess Type is READ.
  Energy threshold   = 1.00e-08
  Density threshold  = 1.00e-08
  Integral threshold = 0.00e+00

  ==> Primary Basis <==

  Basis Set: CC-PVTZ
    Number of shells: 116
    Number of basis function: 304
    Number of Cartesian functions: 340
    Spherical Harmonics?: true
    Max angular momentum: 3

  ==> Pre-Iterations <==

   -------------------------------------------------------
    Irrep   Nso     Nmo     Nalpha   Nbeta   Ndocc  Nsocc
   -------------------------------------------------------
     A        304     304       0       0       0       0
   -------------------------------------------------------
    Total     304     304      21      21      21       0
   -------------------------------------------------------

 OEINTS: Overlap, kinetic, potential, dipole, and quadrupole integrals
         stored in file 35.

  ==> Integral Setup <==

  ==> DFJK: Density-Fitted J/K Matrices <==

    J tasked:                  Yes
    K tasked:                  Yes
    wK tasked:                  No
    OpenMP threads:              4
    Integrals threads:           4
    Memory (MB):              1430
    Algorithm:                Core
    Integral Cache:           NONE
    Schwarz Cutoff:          1E-12
    Fitting Condition:       1E-12

   => Auxiliary Basis Set <=

  Basis Set: 
    Number of shells: 235
    Number of basis function: 725
    Number of Cartesian functions: 865
    Spherical Harmonics?: true
    Max angular momentum: 4

  Minimum eigenvalue in the overlap matrix is 7.1201113761E-04.
  Using Symmetric Orthogonalization.
  SCF Guess: Reading in previously saved MOs, projecting if necessary.

  Using orbitals from previous SCF, no projection.
  Recomputing DOCC and SOCC from number of alpha and beta electrons from previous calculation.
              A 
    DOCC [    21 ]

  ==> Iterations <==

                           Total Energy        Delta E     RMS |[F,P]|

   @DF-RHF iter   0:  -212.39358803217155   -2.12394e+02   2.19805e-05 
   @DF-RHF iter   1:  -212.39360243015287   -1.43980e-05   4.31403e-06 
   @DF-RHF iter   2:  -212.39360370773304   -1.27758e-06   1.43402e-06 DIIS
   @DF-RHF iter   3:  -212.39360389058183   -1.82849e-07   6.73230e-07 DIIS
   @DF-RHF iter   4:  -212.39360392461148   -3.40297e-08   1.65725e-07 DIIS
   @DF-RHF iter   5:  -212.39360392777527   -3.16379e-09   5.69828e-08 DIIS
   @DF-RHF iter   6:  -212.39360392825577   -4.80497e-10   1.58134e-08 DIIS
   @DF-RHF iter   7:  -212.39360392829033   -3.45608e-11   5.08377e-09 DIIS

  ==> Post-Iterations <==

    Orbital Energies (a.u.)
    -----------------------

    Doubly Occupied:                                                      

       1A    -15.528675     2A    -11.238871     3A    -11.238839  
       4A    -11.208980     5A    -11.206278     6A     -1.207365  
       7A     -1.029840     8A     -0.964044     9A     -0.833131  
      10A     -0.822710    11A     -0.658666    12A     -0.629740  
      13A     -0.606183    14A     -0.590421    15A     -0.552898  
      16A     -0.521633    17A     -0.508404    18A     -0.489119  
      19A     -0.484711    20A     -0.473137    21A     -0.363236  

    Virtual:                                                              

      22A      0.141735    23A      0.157522    24A      0.167821  
      25A      0.185700    26A      0.206677    27A      0.214669  
      28A      0.227487    29A      0.235825    30A      0.242002  
      31A      0.251068    32A      0.254507    33A      0.307296  
      34A      0.339342    35A      0.354491    36A      0.359651  
      37A      0.365171    38A      0.397511    39A      0.426272  
      40A      0.446060    41A      0.479165    42A      0.486863  
      43A      0.500000    44A      0.522162    45A      0.557412  
      46A      0.583398    47A      0.590924    48A      0.604480  
      49A      0.619400    50A      0.628742    51A      0.636388  
      52A      0.646578    53A      0.651568    54A      0.651634  
[...]
      15       -0.000004972863     0.000007624819     0.000019186896
      16       -0.000000279887     0.000011409642     0.000010014786


*** tstop() called on cx1-27-1-1 at Fri Sep  9 20:32:31 2016
Module time:
	user time   =      63.39 seconds =       1.06 minutes
	system time =       0.45 seconds =       0.01 minutes
	total time  =         17 seconds =       0.28 minutes
Total time:
	user time   =     357.99 seconds =       5.97 minutes
	system time =       3.61 seconds =       0.06 minutes
	total time  =        102 seconds =       1.70 minutes
CURRENT ENERGY: -212.3936046032

			-----------------------------------------
			 OPTKING 2.0: for geometry optimizations 
			  - R.A. King,  Bethel University        
			-----------------------------------------

	Previous internal coordinate definitions found.
	---Fragment 1 Geometry and Gradient---
	 H          -0.2065288284       -0.4045384036       -6.3214622541
	 C          -0.2551886830        0.7177495992       -4.6087116157
	 C          -0.1333392166       -0.9643408189       -2.2850670804
	 H          -1.9728246851        1.8296995547       -4.6041457260
	 H           1.3366526922        2.0108721803       -4.6656055511
	 N          -0.2384665372        0.5112895386        0.0167086825
	 H          -1.7309674519       -2.2509656525       -2.2918015070
	 H           1.5616996274       -2.1410830899       -2.3706838310
	 C          -0.1219733348       -0.9750663147        2.3154790477
	 H           1.1716416373        1.7658213866        0.0089925403
	 C           0.6340199110        0.6515164776        4.5607397594
	 H          -1.9838074204       -1.7541029959        2.6827439983
	 H           1.1868741296       -2.5601602279        2.1466609497
	 H          -0.6583439175        2.2248224137        4.7776229154
	 H           0.6118378664       -0.4440007197        6.2903312808
	 H           2.5263882240        1.4081715058        4.3242734874
	            -0.0000025998        0.0000023588       -0.0000034353
	            -0.0000034140        0.0000002853       -0.0000152977
	             0.0024774618        0.0002683673        0.0000580346
	             0.0000021217        0.0000015874       -0.0000043653
	            -0.0000004533        0.0000013995       -0.0000019794
	            -0.0036660951        0.0002598932        0.0004034913
	            -0.0000047155       -0.0000075381       -0.0000058645
	             0.0000053473       -0.0000259638       -0.0000079698
	             0.0019245183       -0.0031024954       -0.0021943649
	            -0.0000055343        0.0000051764       -0.0000124569
	             0.0000362562       -0.0000180588        0.0000121137
	            -0.0007385760        0.0025882423        0.0017131326
	            -0.0000052494        0.0000079438        0.0000252293
	            -0.0000138151       -0.0000002323        0.0000045304
	            -0.0000049729        0.0000076248        0.0000191869
	            -0.0000002799        0.0000114096        0.0000100148

	---Fragment 1 Intrafragment Coordinates---
	 - Coordinate -           - BOHR/RAD -       - ANG/DEG -
	 R(1,2)           =         2.048271	       1.083898
	 R(2,3)           =         2.871167	       1.519356
	 R(2,4)           =         2.046149	       1.082776
	 R(2,5)           =         2.051673	       1.085699
	 R(3,6)           =         2.736185	       1.447927
	 R(3,7)           =         2.051308	       1.085506
	 R(3,8)           =         2.065238	       1.092877
	 R(6,9)           =         2.739921	       1.449904
	 R(6,10)          =         1.887410	       0.998774
	 R(9,11)          =         2.873759	       1.520728
	 R(9,12)          =         2.051392	       1.085550
	 R(9,13)          =         2.062548	       1.091453
	 R(11,14)         =         2.047568	       1.083526
	 R(11,15)         =         2.047471	       1.083475
	 R(11,16)         =         2.051707	       1.085717
	 B(1,2,3)         =         1.933415	     110.776515
	 B(1,2,4)         =         1.896069	     108.636760
	 B(1,2,5)         =         1.879392	     107.681240
	 B(2,3,6)         =         1.942529	     111.298729
	 B(2,3,7)         =         1.908956	     109.375132
	 B(2,3,8)         =         1.912501	     109.578208
	 B(3,2,4)         =         1.930711	     110.621588
	 B(3,2,5)         =         1.937743	     111.024474
	 B(3,6,9)         =         1.994999	     114.305034
	 B(3,6,10)        =         1.903206	     109.045667
	 B(4,2,5)         =         1.884784	     107.990154
	 B(6,3,7)         =         1.887147	     108.125537
	 B(6,3,8)         =         1.953786	     111.943664
	 B(6,9,11)        =         1.938674	     111.077821
	 B(6,9,12)        =         1.894026	     108.519709
	 B(6,9,13)        =         1.955423	     112.037483
	 B(7,3,8)         =         1.856370	     106.362177
	 B(9,6,10)        =         1.909478	     109.405023
	 B(9,11,14)       =         1.930105	     110.586899
	 B(9,11,15)       =         1.932959	     110.750399
	 B(9,11,16)       =         1.940492	     111.181994
	 B(11,9,12)       =         1.890021	     108.290233
	 B(11,9,13)       =         1.909218	     109.390159
	 B(12,9,13)       =         1.874172	     107.382147
	 B(14,11,15)      =         1.891055	     108.349460
	 B(14,11,16)      =         1.887029	     108.118792
	 B(15,11,16)      =         1.880397	     107.738805
	 D(1,2,3,6)       =        -3.125285	    -179.065628
	 D(1,2,3,7)       =        -1.041191	     -59.655874
	 D(1,2,3,8)       =         0.987451	      56.576748
	 D(2,3,6,9)       =        -3.138108	    -179.800371
	 D(2,3,6,10)      =        -0.995001	     -57.009357
	 D(3,6,9,11)      =         2.811122	     161.065416
	*D(3,6,9,12)      =        -1.396264	     -80.000019
	 D(3,6,9,13)      =         0.670050	      38.391028
	 D(4,2,3,6)       =        -1.021672	     -58.537498
	 D(4,2,3,7)       =         1.062421	      60.872257
	 D(4,2,3,8)       =         3.091063	     177.104878
	 D(5,2,3,6)       =         1.070609	      61.341354
	 D(5,2,3,7)       =        -3.128483	    -179.248891
	 D(5,2,3,8)       =        -1.099841	     -63.016269
	 D(6,9,11,14)     =         0.987297	      56.567939
	 D(6,9,11,15)     =         3.083916	     176.695377
	 D(6,9,11,16)     =        -1.109211	     -63.553128
	 D(7,3,6,9)       =         1.048046	      60.048593
	 D(7,3,6,10)      =        -3.092032	    -177.160393
	 D(8,3,6,9)       =        -0.991141	     -56.788201
	 D(8,3,6,10)      =         1.151966	      66.002813
	 D(10,6,9,11)     =         0.671422	      38.469657
	 D(10,6,9,12)     =         2.747222	     157.404222
	 D(10,6,9,13)     =        -1.469650	     -84.204731
	 D(12,9,11,14)    =        -1.090907	     -62.504361
	 D(12,9,11,15)    =         1.005712	      57.623076
	 D(12,9,11,16)    =         3.095770	     177.374572
	 D(13,9,11,14)    =        -3.128349	    -179.241169
	 D(13,9,11,15)    =        -1.031729	     -59.113732
	 D(13,9,11,16)    =         1.058329	      60.637764

	Current energy   :      -212.3936046032

	Energy change for the previous step:
		Projected    :         0.0000045437
		Actual       :        -0.0000006749

	Performing BFGS update.
	Previous computed or guess Hessian on step 1.
	Steps to be used in Hessian update: 3 2
	Taking RFO optimization step.
	Going to follow RFO solution 1.
	Rejecting RFO root 1 because normalization gives large value.
	Using RFO vector 2.
	Norm of target step-size    0.00262
	Projected energy change by RFO approximation:        -0.0000001335

	Back-transformation to cartesian coordinates...
	Successfully converged to displaced geometry.

	Back-transformation to cartesian coordinates to adjust frozen coordinates...
	Successfully converged to displaced geometry.

	--- Internal Coordinate Step in ANG or DEG, aJ/ANG or AJ/DEG ---
	 ---------------------------------------------------------------------------
	   Coordinate                Previous        Force       Change         New 
	   ----------                --------       ------       ------       ------
	    1 R(1,2)          =      1.083898    -0.000013     0.000000     1.083899
	    2 R(2,3)          =      1.519356    -0.000196    -0.000035     1.519321
	    3 R(2,4)          =      1.082776     0.000008     0.000000     1.082776
	    4 R(2,5)          =      1.085699    -0.000005    -0.000002     1.085696
	    5 R(3,6)          =      1.447927     0.000418     0.000093     1.448020
	    6 R(3,7)          =      1.085506    -0.000069    -0.000017     1.085488
	    7 R(3,8)          =      1.092877    -0.000161    -0.000032     1.092845
	    8 R(6,9)          =      1.449904     0.000156     0.000066     1.449970
	    9 R(6,10)         =      0.998774     0.000005     0.000016     0.998790
	   10 R(9,11)         =      1.520728    -0.000336    -0.000065     1.520663
	   11 R(9,12)         =      1.085550     0.000048    -0.000006     1.085544
	   12 R(9,13)         =      1.091453     0.000095     0.000012     1.091466
	   13 R(11,14)        =      1.083526    -0.000074    -0.000015     1.083511
	   14 R(11,15)        =      1.083475    -0.000100    -0.000010     1.083465
	   15 R(11,16)        =      1.085717    -0.000023    -0.000012     1.085704
	   16 B(1,2,3)        =    110.776515    -0.000000    -0.000308   110.776207
	   17 B(1,2,4)        =    108.636760     0.000000     0.002347   108.639107
	   18 B(1,2,5)        =    107.681240     0.000000     0.000501   107.681741
	   19 B(2,3,6)        =    111.298729    -0.000001    -0.003954   111.294775
	   20 B(2,3,7)        =    109.375132     0.000000     0.006240   109.381372
	   21 B(2,3,8)        =    109.578208     0.000000     0.000560   109.578768
	   22 B(3,2,4)        =    110.621588    -0.000000    -0.002293   110.619295
	   23 B(3,2,5)        =    111.024474    -0.000000    -0.000786   111.023688
	   24 B(3,6,9)        =    114.305034    -0.000004    -0.016050   114.288984
	   25 B(3,6,10)       =    109.045667     0.000002     0.008304   109.053971
	   26 B(4,2,5)        =    107.990154     0.000000     0.000706   107.990860
	   27 B(6,3,7)        =    108.125537     0.000000    -0.001131   108.124406
	   28 B(6,3,8)        =    111.943664    -0.000000    -0.008664   111.935000
	   29 B(6,9,11)       =    111.077821    -0.000002    -0.006793   111.071028
	   30 B(6,9,12)       =    108.519709     0.000000     0.001424   108.521133
	   31 B(6,9,13)       =    112.037483    -0.000001    -0.010880   112.026603
	   32 B(7,3,8)        =    106.362177     0.000000     0.007821   106.369997
	   33 B(9,6,10)       =    109.405023     0.000001     0.000380   109.405403
	   34 B(9,11,14)      =    110.586899     0.000001     0.006018   110.592918
	   35 B(9,11,15)      =    110.750399    -0.000001    -0.005386   110.745013
	   36 B(9,11,16)      =    111.181994    -0.000002    -0.011887   111.170107
	   37 B(11,9,12)      =    108.290233     0.000001     0.014826   108.305059
	   38 B(11,9,13)      =    109.390159     0.000002     0.003938   109.394097
	   39 B(12,9,13)      =    107.382147    -0.000000    -0.001431   107.380716
	   40 B(14,11,15)     =    108.349460     0.000001     0.011150   108.360610
	   41 B(14,11,16)     =    108.118792     0.000000     0.001421   108.120213
	   42 B(15,11,16)     =    107.738805     0.000001    -0.000777   107.738028
	   43 D(1,2,3,6)      =   -179.065628    -0.000000    -0.015140  -179.080769
	   44 D(1,2,3,7)      =    -59.655874    -0.000000    -0.014981   -59.670854
	   45 D(1,2,3,8)      =     56.576748     0.000000    -0.001694    56.575053
	   46 D(2,3,6,9)      =   -179.800371     0.000000    -0.039350  -179.839721
	   47 D(2,3,6,10)     =    -57.009357    -0.000000    -0.043810   -57.053167
	   48 D(3,6,9,11)     =    161.065416    -0.000000    -0.015023   161.050393
	   49 *D(3,6,9,12)    =    -80.000019     0.000000     0.000000   -80.000019
	   50 D(3,6,9,13)     =     38.391028    -0.000000    -0.007376    38.383652
	   51 D(4,2,3,6)      =    -58.537498    -0.000000    -0.013911   -58.551409
	   52 D(4,2,3,7)      =     60.872257    -0.000000    -0.013752    60.858505
	   53 D(4,2,3,8)      =    177.104878     0.000000    -0.000466   177.104413
	   54 D(5,2,3,6)      =     61.341354    -0.000000    -0.015052    61.326302
	   55 D(5,2,3,7)      =   -179.248891    -0.000000    -0.014892  -179.263783
	   56 D(5,2,3,8)      =    -63.016269     0.000000    -0.001606   -63.017875
	   57 D(6,9,11,14)    =     56.567939     0.000000    -0.022919    56.545020
	   58 D(6,9,11,15)    =    176.695377     0.000000    -0.008517   176.686860
	   59 D(6,9,11,16)    =    -63.553128     0.000000    -0.020881   -63.574009
	   60 D(7,3,6,9)      =     60.048593     0.000000    -0.043921    60.004672
	   61 D(7,3,6,10)     =   -177.160393    -0.000000    -0.048380  -177.208774
	   62 D(8,3,6,9)      =    -56.788201    -0.000000    -0.047818   -56.836019
	   63 D(8,3,6,10)     =     66.002813    -0.000000    -0.052277    65.950536
	   64 D(10,6,9,11)    =     38.469657    -0.000000    -0.014806    38.454851
	   65 D(10,6,9,12)    =    157.404222     0.000000     0.000218   157.404439
	   66 D(10,6,9,13)    =    -84.204731    -0.000000    -0.007159   -84.211890
	   67 D(12,9,11,14)   =    -62.504361    -0.000000    -0.029901   -62.534262
	   68 D(12,9,11,15)   =     57.623076     0.000000    -0.015498    57.607578
	   69 D(12,9,11,16)   =    177.374572    -0.000000    -0.027863   177.346709
	   70 D(13,9,11,14)   =   -179.241169    -0.000000    -0.038664  -179.279833
	   71 D(13,9,11,15)   =    -59.113732    -0.000000    -0.024261   -59.137993
	   72 D(13,9,11,16)   =     60.637764    -0.000000    -0.036626    60.601138
	 ---------------------------------------------------------------------------

  ==> Convergence Check <==

  Measures of convergence in internal coordinates in au.
  Criteria marked as inactive (o), active & met (*), and active & unmet ( ).
  ---------------------------------------------------------------------------------------------
   Step     Total Energy     Delta E     MAX Force     RMS Force      MAX Disp      RMS Disp   
  ---------------------------------------------------------------------------------------------
    Convergence Criteria    1.00e-06 *    3.00e-04 *             o    1.20e-03 *             o
  ---------------------------------------------------------------------------------------------
      4    -212.39360460   -6.75e-07 *    5.79e-05 *    1.42e-05 o    9.12e-04 *    3.08e-04 o  ~
  ---------------------------------------------------------------------------------------------


  **** Optimization is complete! (in 4 steps) ****

  ==> Optimization Summary <==

  Measures of convergence in internal coordinates in au.
  --------------------------------------------------------------------------------------------------------------- ~
   Step         Total Energy             Delta E       MAX Force       RMS Force        MAX Disp        RMS Disp  ~
  --------------------------------------------------------------------------------------------------------------- ~
      1    -212.393479559247   -212.393479559247      0.00206153      0.00052726      0.04443127      0.01723840  ~
      2    -212.393593185003     -0.000113625756      0.00076242      0.00023154      0.01040082      0.00330446  ~
      3    -212.393603928290     -0.000010743288      0.00037665      0.00006370      0.00281514      0.00102060  ~
      4    -212.393604603207     -0.000000674917      0.00005794      0.00001422      0.00091241      0.00030839  ~
  --------------------------------------------------------------------------------------------------------------- ~

	Writing optimization data to binary file.
	Final energy is   -212.3936046032074
	Final (previous) structure:
	Cartesian Geometry (in Angstrom)
	    H    -0.1092903573  -0.2140725195  -3.3451740053
	    C    -0.1350400452   0.3798167584  -2.4388253342
	    C    -0.0705600798  -0.5103072216  -1.2092055114
	    H    -1.0439739396   0.9682353769  -2.4364091693
	    H     0.7073261945   1.0641078085  -2.4689323104
	    N    -0.1261910661   0.2705627915   0.0088418546
	    H    -0.9159885943  -1.1911598116  -1.2127692167
	    H     0.8264159126  -1.1330124594  -1.2545119480
	    C    -0.0645455138  -0.5159829100   1.2252988326
	    H     0.6200060985   0.9344325036   0.0047586478
	    C     0.3355089123   0.3447676973   2.4134397193
	    H    -1.0497857533  -0.9282313978   1.4196470888
	    H     0.6280667868  -1.3547785464   1.1359641359
	    H    -0.3483806231   1.1773254044   2.5282093511
	    H     0.3237706790  -0.2349550794   3.3287002025
	    H     1.3369071703   0.7451723236   2.2883071480
	Saving final (previous) structure.
			--------------------------
			 OPTKING Finished Execution 
			--------------------------

    Final optimized geometry and variables:
    Molecular point group: c1
    Full point group: C1

    Geometry (in Angstrom), charge = 0, multiplicity = 1:

    H           -0.109290348930    -0.214072503181    -3.345173749813
    C           -0.135040034923     0.379816729364    -2.438825148003
    C           -0.070560074438    -0.510307182670    -1.209205419040
    H           -1.043973859923     0.968235302923    -2.436408983239
    H            0.707326140520     1.064107727201    -2.468932121890
    N           -0.126191056490     0.270562770807     0.008841853969
    H           -0.915988524370    -1.191159720597    -1.212769124105
    H            0.826415849489    -1.133012372863    -1.254511852164
    C           -0.064545508840    -0.515982870598     1.225298739010
    H            0.620006051118     0.934432432234     0.004758647397
    C            0.335508886684     0.344767670950     2.413439534983
    H           -1.049785673112    -0.928231326956     1.419646980408
    H            0.628066738827    -1.354778442965     1.135964049139
    H           -0.348380596533     1.177325314465     2.528209158084
    H            0.323770654277    -0.234955061462     3.328699948267
    H            1.336907068216     0.745172266660     2.288306973267

	Cleaning optimization helper files.


Properties will be evaluated at   0.000000,   0.000000,   0.000000 Bohr

Properties computed using the  density matrix

  Nuclear Dipole Moment: (a.u.)
     X:     0.9145      Y:    -0.1573      Z:    -0.0115

  Electronic Dipole Moment: (a.u.)
     X:    -0.5737      Y:     0.0048      Z:     0.0302

  Dipole Moment: (a.u.)
     X:     0.3407      Y:    -0.1525      Z:     0.0188     Total:     0.3738

  Dipole Moment: (Debye)
     X:     0.8661      Y:    -0.3877      Z:     0.0477     Total:     0.9501

  Quadrupole Moment: (Debye Ang)
    XX:   -34.2145     YY:   -34.5017     ZZ:   -33.4713
    XY:     1.4778     XZ:    -0.0630     YZ:    -0.0007

  Traceless Quadrupole Moment: (Debye Ang)
    XX:    -0.1520     YY:    -0.4391     ZZ:     0.5912
    XY:     1.4778     XZ:    -0.0630     YZ:    -0.0007

  Mulliken Charges: (a.u.)
   Center  Symbol    Alpha    Beta     Spin     Total
       1     H     0.45381  0.45381  0.00000  0.09239
       2     C     3.14217  3.14217  0.00000 -0.28434
       3     C     3.02299  3.02299  0.00000 -0.04598
       4     H     0.44939  0.44939  0.00000  0.10122
       5     H     0.45962  0.45962  0.00000  0.08075
       6     N     3.63479  3.63479  0.00000 -0.26957
       7     H     0.45850  0.45850  0.00000  0.08300
       8     H     0.47283  0.47283  0.00000  0.05433
       9     C     3.01790  3.01790  0.00000 -0.03579
      10     H     0.44724  0.44724  0.00000  0.10553
      11     C     3.14618  3.14618  0.00000 -0.29236
      12     H     0.45862  0.45862  0.00000  0.08277
      13     H     0.47542  0.47542  0.00000  0.04915
      14     H     0.44889  0.44889  0.00000  0.10222
      15     H     0.45170  0.45170  0.00000  0.09661
      16     H     0.45996  0.45996  0.00000  0.08008

   Total alpha = 21.00000, Total beta = 21.00000, Total charge = -0.00000


*** PSI4 exiting successfully. Buy a developer a beer!
