    -----------------------------------------------------------------------
          Psi4: An Open-Source Ab Initio Electronic Structure Package
                              Psi4 (no tag) Driver

                          Git: Rev {detached?}  

    J. M. Turney, A. C. Simmonett, R. M. Parrish, E. G. Hohenstein,
    F. A. Evangelista, J. T. Fermann, B. J. Mintz, L. A. Burns, J. J. Wilke,
    M. L. Abrams, N. J. Russ, M. L. Leininger, C. L. Janssen, E. T. Seidl,
    W. D. Allen, H. F. Schaefer, R. A. King, E. F. Valeev, C. D. Sherrill,
    and T. D. Crawford, WIREs Comput. Mol. Sci. 2, 556-565 (2012)
    (doi: 10.1002/wcms.93)

                         Additional Contributions by
    A. E. DePrince, M. Saitow, U. Bozkaya, A. Yu. Sokolov
    -----------------------------------------------------------------------


    Psi4 started on: Sat Sep 10 00:19:59 2016

    Process ID:  15307
    PSI4DATADIR: /export131/home/mjharvey/miniconda3/share
    Memory level set to 256.000 MB

  ==> Input File <==

--------------------------------------------------------------------------
set {
	reference rhf
	basis cc-pvtz
}


set_num_threads( 4 )
memory 2 gb

molecule MOL {
0 1

H	 3.889604	 0.356866	 -0.089510
N	 3.091268	 -0.241216	 -0.065538
C	 1.860978	 0.530248	 0.016256
H	 3.192566	 -0.835836	 0.730398
C	 0.644130	 -0.381765	 -0.031064
H	 1.835721	 1.204666	 -0.833114
H	 1.808789	 1.151975	 0.911067
C	 -0.678115	 0.376691	 0.025731
H	 0.693998	 -0.977147	 -0.936845
H	 0.693309	 -1.082142	 0.800523
C	 -0.626092	 1.734914	 -0.668335
H	 -0.966862	 0.518528	 1.064703
H	 -1.462351	 -0.225271	 -0.427576
C	 -1.947933	 2.492704	 -0.603790
H	 0.157139	 2.337696	 -0.217232
H	 -0.341472	 1.595646	 -1.707742
H	 -2.242816	 2.678451	 0.423722
H	 -1.876499	 3.451159	 -1.105054
H	 -2.745402	 1.930280	 -1.078194

	symmetry c1
}
set optking {
	frozen_dihedral = ("
		12 8 5 9
	")
}

ee = optimize('scf')
oeprop('DIPOLE', 'QUADRUPOLE', 'MULLIKEN_CHARGES')
f=open( 'psi4out.xyz', 'w' )
f.write( "19  " )
f.write( str(ee) + "\n" )
f.write( MOL.save_string_xyz() )
f.close()
--------------------------------------------------------------------------

  Memory set to   2.000 GiB by Python script.
gradient() will perform analytic gradient computation.

*** tstart() called on cx1-28-12-4
*** at Sat Sep 10 00:20:00 2016


         ---------------------------------------------------------
                                   SCF
            by Justin Turney, Rob Parrish, and Andy Simmonett
                              RHF Reference
                        4 Threads,   2000 MiB Core
         ---------------------------------------------------------

  ==> Geometry <==

    Molecular point group: c1
    Full point group: C1

    Geometry (in Angstrom), charge = 0, multiplicity = 1:

       Center              X                  Y                   Z               Mass       
    ------------   -----------------  -----------------  -----------------  -----------------
           H          3.465066897074    -0.399181094326     0.123294565865     1.007825032070
           N          2.666730897074    -0.997263094326     0.147266565865    14.003074004780
           C          1.436440897074    -0.225799094326     0.229060565865    12.000000000000
           H          2.768028897074    -1.591883094326     0.943202565865     1.007825032070
           C          0.219592897074    -1.137812094326     0.181740565865    12.000000000000
           H          1.411183897074     0.448618905674    -0.620309434135     1.007825032070
           H          1.384251897074     0.395927905674     1.123871565865     1.007825032070
           C         -1.102652102926    -0.379356094326     0.238535565865    12.000000000000
           H          0.269460897074    -1.733194094326    -0.724040434135     1.007825032070
           H          0.268771897074    -1.838189094326     1.013327565865     1.007825032070
           C         -1.050629102926     0.978866905674    -0.455530434135    12.000000000000
           H         -1.391399102926    -0.237519094326     1.277507565865     1.007825032070
           H         -1.886888102926    -0.981318094326    -0.214771434135     1.007825032070
           C         -2.372470102926     1.736656905674    -0.390985434135    12.000000000000
           H         -0.267398102926     1.581648905674    -0.004427434135     1.007825032070
           H         -0.766009102926     0.839598905674    -1.494937434135     1.007825032070
           H         -2.667353102926     1.922403905674     0.636526565865     1.007825032070
           H         -2.301036102926     2.695111905674    -0.892249434135     1.007825032070
           H         -3.169939102926     1.174232905674    -0.865389434135     1.007825032070

  Running in c1 symmetry.

  Rotational constants: A =      0.30991  B =      0.04811  C =      0.04374 [cm^-1]
  Rotational constants: A =   9290.80351  B =   1442.27920  C =   1311.18212 [MHz]
  Nuclear repulsion =  252.119465851724044

  Charge       = 0
  Multiplicity = 1
  Electrons    = 50
  Nalpha       = 25
  Nbeta        = 25

  ==> Algorithm <==

  SCF Algorithm Type is DF.
  DIIS enabled.
  MOM disabled.
  Fractional occupation disabled.
  Guess Type is CORE.
  Energy threshold   = 1.00e-08
  Density threshold  = 1.00e-08
  Integral threshold = 0.00e+00

  ==> Primary Basis <==

  Basis Set: CC-PVTZ
    Number of shells: 138
    Number of basis function: 362
    Number of Cartesian functions: 405
    Spherical Harmonics?: true
    Max angular momentum: 3

  ==> Pre-Iterations <==

   -------------------------------------------------------
    Irrep   Nso     Nmo     Nalpha   Nbeta   Ndocc  Nsocc
   -------------------------------------------------------
     A        362     362       0       0       0       0
   -------------------------------------------------------
    Total     362     362      25      25      25       0
   -------------------------------------------------------

 OEINTS: Overlap, kinetic, potential, dipole, and quadrupole integrals
         stored in file 35.

  ==> Integral Setup <==

  ==> DFJK: Density-Fitted J/K Matrices <==

    J tasked:                  Yes
    K tasked:                  Yes
    wK tasked:                  No
    OpenMP threads:              4
    Integrals threads:           4
    Memory (MB):              1430
    Algorithm:                Core
    Integral Cache:           NONE
    Schwarz Cutoff:          1E-12
    Fitting Condition:       1E-12

   => Auxiliary Basis Set <=

  Basis Set: 
    Number of shells: 280
    Number of basis function: 864
    Number of Cartesian functions: 1031
    Spherical Harmonics?: true
    Max angular momentum: 4

  Minimum eigenvalue in the overlap matrix is 3.1570700423E-04.
  Using Symmetric Orthogonalization.
  SCF Guess: Core (One-Electron) Hamiltonian.

  ==> Iterations <==

                           Total Energy        Delta E     RMS |[F,P]|

   @DF-RHF iter   1:  -166.71460328127966   -1.66715e+02   3.68708e-02 
   @DF-RHF iter   2:   -58.20897335643133    1.08506e+02   3.56173e-02 DIIS
   @DF-RHF iter   3:  -159.63598146227514   -1.01427e+02   2.39650e-02 DIIS
   @DF-RHF iter   4:  -174.32323822292915   -1.46873e+01   2.50836e-02 DIIS
   @DF-RHF iter   5:  -239.64189780201707   -6.53187e+01   1.12920e-02 DIIS
   @DF-RHF iter   6:  -229.17845626818996    1.04634e+01   1.27677e-02 DIIS
   @DF-RHF iter   7:  -251.17712457875535   -2.19987e+01   1.77537e-03 DIIS
   @DF-RHF iter   8:  -251.39884254440994   -2.21718e-01   6.99528e-04 DIIS
   @DF-RHF iter   9:  -251.43102773628732   -3.21852e-02   3.07183e-04 DIIS
   @DF-RHF iter  10:  -251.44005227244850   -9.02454e-03   7.50291e-05 DIIS
   @DF-RHF iter  11:  -251.44066655863844   -6.14286e-04   2.55309e-05 DIIS
   @DF-RHF iter  12:  -251.44073434320183   -6.77846e-05   6.23936e-06 DIIS
   @DF-RHF iter  13:  -251.44073976002551   -5.41682e-06   1.64371e-06 DIIS
   @DF-RHF iter  14:  -251.44074010180373   -3.41778e-07   3.52920e-07 DIIS
   @DF-RHF iter  15:  -251.44074011763593   -1.58322e-08   1.16988e-07 DIIS
   @DF-RHF iter  16:  -251.44074011930309   -1.66716e-09   3.13071e-08 DIIS
   @DF-RHF iter  17:  -251.44074011944161   -1.38527e-10   8.44126e-09 DIIS

  ==> Post-Iterations <==

    Orbital Energies (a.u.)
    -----------------------

    Doubly Occupied:                                                      

       1A    -15.525786     2A    -11.236673     3A    -11.211238  
       4A    -11.209893     5A    -11.207081     6A    -11.205189  
       7A     -1.177872     8A     -1.076187     9A     -0.996361  
      10A     -0.898265    11A     -0.838594    12A     -0.766804  
      13A     -0.665793    14A     -0.643482    15A     -0.611555  
      16A     -0.597152    17A     -0.572679    18A     -0.552092  
      19A     -0.521454    20A     -0.504636    21A     -0.490039  
      22A     -0.460275    23A     -0.455310    24A     -0.446273  
      25A     -0.383138  

    Virtual:                                                              

      26A      0.139805    27A      0.151016    28A      0.161666  
      29A      0.171972    30A      0.184512    31A      0.204087  
      32A      0.222252    33A      0.230587    34A      0.234851  
      35A      0.248339    36A      0.251898    37A      0.260824  
      38A      0.276423    39A      0.317625    40A      0.348253  
      41A      0.366006    42A      0.369096    43A      0.375314  
      44A      0.409421    45A      0.419748    46A      0.442434  
      47A      0.453321    48A      0.473302    49A      0.481679  
      50A      0.496086    51A      0.521555    52A      0.532991  
      53A      0.565039    54A      0.580163    55A      0.590142  
      56A      0.604861    57A      0.616374    58A      0.618448  
      59A      0.626545    60A      0.635104    61A      0.640902  
      62A      0.647375    63A      0.659280    64A      0.667656  
      65A      0.677892    66A      0.685004    67A      0.698071  
      68A      0.706995    69A      0.714219    70A      0.724910  
      71A      0.738926    72A      0.748560    73A      0.763261  
      74A      0.771762    75A      0.781262    76A      0.820115  
      77A      0.854209    78A      0.877340    79A      0.899470  
      80A      0.921438    81A      0.934319    82A      0.957577  
      83A      0.991790    84A      1.019331    85A      1.035766  
      86A      1.045872    87A      1.056797    88A      1.083206  
      89A      1.094789    90A      1.114303    91A      1.132630  
      92A      1.142738    93A      1.172554    94A      1.196022  
      95A      1.208028    96A      1.218088    97A      1.252987  
      98A      1.258681    99A      1.276090   100A      1.291728  
     101A      1.298350   102A      1.302546   103A      1.310563  
     104A      1.332267   105A      1.335002   106A      1.363759  
     107A      1.367796   108A      1.378133   109A      1.382264  
     110A      1.408408   111A      1.424078   112A      1.426111  
     113A      1.438437   114A      1.447547   115A      1.467570  
     116A      1.481857   117A      1.492352   118A      1.502788  
     119A      1.522330   120A      1.540687   121A      1.544599  
     122A      1.555076   123A      1.564045   124A      1.574425  
     125A      1.595865   126A      1.608894   127A      1.621725  
     128A      1.651738   129A      1.674184   130A      1.691603  
     131A      1.714752   132A      1.722445   133A      1.740079  
     134A      1.763385   135A      1.776054   136A      1.778532  
     137A      1.827587   138A      1.837706   139A      1.846859  
     140A      1.854656   141A      1.885095   142A      1.896192  
     143A      1.914553   144A      1.956320   145A      1.979561  
     146A      2.032009   147A      2.070356   148A      2.088489  
     149A      2.162108   150A      2.523908   151A      2.554511  
     152A      2.616285   153A      2.630596   154A      2.657534  
     155A      2.680846   156A      2.692101   157A      2.712105  
     158A      2.738304   159A      2.758074   160A      2.785433  
     161A      2.811314   162A      2.818378   163A      2.835377  
     164A      2.871553   165A      2.879265   166A      2.889612  
     167A      2.912824   168A      2.933550   169A      2.946459  
     170A      2.989413   171A      3.009901   172A      3.026376  
     173A      3.039584   174A      3.046120   175A      3.051536  
     176A      3.099211   177A      3.108074   178A      3.122839  
     179A      3.130527   180A      3.148376   181A      3.182349  
     182A      3.208319   183A      3.218116   184A      3.231160  
     185A      3.246420   186A      3.260302   187A      3.274633  
     188A      3.286882   189A      3.324829   190A      3.332109  
     191A      3.345980   192A      3.370133   193A      3.380596  
     194A      3.389450   195A      3.402816   196A      3.410438  
     197A      3.419556   198A      3.428580   199A      3.440622  
     200A      3.452258   201A      3.460728   202A      3.466524  
     203A      3.473656   204A      3.500446   205A      3.518027  
     206A      3.524583   207A      3.534509   208A      3.563695  
     209A      3.572837   210A      3.578848   211A      3.595449  
     212A      3.607935   213A      3.625858   214A      3.645536  
     215A      3.654141   216A      3.675275   217A      3.686234  
     218A      3.716386   219A      3.747314   220A      3.764982  
     221A      3.779498   222A      3.788685   223A      3.804192  
     224A      3.819260   225A      3.827856   226A      3.848441  
     227A      3.873551   228A      3.878583   229A      3.901433  
     230A      3.906924   231A      3.926908   232A      3.939809  
     233A      3.946258   234A      3.975312   235A      3.990697  
     236A      3.997242   237A      4.030216   238A      4.031774  
     239A      4.058146   240A      4.072131   241A      4.074591  
     242A      4.100183   243A      4.104617   244A      4.126207  
     245A      4.147224   246A      4.163792   247A      4.169334  
     248A      4.179127   249A      4.205198   250A      4.210675  
     251A      4.217939   252A      4.250733   253A      4.254224  
     254A      4.265753   255A      4.280627   256A      4.295477  
     257A      4.303149   258A      4.303868   259A      4.316384  
     260A      4.323496   261A      4.343054   262A      4.380712  
     263A      4.387764   264A      4.414199   265A      4.421306  
     266A      4.437030   267A      4.445814   268A      4.453021  
     269A      4.467113   270A      4.502716   271A      4.508365  
     272A      4.521601   273A      4.531647   274A      4.541060  
     275A      4.566922   276A      4.580369   277A      4.599223  
     278A      4.600746   279A      4.622843   280A      4.638585  
     281A      4.658394   282A      4.672349   283A      4.708794  
     284A      4.711993   285A      4.725730   286A      4.741231  
     287A      4.752095   288A      4.760428   289A      4.814200  
     290A      4.827633   291A      4.852924   292A      4.878966  
     293A      4.896709   294A      4.939127   295A      4.957945  
     296A      4.996721   297A      5.020490   298A      5.035939  
     299A      5.075100   300A      5.098170   301A      5.110130  
     302A      5.145797   303A      5.179948   304A      5.197235  
     305A      5.222530   306A      5.241862   307A      5.261939  
     308A      5.280816   309A      5.313822   310A      5.323690  
     311A      5.346377   312A      5.361489   313A      5.375469  
     314A      5.390150   315A      5.399793   316A      5.430392  
     317A      5.461126   318A      5.490331   319A      5.511325  
     320A      5.564562   321A      5.579720   322A      5.609079  
     323A      5.636388   324A      5.647882   325A      5.668538  
     326A      5.704157   327A      5.738417   328A      5.754127  
     329A      5.771307   330A      5.796716   331A      5.811043  
     332A      5.837576   333A      5.868095   334A      5.883653  
     335A      5.898379   336A      5.915309   337A      5.950898  
     338A      5.974191   339A      6.012784   340A      6.017343  
     341A      6.051181   342A      6.073508   343A      6.140601  
     344A      6.161662   345A      6.274139   346A      6.318729  
     347A      6.334317   348A      6.336239   349A      6.366055  
     350A      6.393278   351A      6.424038   352A      6.487620  
     353A      6.538190   354A      6.622892   355A      6.778804  
     356A      7.372227   357A     12.795667   358A     13.271420  
     359A     13.548911   360A     13.915748   361A     14.157458  
     362A     14.292916  

    Final Occupation by Irrep:
              A 
    DOCC [    25 ]

  Energy converged.

  @DF-RHF Final Energy:  -251.44074011944161

   => Energetics <=

    Nuclear Repulsion Energy =            252.1194658517240441
    One-Electron Energy =                -838.6127637263211909
    Two-Electron Energy =                 335.0525577551555898
    DFT Exchange-Correlation Energy =       0.0000000000000000
    Empirical Dispersion Energy =           0.0000000000000000
    PCM Polarization Energy =               0.0000000000000000
    EFP Energy =                            0.0000000000000000
    Total Energy =                       -251.4407401194415570

    Alert: EFP and PCM quantities not currently incorporated into SCF psivars.

Properties will be evaluated at   0.000000,   0.000000,   0.000000 Bohr
  ==> Properties <==


Properties computed using the SCF density matrix

  Nuclear Dipole Moment: (a.u.)
     X:    -2.7107      Y:     2.1368      Z:     0.2823

  Electronic Dipole Moment: (a.u.)
     X:     2.7700      Y:    -1.8683      Z:     0.1152

  Dipole Moment: (a.u.)
     X:     0.0593      Y:     0.2685      Z:     0.3975     Total:     0.4834

  Dipole Moment: (Debye)
     X:     0.1507      Y:     0.6825      Z:     1.0104     Total:     1.2286


  Saving occupied orbitals to File 180.

*** tstop() called on cx1-28-12-4 at Sat Sep 10 00:20:16 2016
Module time:
	user time   =      51.35 seconds =       0.86 minutes
	system time =       0.72 seconds =       0.01 minutes
	total time  =         16 seconds =       0.27 minutes
Total time:
	user time   =      51.35 seconds =       0.86 minutes
	system time =       0.72 seconds =       0.01 minutes
	total time  =         16 seconds =       0.27 minutes

*** tstart() called on cx1-28-12-4
*** at Sat Sep 10 00:20:16 2016


         ------------------------------------------------------------
                                   SCF GRAD                          
                          Rob Parrish, Justin Turney,                
                       Andy Simmonett, and Alex Sokolov              
         ------------------------------------------------------------

  ==> Geometry <==

    Molecular point group: c1
    Full point group: C1

    Geometry (in Angstrom), charge = 0, multiplicity = 1:

       Center              X                  Y                   Z               Mass       
    ------------   -----------------  -----------------  -----------------  -----------------
           H          3.465066897074    -0.399181094326     0.123294565865     1.007825032070
           N          2.666730897074    -0.997263094326     0.147266565865    14.003074004780
           C          1.436440897074    -0.225799094326     0.229060565865    12.000000000000
           H          2.768028897074    -1.591883094326     0.943202565865     1.007825032070
           C          0.219592897074    -1.137812094326     0.181740565865    12.000000000000
           H          1.411183897074     0.448618905674    -0.620309434135     1.007825032070
           H          1.384251897074     0.395927905674     1.123871565865     1.007825032070
           C         -1.102652102926    -0.379356094326     0.238535565865    12.000000000000
           H          0.269460897074    -1.733194094326    -0.724040434135     1.007825032070
           H          0.268771897074    -1.838189094326     1.013327565865     1.007825032070
           C         -1.050629102926     0.978866905674    -0.455530434135    12.000000000000
           H         -1.391399102926    -0.237519094326     1.277507565865     1.007825032070
           H         -1.886888102926    -0.981318094326    -0.214771434135     1.007825032070
           C         -2.372470102926     1.736656905674    -0.390985434135    12.000000000000
           H         -0.267398102926     1.581648905674    -0.004427434135     1.007825032070
           H         -0.766009102926     0.839598905674    -1.494937434135     1.007825032070
           H         -2.667353102926     1.922403905674     0.636526565865     1.007825032070
           H         -2.301036102926     2.695111905674    -0.892249434135     1.007825032070
           H         -3.169939102926     1.174232905674    -0.865389434135     1.007825032070

  Nuclear repulsion =  252.119465851724044

  ==> Basis Set <==

  Basis Set: CC-PVTZ
    Number of shells: 138
    Number of basis function: 362
    Number of Cartesian functions: 405
    Spherical Harmonics?: true
    Max angular momentum: 3

  ==> DFJKGrad: Density-Fitted SCF Gradients <==

    Gradient:                    1
    J tasked:                  Yes
    K tasked:                  Yes
    wK tasked:                  No
    OpenMP threads:              4
    Integrals threads:           4
    Memory (MB):              1430
    Schwarz Cutoff:          0E+00
    Fitting Condition:       1E-12

   => Auxiliary Basis Set <=

  Basis Set: 
    Number of shells: 280
    Number of basis function: 864
    Number of Cartesian functions: 1031
    Spherical Harmonics?: true
    Max angular momentum: 4


  -Total Gradient:
     Atom            X                  Y                   Z
    ------   -----------------  -----------------  -----------------
       1        0.000060050506    -0.000057450127    -0.000054474220
       2        0.000757229783     0.000480776492    -0.000811240594
       3       -0.004503320109     0.001876227033     0.000598090264
       4       -0.000230699721     0.000242737239     0.000145654490
       5       -0.003213782350     0.003496791050     0.001674438541
       6       -0.003105248903     0.002976587042    -0.002259644513
       7       -0.000659955312    -0.000143732764    -0.000416107656
       8        0.003671602260    -0.002897045132    -0.002145177411
       9       -0.001646765027    -0.001004416960     0.000217857062
      10       -0.000074685030     0.000427513794     0.001827697718
      11        0.003953219622    -0.002805450862     0.000460516138
      12        0.000223180705    -0.001816556036     0.000716539829
      13       -0.000759137297    -0.000275329819    -0.001820957163
      14        0.000133435349     0.000787839782     0.000300907339
      15        0.004904961628    -0.000813543613     0.001288252237
      16        0.000390435088    -0.000387008574     0.000377364757
      17       -0.000010201104     0.000070583039    -0.000081732875
      18       -0.000019117615    -0.000053823809     0.000046390941
      19        0.000128797523    -0.000104697773    -0.000064374884


*** tstop() called on cx1-28-12-4 at Sat Sep 10 00:20:41 2016
Module time:
	user time   =      95.78 seconds =       1.60 minutes
	system time =       0.64 seconds =       0.01 minutes
	total time  =         25 seconds =       0.42 minutes
Total time:
	user time   =     147.15 seconds =       2.45 minutes
	system time =       1.36 seconds =       0.02 minutes
	total time  =         41 seconds =       0.68 minutes
CURRENT ENERGY: -251.4407401194

			-----------------------------------------
			 OPTKING 2.0: for geometry optimizations 
			  - R.A. King,  Bethel University        
			-----------------------------------------

	Internal coordinates to be generated automatically.
	Detected frag with atoms:  1 2 3 4 5 6 7 8 9 10 11 12 13 14 15 16 17 18 19
	---Fragment 1 Bond Connectivity---
	 1 : 2
	 2 : 1 3 4
	 3 : 2 5 6 7
	 4 : 2
	 5 : 3 8 9 10
	 6 : 3
	 7 : 3
	 8 : 5 11 12 13
	 9 : 5
	 10 : 5
	 11 : 8 14 15 16
	 12 : 8
	 13 : 8
	 14 : 11 17 18 19
	 15 : 11
	 16 : 11
	 17 : 14
	 18 : 14
	 19 : 14

	Assuming in current code that numbering for constraints corresponds to unified fragment.
	Frozen dihedral atom list: 
	    12     8     5     9
	---Fragment 1 Geometry and Gradient---
	 H           6.5480274676       -0.7543429457        0.2329929632
	 N           5.0393910656       -1.8845541307        0.2782934780
	 C           2.7144799015       -0.4266984493        0.4328617373
	 H           5.2308165434       -3.0082230838        1.7823945373
	 C           0.4149704362       -2.1501532490        0.3434398967
	 H           2.6667510886        0.8477668698       -1.1722149482
	 H           2.6158569844        0.7481953101        2.1238094680
	 C          -2.0837104944       -0.7168791251        0.4507668924
	 H           0.5092072990       -3.2752621734       -1.3682381297
	 H           0.5079052777       -3.4736739687        1.9149115824
	 C          -1.9854012718        1.8497903723       -0.8608277657
	 H          -2.6293632461       -0.4488460396        2.4141394322
	 H          -3.5657017579       -1.8544224475       -0.4058591917
	 C          -4.4833187530        3.2818059385       -0.7388553925
	 H          -0.5053091830        2.9888832701       -0.0083666380
	 H          -1.4475474198        1.5866119932       -2.8250223363
	 H          -5.0405668642        3.6328168985        1.2028608858
	 H          -4.3483280564        5.0930233992       -1.6861070727
	 H          -5.9903167625        2.2189786079       -1.6353490288
	             0.0000600505       -0.0000574501       -0.0000544742
	             0.0007572298        0.0004807765       -0.0008112406
	            -0.0045033201        0.0018762270        0.0005980903
	            -0.0002306997        0.0002427372        0.0001456545
	            -0.0032137823        0.0034967910        0.0016744385
	            -0.0031052489        0.0029765870       -0.0022596445
	            -0.0006599553       -0.0001437328       -0.0004161077
	             0.0036716023       -0.0028970451       -0.0021451774
	            -0.0016467650       -0.0010044170        0.0002178571
	            -0.0000746850        0.0004275138        0.0018276977
	             0.0039532196       -0.0028054509        0.0004605161
	             0.0002231807       -0.0018165560        0.0007165398
	            -0.0007591373       -0.0002753298       -0.0018209572
	             0.0001334353        0.0007878398        0.0003009073
	             0.0049049616       -0.0008135436        0.0012882522
	             0.0003904351       -0.0003870086        0.0003773648
	            -0.0000102011        0.0000705830       -0.0000817329
	            -0.0000191176       -0.0000538238        0.0000463909
	             0.0001287975       -0.0001046978       -0.0000643749

	Previous optimization step data not found.  Starting new optimization.

	---Fragment 1 Intrafragment Coordinates---
	 - Coordinate -           - BOHR/RAD -       - ANG/DEG -
	 R(1,2)           =         1.885580	       0.997806
	 R(2,3)           =         2.748535	       1.454462
	 R(2,4)           =         1.887219	       0.998673
	 R(3,5)           =         2.875072	       1.521422
	 R(3,6)           =         2.050076	       1.084854
	 R(3,7)           =         2.061409	       1.090851
	 R(5,8)           =         2.882568	       1.525390
	 R(5,9)           =         2.050510	       1.085083
	 R(5,10)          =         2.056664	       1.088340
	 R(8,11)          =         2.884049	       1.526173
	 R(8,12)          =         2.055337	       1.087638
	 R(8,13)          =         2.055264	       1.087599
	 R(11,14)         =         2.881864	       1.525017
	 R(11,15)         =         2.053021	       1.086412
	 R(11,16)         =         2.053439	       1.086633
	 R(14,17)         =         2.050365	       1.085006
	 R(14,18)         =         2.048418	       1.083976
	 R(14,19)         =         2.050450	       1.085052
	 B(1,2,3)         =         1.939278	     111.112432
	 B(1,2,4)         =         1.870125	     107.150290
	 B(2,3,5)         =         1.935673	     110.905878
	 B(2,3,6)         =         1.881158	     107.782430
	 B(2,3,7)         =         1.970240	     112.886412
	 B(3,2,4)         =         1.935627	     110.903271
	 B(3,5,8)         =         1.975861	     113.208506
	 B(3,5,9)         =         1.894543	     108.549311
	 B(3,5,10)        =         1.902712	     109.017390
	 B(5,3,6)         =         1.906766	     109.249661
	 B(5,3,7)         =         1.905936	     109.202113
	 B(5,8,11)        =         1.977978	     113.329818
	 B(5,8,12)        =         1.907666	     109.301209
	 B(5,8,13)        =         1.911682	     109.531338
	 B(6,3,7)         =         1.861682	     106.666512
	 B(8,5,9)         =         1.921695	     110.105005
	 B(8,5,10)        =         1.907837	     109.311008
	 B(8,11,14)       =         1.975155	     113.168064
	 B(8,11,15)       =         1.906593	     109.239707
	 B(8,11,16)       =         1.906971	     109.261392
	 B(9,5,10)        =         1.857351	     106.418373
	 B(11,8,12)       =         1.904367	     109.112196
	 B(11,8,13)       =         1.904559	     109.123187
	 B(11,14,17)      =         1.939836	     111.144425
	 B(11,14,18)      =         1.941932	     111.264485
	 B(11,14,19)      =         1.940106	     111.159881
	 B(12,8,13)       =         1.853439	     106.194231
	 B(14,11,15)      =         1.908805	     109.366454
	 B(14,11,16)      =         1.908374	     109.341785
	 B(15,11,16)      =         1.854022	     106.227649
	 B(17,14,18)      =         1.880174	     107.726062
	 B(17,14,19)      =         1.878677	     107.640235
	 B(18,14,19)      =         1.880280	     107.732130
	 D(1,2,3,5)       =         3.082657	     176.623224
	 D(1,2,3,6)       =         0.996168	      57.076242
	 D(1,2,3,7)       =        -1.055235	     -60.460523
	 D(2,3,5,8)       =        -3.123314	    -178.952739
	 D(2,3,5,9)       =        -0.984006	     -56.379389
	 D(2,3,5,10)      =         1.032394	      59.151842
	 D(3,5,8,11)      =         0.587001	      33.632704
	 D(3,5,8,12)      =        -1.541042	     -88.295177
	 D(3,5,8,13)      =         2.718220	     155.742511
	 D(4,2,3,5)       =        -1.122413	     -64.309515
	 D(4,2,3,6)       =         3.074284	     176.143503
	 D(4,2,3,7)       =         1.022881	      58.606739
	 D(5,8,11,14)     =        -3.136969	    -179.735061
	 D(5,8,11,15)     =        -1.005929	     -57.635501
	 D(5,8,11,16)     =         1.015456	      58.181329
	 D(6,3,5,8)       =        -1.052232	     -60.288429
	 D(6,3,5,9)       =         1.087077	      62.284921
	 D(6,3,5,10)      =         3.103477	     177.816152
	 D(7,3,5,8)       =         0.977846	      56.026444
	 D(7,3,5,9)       =         3.117154	     178.599794
	 D(7,3,5,10)      =        -1.149630	     -65.868975
	 D(8,11,14,17)    =         1.046154	      59.940196
	 D(8,11,14,18)    =         3.141483	     179.993717
	 D(8,11,14,19)    =        -1.046057	     -59.934665
	 D(9,5,8,11)      =        -1.537149	     -88.072126
	*D(9,5,8,12)      =         2.617994	     149.999993
	 D(9,5,8,13)      =         0.594070	      34.037681
	 D(10,5,8,11)     =         2.711607	     155.363629
	 D(10,5,8,12)     =         0.583564	      33.435748
	 D(10,5,8,13)     =        -1.440360	     -82.526564
	 D(12,8,11,14)    =        -1.007085	     -57.701724
	 D(12,8,11,15)    =         1.123954	      64.397836
	 D(12,8,11,16)    =        -3.137846	    -179.785335
	 D(13,8,11,14)    =         1.011035	      57.928018
	 D(13,8,11,15)    =        -3.141111	    -179.972422
	 D(13,8,11,16)    =        -1.119726	     -64.155592
	 D(15,11,14,17)   =        -1.083649	     -62.088496
	 D(15,11,14,18)   =         1.011681	      57.965026
	 D(15,11,14,19)   =         3.107326	     178.036643
	 D(16,11,14,17)   =        -3.107055	    -178.021146
	 D(16,11,14,18)   =        -1.011726	     -57.967624
	 D(16,11,14,19)   =         1.083919	      62.103993

	Current energy   :      -251.4407401194

	Generating empirical Hessian (Schlegel '84) for each fragment.
	Taking RFO optimization step.
	Going to follow RFO solution 1.
	Using RFO vector 1.
	Norm of target step-size    0.43114
	Projected energy change by RFO approximation:        -0.0143873916

	Back-transformation to cartesian coordinates...
	Successfully converged to displaced geometry.

	Back-transformation to cartesian coordinates to adjust frozen coordinates...
	Successfully converged to displaced geometry.

	--- Internal Coordinate Step in ANG or DEG, aJ/ANG or AJ/DEG ---
	 ---------------------------------------------------------------------------
	   Coordinate                Previous        Force       Change         New 
	   ----------                --------       ------       ------       ------
	    1 R(1,2)          =      0.997806    -0.000123    -0.000016     0.997790
	    2 R(2,3)          =      1.454462    -0.001511    -0.000251     1.454212
	    3 R(2,4)          =      0.998673     0.000427     0.000056     0.998729
	    4 R(3,5)          =      1.521422     0.024790     0.005090     1.526513
	    5 R(3,6)          =      1.084854    -0.030416    -0.005358     1.079496
	    6 R(3,7)          =      1.090851     0.003227     0.000580     1.091430
	    7 R(5,8)          =      1.525390     0.124369     0.025848     1.551238
	    8 R(5,9)          =      1.085083    -0.002419    -0.000426     1.084657
	    9 R(5,10)         =      1.088340    -0.009211    -0.001641     1.086699
	   10 R(8,11)         =      1.526173     0.030298     0.006312     1.532485
	   11 R(8,12)         =      1.087638    -0.003199    -0.000569     1.087069
	   12 R(8,13)         =      1.087599    -0.012018    -0.002136     1.085463
	   13 R(11,14)        =      1.525017    -0.001272    -0.000264     1.524753
	   14 R(11,15)        =      1.086412    -0.029822    -0.005279     1.081133
	   15 R(11,16)        =      1.086633     0.001723     0.000305     1.086938
	   16 R(14,17)        =      1.085006     0.000515     0.000091     1.085097
	   17 R(14,18)        =      1.083976     0.000579     0.000102     1.084078
	   18 R(14,19)        =      1.085052     0.000101     0.000018     1.085069
	   19 B(1,2,3)        =    111.112432    -0.000016    -0.048051   111.064381
	   20 B(1,2,4)        =    107.150290    -0.000008     0.010732   107.161022
	   21 B(2,3,5)        =    110.905878    -0.000203    -0.797405   110.108472
	   22 B(2,3,6)        =    107.782430    -0.000067    -0.626188   107.156242
	   23 B(2,3,7)        =    112.886412     0.000012    -0.451575   112.434837
	   24 B(3,2,4)        =    110.903271     0.000044     0.218467   111.121738
	   25 B(3,5,8)        =    113.208506     0.001559     5.835998   119.044504
	   26 B(3,5,9)        =    108.549311    -0.000544    -0.139380   108.409931
	   27 B(3,5,10)       =    109.017390    -0.000584    -2.551828   106.465561
	   28 B(5,3,6)        =    109.249661     0.000209     1.294633   110.544294
	   29 B(5,3,7)        =    109.202113     0.000075     0.278245   109.480359
	   30 B(5,8,11)       =    113.329818     0.001631     6.071064   119.400882
	   31 B(5,8,12)       =    109.301209    -0.000334     0.078728   109.379936
	   32 B(5,8,13)       =    109.531338    -0.000539    -2.729975   106.801363
	   33 B(6,3,7)        =    106.666512    -0.000011     0.387506   107.054018
	   34 B(8,5,9)        =    110.105005    -0.000331    -0.080898   110.024108
	   35 B(8,5,10)       =    109.311008    -0.000459    -2.239218   107.071790
	   36 B(8,11,14)      =    113.168064    -0.000193    -0.762185   112.405879
	   37 B(8,11,15)      =    109.239707     0.000220     1.376856   110.616563
	   38 B(8,11,16)      =    109.261392     0.000068     0.284631   109.546023
	   39 B(9,5,10)       =    106.418373     0.000282    -1.557098   104.861275
	   40 B(11,8,12)      =    109.112196    -0.000561    -0.110010   109.002186
	   41 B(11,8,13)      =    109.123187    -0.000577    -2.532111   106.591077
	   42 B(11,14,17)     =    111.144425    -0.000011    -0.058519   111.085906
	   43 B(11,14,18)     =    111.264485    -0.000003    -0.010706   111.253779
	   44 B(11,14,19)     =    111.159881     0.000021     0.097632   111.257513
	   45 B(12,8,13)      =    106.194231     0.000297    -1.564816   104.629416
	   46 B(14,11,15)     =    109.366454    -0.000097    -0.836017   108.530437
	   47 B(14,11,16)     =    109.341785     0.000015    -0.438238   108.903548
	   48 B(15,11,16)     =    106.227649    -0.000001     0.429766   106.657415
	   49 B(17,14,18)     =    107.726062     0.000005     0.011409   107.737471
	   50 B(17,14,19)     =    107.640235    -0.000006    -0.034085   107.606150
	   51 B(18,14,19)     =    107.732130    -0.000006    -0.007522   107.724609
	   52 D(1,2,3,5)      =    176.623224     0.000011     0.570389   177.193614
	   53 D(1,2,3,6)      =     57.076242    -0.000011    -0.156912    56.919330
	   54 D(1,2,3,7)      =    -60.460523     0.000000     0.023352   -60.437171
	   55 D(2,3,5,8)      =   -178.952739    -0.000024    -4.356706  -183.309445
	   56 D(2,3,5,9)      =    -56.379389     0.000029    -0.229263   -56.608652
	   57 D(2,3,5,10)     =     59.151842    -0.000034    -3.411324    55.740518
	   58 D(3,5,8,11)     =     33.632704     0.000066     8.772662    42.405366
	   59 D(3,5,8,12)     =    -88.295177     0.000032     4.230470   -84.064708
	   60 D(3,5,8,13)     =    155.742511     0.000063     7.493944   163.236455
	   61 D(4,2,3,5)      =    -64.309515     0.000013     0.695623   -63.613892
	   62 D(4,2,3,6)      =    176.143503    -0.000009    -0.031679   176.111824
	   63 D(4,2,3,7)      =     58.606739     0.000002     0.148586    58.755324
	   64 D(5,8,11,14)    =   -179.735061    -0.000029    -4.955974  -184.691034
	   65 D(5,8,11,15)    =    -57.635501    -0.000051    -5.563020   -63.198520
	   66 D(5,8,11,16)    =     58.181329    -0.000014    -4.086146    54.095183
	   67 D(6,3,5,8)      =    -60.288429    -0.000041    -4.813319   -65.101747
	   68 D(6,3,5,9)      =     62.284921     0.000012    -0.685875    61.599047
	   69 D(6,3,5,10)     =    177.816152    -0.000051    -3.867936   173.948216
	   70 D(7,3,5,8)      =     56.026444    -0.000008    -3.432473    52.593971
	   71 D(7,3,5,9)      =    178.599794     0.000046     0.694971   179.294765
	   72 D(7,3,5,10)     =    -65.868975    -0.000017    -2.487090   -68.356066
	   73 D(8,11,14,17)   =     59.940196     0.000009     0.364414    60.304610
	   74 D(8,11,14,18)   =    179.993717     0.000008     0.332302   180.326020
	   75 D(8,11,14,19)   =    -59.934665     0.000009     0.381418   -59.553247
	   76 D(9,5,8,11)     =    -88.072126     0.000034     4.542193   -83.529934
	   77 *D(9,5,8,12)    =    149.999993     0.000000    -0.000000   149.999993
	   78 D(9,5,8,13)     =     34.037681     0.000031     3.263474    37.301155
	   79 D(10,5,8,11)    =    155.363629     0.000061     7.685302   163.048931
	   80 D(10,5,8,12)    =     33.435748     0.000027     3.143110    36.578857
	   81 D(10,5,8,13)    =    -82.526564     0.000058     6.406583   -76.119980
	   82 D(12,8,11,14)   =    -57.701724     0.000034    -0.341930   -58.043655
	   83 D(12,8,11,15)   =     64.397836     0.000012    -0.948976    63.448859
	   84 D(12,8,11,16)   =   -179.785335     0.000048     0.527898  -179.257437
	   85 D(13,8,11,14)   =     57.928018    -0.000029    -3.555597    54.372421
	   86 D(13,8,11,15)   =   -179.972422    -0.000051    -4.162643  -184.135065
	   87 D(13,8,11,16)   =    -64.155592    -0.000014    -2.685770   -66.841362
	   88 D(15,11,14,17)  =    -62.088496    -0.000010    -0.282674   -62.371170
	   89 D(15,11,14,18)  =     57.965026    -0.000010    -0.314785    57.650241
	   90 D(15,11,14,19)  =    178.036643    -0.000009    -0.265670   177.770974
	   91 D(16,11,14,17)  =   -178.021146     0.000001    -0.093376  -178.114522
	   92 D(16,11,14,18)  =    -57.967624     0.000001    -0.125488   -58.093112
	   93 D(16,11,14,19)  =     62.103993     0.000001    -0.076372    62.027621
	 ---------------------------------------------------------------------------

  ==> Convergence Check <==

  Measures of convergence in internal coordinates in au.
  Criteria marked as inactive (o), active & met (*), and active & unmet ( ).
  --------------------------------------------------------------------------------------------- ~
   Step     Total Energy     Delta E     MAX Force     RMS Force      MAX Disp      RMS Disp    ~
  --------------------------------------------------------------------------------------------- ~
    Convergence Criteria    1.00e-06 *    3.00e-04 *             o    1.20e-03 *             o  ~
  --------------------------------------------------------------------------------------------- ~
      1    -251.44074012   -2.51e+02      2.14e-02      4.28e-03 o    1.53e-01      4.47e-02 o  ~
  ---------------------------------------------------------------------------------------------

	Writing optimization data to binary file.
	Structure for next step:
	Cartesian Geometry (in Angstrom)
	    H     3.6069286333  -0.7227713879   0.2443227676
	    N     2.7337662257  -1.2047740267   0.2152357965
	    C     1.6197257732  -0.2707394926   0.2502377239
	    H     2.7112443491  -1.8213879891   1.0005639902
	    C     0.2980279143  -1.0257373717   0.1347648885
	    H     1.7441936924   0.4046903637  -0.5825970143
	    H     1.6138545672   0.3367740121   1.1569419594
	    C    -1.0324359077  -0.2335746375   0.2279478561
	    H     0.3175304476  -1.6130324279  -0.7769286237
	    H     0.2903303934  -1.7578466031   0.9378038209
	    C    -1.1616993146   1.1082814739  -0.5009028946
	    H    -1.2977130554  -0.0956792047   1.2730946638
	    H    -1.8099797380  -0.8783238189  -0.1694872174
	    C    -2.5661520890   1.6928431478  -0.3976056164
	    H    -0.4599981197   1.8274255968  -0.1017851993
	    H    -0.9109444168   0.9776830535  -1.5504268803
	    H    -2.8405582158   1.8689382450   0.6373474711
	    H    -2.6381230047   2.6379359304  -0.9237662033
	    H    -3.3042433259   1.0208475167  -0.8230685183
			--------------------------
			 OPTKING Finished Execution 
			--------------------------

    Structure for next step:
    Molecular point group: c1
    Full point group: C1

    Geometry (in Angstrom), charge = 0, multiplicity = 1:

    H            3.593496829981    -0.729483827421     0.245335309885
    N            2.720334489037    -1.211486429375     0.216248341074
    C            1.606294121643    -0.277451966640     0.251250265792
    H            2.697812614175    -1.828100344689     1.001576474820
    C            0.284596363605    -1.032449788005     0.135777439145
    H            1.730762031291     0.397977838075    -0.581584408780
    H            1.600422916079     0.330061491750     1.157954432010
    C           -1.045867356749    -0.240287114332     0.228960399656
    H            0.304098895488    -1.619744799397    -0.775916003348
    H            0.276898843288    -1.764558963518     0.938816310228
    C           -1.175130753739     1.101568894584    -0.499890295332
    H           -1.311144484182    -0.102391692045     1.274107127586
    H           -1.823411127634    -0.885036246495    -0.168474643428
    C           -2.579583420933     1.686130523808    -0.396593025018
    H           -0.473429612462     1.820712962540    -0.100772630553
    H           -0.924375875098     0.970970484195    -1.549414200879
    H           -2.853989526745     1.862225607611     0.638359983452
    H           -2.651554331181     2.631223234284    -0.922753571792
    H           -3.317674601455     1.014134944037    -0.822055894430

gradient() will perform analytic gradient computation.

*** tstart() called on cx1-28-12-4
*** at Sat Sep 10 00:20:42 2016


         ---------------------------------------------------------
                                   SCF
            by Justin Turney, Rob Parrish, and Andy Simmonett
                              RHF Reference
                        4 Threads,   2000 MiB Core
         ---------------------------------------------------------

  ==> Geometry <==

    Molecular point group: c1
    Full point group: C1

    Geometry (in Angstrom), charge = 0, multiplicity = 1:

       Center              X                  Y                   Z               Mass       
    ------------   -----------------  -----------------  -----------------  -----------------
           H          3.593496829981    -0.729483827421     0.245335309885     1.007825032070
           N          2.720334489037    -1.211486429375     0.216248341074    14.003074004780
           C          1.606294121643    -0.277451966640     0.251250265792    12.000000000000
           H          2.697812614175    -1.828100344689     1.001576474820     1.007825032070
           C          0.284596363605    -1.032449788005     0.135777439145    12.000000000000
           H          1.730762031291     0.397977838075    -0.581584408780     1.007825032070
           H          1.600422916079     0.330061491750     1.157954432010     1.007825032070
           C         -1.045867356749    -0.240287114332     0.228960399656    12.000000000000
           H          0.304098895488    -1.619744799397    -0.775916003348     1.007825032070
           H          0.276898843288    -1.764558963518     0.938816310228     1.007825032070
           C         -1.175130753739     1.101568894584    -0.499890295332    12.000000000000
           H         -1.311144484182    -0.102391692045     1.274107127586     1.007825032070
           H         -1.823411127634    -0.885036246495    -0.168474643428     1.007825032070
           C         -2.579583420933     1.686130523808    -0.396593025018    12.000000000000
           H         -0.473429612462     1.820712962540    -0.100772630553     1.007825032070
           H         -0.924375875098     0.970970484195    -1.549414200879     1.007825032070
           H         -2.853989526745     1.862225607611     0.638359983452     1.007825032070
           H         -2.651554331181     2.631223234284    -0.922753571792     1.007825032070
           H         -3.317674601455     1.014134944037    -0.822055894430     1.007825032070

  Running in c1 symmetry.

  Rotational constants: A =      0.36664  B =      0.04264  C =      0.03999 [cm^-1]
  Rotational constants: A =  10991.55184  B =   1278.35626  C =   1198.85288 [MHz]
  Nuclear repulsion =  247.615251880344914

  Charge       = 0
  Multiplicity = 1
  Electrons    = 50
  Nalpha       = 25
  Nbeta        = 25

  ==> Algorithm <==

  SCF Algorithm Type is DF.
  DIIS enabled.
  MOM disabled.
  Fractional occupation disabled.
  Guess Type is READ.
  Energy threshold   = 1.00e-08
  Density threshold  = 1.00e-08
  Integral threshold = 0.00e+00

  ==> Primary Basis <==

  Basis Set: CC-PVTZ
    Number of shells: 138
    Number of basis function: 362
    Number of Cartesian functions: 405
    Spherical Harmonics?: true
    Max angular momentum: 3

  ==> Pre-Iterations <==

   -------------------------------------------------------
    Irrep   Nso     Nmo     Nalpha   Nbeta   Ndocc  Nsocc
   -------------------------------------------------------
     A        362     362       0       0       0       0
   -------------------------------------------------------
    Total     362     362      25      25      25       0
   -------------------------------------------------------

 OEINTS: Overlap, kinetic, potential, dipole, and quadrupole integrals
         stored in file 35.

  ==> Integral Setup <==

  ==> DFJK: Density-Fitted J/K Matrices <==

    J tasked:                  Yes
    K tasked:                  Yes
    wK tasked:                  No
    OpenMP threads:              4
    Integrals threads:           4
    Memory (MB):              1430
    Algorithm:                Core
    Integral Cache:           NONE
    Schwarz Cutoff:          1E-12
    Fitting Condition:       1E-12

   => Auxiliary Basis Set <=

  Basis Set: 
    Number of shells: 280
    Number of basis function: 864
    Number of Cartesian functions: 1031
    Spherical Harmonics?: true
    Max angular momentum: 4

  Minimum eigenvalue in the overlap matrix is 3.7889900553E-04.
  Using Symmetric Orthogonalization.
  SCF Guess: Reading in previously saved MOs, projecting if necessary.

  Using orbitals from previous SCF, no projection.
  Recomputing DOCC and SOCC from number of alpha and beta electrons from previous calculation.
              A 
    DOCC [    25 ]

  ==> Iterations <==

                           Total Energy        Delta E     RMS |[F,P]|

   @DF-RHF iter   0:  -251.36773704152395   -2.51368e+02   7.85524e-04 
   @DF-RHF iter   1:  -251.43941740991156   -7.16804e-02   1.56470e-04 
   @DF-RHF iter   2:  -251.44186430023379   -2.44689e-03   5.69076e-05 DIIS
   @DF-RHF iter   3:  -251.44215807734017   -2.93777e-04   2.38512e-05 DIIS
   @DF-RHF iter   4:  -251.44220991637312   -5.18390e-05   2.84406e-06 DIIS
   @DF-RHF iter   5:  -251.44221092321808   -1.00684e-06   1.13438e-06 DIIS
   @DF-RHF iter   6:  -251.44221107782622   -1.54608e-07   2.60670e-07 DIIS
   @DF-RHF iter   7:  -251.44221108930836   -1.14821e-08   7.55302e-08 DIIS
   @DF-RHF iter   8:  -251.44221109016465   -8.56289e-10   2.40473e-08 DIIS
   @DF-RHF iter   9:  -251.44221109026560   -1.00954e-10   7.22082e-09 DIIS

  ==> Post-Iterations <==

    Orbital Energies (a.u.)
    -----------------------

    Doubly Occupied:                                                      

       1A    -15.526687     2A    -11.238169     3A    -11.213330  
       4A    -11.212596     5A    -11.210386     6A    -11.206327  
       7A     -1.178519     8A     -1.069251     9A     -0.996608  
      10A     -0.902089    11A     -0.832809    12A     -0.772016  
      13A     -0.664972    14A     -0.638526    15A     -0.615732  
      16A     -0.591012    17A     -0.571653    18A     -0.549919  
      19A     -0.527057    20A     -0.499890    21A     -0.490752  
      22A     -0.459395    23A     -0.455932    24A     -0.448585  
      25A     -0.383705  

    Virtual:                                                              

      26A      0.139633    27A      0.150419    28A      0.163844  
      29A      0.172948    30A      0.178993    31A      0.202199  
      32A      0.222409    33A      0.231223    34A      0.233798  
      35A      0.243125    36A      0.246719    37A      0.264196  
      38A      0.274782    39A      0.317590    40A      0.348833  
      41A      0.352594    42A      0.363150    43A      0.369968  
      44A      0.413517    45A      0.419537    46A      0.434340  
      47A      0.455097    48A      0.466892    49A      0.482791  
      50A      0.498680    51A      0.520257    52A      0.536520  
      53A      0.559398    54A      0.582603    55A      0.584075  
      56A      0.602072    57A      0.608760    58A      0.615803  
      59A      0.626558    60A      0.635567    61A      0.641783  
      62A      0.649491    63A      0.656778    64A      0.662445  
      65A      0.676402    66A      0.683775    67A      0.699848  
      68A      0.703998    69A      0.707622    70A      0.715010  
      71A      0.725100    72A      0.740853    73A      0.752045  
      74A      0.774518    75A      0.784534    76A      0.815279  
      77A      0.842592    78A      0.879372    79A      0.905337  
      80A      0.916626    81A      0.932514    82A      0.940017  
      83A      0.977839    84A      1.004191    85A      1.016672  
      86A      1.023938    87A      1.031092    88A      1.068546  
      89A      1.090259    90A      1.112007    91A      1.116124  
      92A      1.135819    93A      1.166559    94A      1.195908  
      95A      1.200577    96A      1.224558    97A      1.242866  
      98A      1.252229    99A      1.269831   100A      1.291907  
     101A      1.292415   102A      1.305007   103A      1.315842  
     104A      1.327517   105A      1.332207   106A      1.340771  
     107A      1.362964   108A      1.378990   109A      1.388836  
     110A      1.400972   111A      1.408984   112A      1.427116  
     113A      1.435776   114A      1.441377   115A      1.455667  
     116A      1.469245   117A      1.482091   118A      1.497916  
     119A      1.515911   120A      1.517510   121A      1.540684  
     122A      1.554824   123A      1.563840   124A      1.568174  
     125A      1.583616   126A      1.614376   127A      1.620224  
     128A      1.647040   129A      1.656916   130A      1.674750  
     131A      1.699770   132A      1.731509   133A      1.737564  
     134A      1.749302   135A      1.769313   136A      1.772329  
     137A      1.817443   138A      1.833461   139A      1.837149  
     140A      1.839975   141A      1.855084   142A      1.892793  
     143A      1.916566   144A      1.956942   145A      1.977872  
     146A      2.023209   147A      2.049318   148A      2.075187  
     149A      2.158351   150A      2.530696   151A      2.567529  
     152A      2.598653   153A      2.621549   154A      2.659461  
     155A      2.676716   156A      2.689099   157A      2.712904  
     158A      2.726669   159A      2.744335   160A      2.763571  
     161A      2.773989   162A      2.792138   163A      2.829542  
     164A      2.848623   165A      2.858190   166A      2.870918  
     167A      2.877129   168A      2.919888   169A      2.934474  
     170A      2.993558   171A      3.003385   172A      3.004829  
     173A      3.026552   174A      3.032349   175A      3.062233  
     176A      3.086253   177A      3.096312   178A      3.125921  
     179A      3.132210   180A      3.156801   181A      3.182399  
     182A      3.189273   183A      3.196375   184A      3.214641  
     185A      3.241921   186A      3.256894   187A      3.258459  
     188A      3.279424   189A      3.308131   190A      3.313926  
     191A      3.341474   192A      3.358887   193A      3.384585  
     194A      3.389985   195A      3.396194   196A      3.400741  
     197A      3.417714   198A      3.422044   199A      3.431765  
     200A      3.437066   201A      3.454889   202A      3.467171  
     203A      3.470047   204A      3.485505   205A      3.503866  
     206A      3.522872   207A      3.529438   208A      3.558315  
     209A      3.578471   210A      3.581151   211A      3.591243  
     212A      3.598716   213A      3.630797   214A      3.637660  
     215A      3.645648   216A      3.664270   217A      3.678529  
     218A      3.702135   219A      3.745473   220A      3.752212  
     221A      3.762666   222A      3.784283   223A      3.791902  
     224A      3.807307   225A      3.825803   226A      3.834922  
     227A      3.862255   228A      3.869399   229A      3.883413  
     230A      3.894171   231A      3.900314   232A      3.911756  
     233A      3.950368   234A      3.954094   235A      3.973576  
     236A      3.987461   237A      4.012889   238A      4.014810  
     239A      4.042203   240A      4.058103   241A      4.067786  
     242A      4.096204   243A      4.104521   244A      4.124468  
     245A      4.132575   246A      4.154723   247A      4.164714  
     248A      4.176448   249A      4.195929   250A      4.198836  
     251A      4.203618   252A      4.228827   253A      4.238073  
     254A      4.260892   255A      4.272184   256A      4.278990  
     257A      4.284234   258A      4.301488   259A      4.318894  
     260A      4.322645   261A      4.326471   262A      4.347170  
     263A      4.366133   264A      4.394763   265A      4.420447  
     266A      4.426798   267A      4.449852   268A      4.451410  
     269A      4.470377   270A      4.490475   271A      4.492765  
     272A      4.510406   273A      4.519941   274A      4.529710  
     275A      4.554938   276A      4.578433   277A      4.584359  
     278A      4.600065   279A      4.628803   280A      4.634507  
     281A      4.645700   282A      4.664418   283A      4.676566  
     284A      4.685562   285A      4.699842   286A      4.722937  
     287A      4.741671   288A      4.761779   289A      4.774322  
     290A      4.817103   291A      4.847345   292A      4.871019  
     293A      4.890713   294A      4.899533   295A      4.916130  
     296A      4.982975   297A      5.003223   298A      5.045167  
     299A      5.069199   300A      5.077409   301A      5.100437  
     302A      5.123941   303A      5.174668   304A      5.192819  
     305A      5.220814   306A      5.235402   307A      5.247183  
     308A      5.275758   309A      5.296969   310A      5.316401  
     311A      5.340206   312A      5.358413   313A      5.373774  
     314A      5.378207   315A      5.398632   316A      5.435559  
     317A      5.449271   318A      5.495914   319A      5.507527  
     320A      5.554063   321A      5.567121   322A      5.604314  
     323A      5.618964   324A      5.639218   325A      5.655589  
     326A      5.701689   327A      5.728827   328A      5.748885  
     329A      5.761516   330A      5.793347   331A      5.808100  
     332A      5.846667   333A      5.862841   334A      5.875228  
     335A      5.908912   336A      5.918372   337A      5.935673  
     338A      5.962505   339A      5.992640   340A      6.018844  
     341A      6.039763   342A      6.052600   343A      6.112742  
     344A      6.150011   345A      6.274844   346A      6.317949  
     347A      6.330440   348A      6.335638   349A      6.355951  
     350A      6.394953   351A      6.413749   352A      6.487900  
     353A      6.526482   354A      6.623604   355A      6.727415  
     356A      7.377036   357A     12.850480   358A     13.175023  
     359A     13.505320   360A     13.753568   361A     14.042573  
     362A     14.245056  

    Final Occupation by Irrep:
              A 
    DOCC [    25 ]

  Energy converged.

  @DF-RHF Final Energy:  -251.44221109026560

   => Energetics <=

    Nuclear Repulsion Energy =            247.6152518803449141
    One-Electron Energy =                -829.6030906127793969
    Two-Electron Energy =                 330.5456276421688244
    DFT Exchange-Correlation Energy =       0.0000000000000000
    Empirical Dispersion Energy =           0.0000000000000000
    PCM Polarization Energy =               0.0000000000000000
    EFP Energy =                            0.0000000000000000
    Total Energy =                       -251.4422110902656868

    Alert: EFP and PCM quantities not currently incorporated into SCF psivars.

Properties will be evaluated at   0.000000,   0.000000,   0.000000 Bohr
  ==> Properties <==


Properties computed using the SCF density matrix

  Nuclear Dipole Moment: (a.u.)
     X:    -2.9629      Y:     1.9703      Z:     0.3136

  Electronic Dipole Moment: (a.u.)
     X:     3.0270      Y:    -1.7198      Z:     0.0913

  Dipole Moment: (a.u.)
     X:     0.0641      Y:     0.2505      Z:     0.4049     Total:     0.4804

  Dipole Moment: (Debye)
     X:     0.1630      Y:     0.6366      Z:     1.0292     Total:     1.2211


  Saving occupied orbitals to File 180.

*** tstop() called on cx1-28-12-4 at Sat Sep 10 00:20:55 2016
Module time:
	user time   =      41.09 seconds =       0.68 minutes
	system time =       0.54 seconds =       0.01 minutes
	total time  =         13 seconds =       0.22 minutes
Total time:
	user time   =     189.83 seconds =       3.16 minutes
	system time =       1.96 seconds =       0.03 minutes
	total time  =         55 seconds =       0.92 minutes

*** tstart() called on cx1-28-12-4
*** at Sat Sep 10 00:20:55 2016


         ------------------------------------------------------------
                                   SCF GRAD                          
                          Rob Parrish, Justin Turney,                
                       Andy Simmonett, and Alex Sokolov              
         ------------------------------------------------------------

  ==> Geometry <==

    Molecular point group: c1
    Full point group: C1

    Geometry (in Angstrom), charge = 0, multiplicity = 1:

       Center              X                  Y                   Z               Mass       
    ------------   -----------------  -----------------  -----------------  -----------------
           H          3.593496829981    -0.729483827421     0.245335309885     1.007825032070
           N          2.720334489037    -1.211486429375     0.216248341074    14.003074004780
           C          1.606294121643    -0.277451966640     0.251250265792    12.000000000000
           H          2.697812614175    -1.828100344689     1.001576474820     1.007825032070
           C          0.284596363605    -1.032449788005     0.135777439145    12.000000000000
           H          1.730762031291     0.397977838075    -0.581584408780     1.007825032070
           H          1.600422916079     0.330061491750     1.157954432010     1.007825032070
           C         -1.045867356749    -0.240287114332     0.228960399656    12.000000000000
           H          0.304098895488    -1.619744799397    -0.775916003348     1.007825032070
           H          0.276898843288    -1.764558963518     0.938816310228     1.007825032070
           C         -1.175130753739     1.101568894584    -0.499890295332    12.000000000000
           H         -1.311144484182    -0.102391692045     1.274107127586     1.007825032070
           H         -1.823411127634    -0.885036246495    -0.168474643428     1.007825032070
           C         -2.579583420933     1.686130523808    -0.396593025018    12.000000000000
           H         -0.473429612462     1.820712962540    -0.100772630553     1.007825032070
           H         -0.924375875098     0.970970484195    -1.549414200879     1.007825032070
           H         -2.853989526745     1.862225607611     0.638359983452     1.007825032070
           H         -2.651554331181     2.631223234284    -0.922753571792     1.007825032070
           H         -3.317674601455     1.014134944037    -0.822055894430     1.007825032070

  Nuclear repulsion =  247.615251880344914

  ==> Basis Set <==

  Basis Set: CC-PVTZ
    Number of shells: 138
    Number of basis function: 362
    Number of Cartesian functions: 405
    Spherical Harmonics?: true
    Max angular momentum: 3

  ==> DFJKGrad: Density-Fitted SCF Gradients <==

    Gradient:                    1
    J tasked:                  Yes
    K tasked:                  Yes
    wK tasked:                  No
    OpenMP threads:              4
    Integrals threads:           4
    Memory (MB):              1430
    Schwarz Cutoff:          0E+00
    Fitting Condition:       1E-12

   => Auxiliary Basis Set <=

  Basis Set: 
    Number of shells: 280
    Number of basis function: 864
    Number of Cartesian functions: 1031
    Spherical Harmonics?: true
    Max angular momentum: 4


  -Total Gradient:
     Atom            X                  Y                   Z
    ------   -----------------  -----------------  -----------------
       1        0.000177306839    -0.000120495433     0.000136219015
       2        0.000383061185     0.001456757951     0.000125116317
       3        0.003929805160    -0.002532224761    -0.002659714242
       4        0.000143289296    -0.000135072263     0.000000534275
       5        0.002955021327     0.000624076350     0.000048847785
       6        0.001031811777    -0.002555289994     0.001983567599
       7        0.000792945318    -0.000715104998     0.000466996241
       8       -0.000557173525     0.002535502259    -0.000750248179
       9       -0.000767580024    -0.003166548357     0.002091107608
      10        0.002273172080     0.001248720715    -0.000080649756
      11       -0.003949317897     0.003839773440     0.001890315099
      12       -0.002752643912    -0.002847767683    -0.000364150848
      13       -0.000145017631     0.002465553915    -0.000990981916
      14        0.001054274205     0.000961174427    -0.000767155115
      15       -0.003304782335    -0.001115015303    -0.000885786354
      16       -0.000963268799     0.000030394178    -0.000194224930
      17        0.000108151274    -0.000056451561    -0.000012325791
      18       -0.000344117482     0.000123182817    -0.000051826450
      19       -0.000064936861    -0.000041165698     0.000014359642


*** tstop() called on cx1-28-12-4 at Sat Sep 10 00:21:20 2016
Module time:
	user time   =      94.88 seconds =       1.58 minutes
	system time =       0.64 seconds =       0.01 minutes
	total time  =         25 seconds =       0.42 minutes
Total time:
	user time   =     284.73 seconds =       4.75 minutes
	system time =       2.60 seconds =       0.04 minutes
	total time  =         80 seconds =       1.33 minutes
CURRENT ENERGY: -251.4422110903

			-----------------------------------------
			 OPTKING 2.0: for geometry optimizations 
			  - R.A. King,  Bethel University        
			-----------------------------------------

	Previous internal coordinate definitions found.
	---Fragment 1 Geometry and Gradient---
	 H           6.7907248681       -1.3785246522        0.4636165464
	 N           5.1406871741       -2.2893775652        0.4086501413
	 C           3.0354559788       -0.5243082320        0.4747941932
	 H           5.0981269986       -3.4546089949        1.8927052386
	 C           0.5378091856       -1.9510473453        0.2565821750
	 H           3.2706662403        0.7520691209       -1.0990352557
	 H           3.0243610082        0.6237258264        2.1882167509
	 C          -1.9764028756       -0.4540768393        0.4326724506
	 H           0.5746636298       -3.0608740760       -1.4662687485
	 H           0.5232629803       -3.3345331864        1.7741057154
	 C          -2.2206752949        2.0816635273       -0.9446557547
	 H          -2.4777039957       -0.1934922562        2.4077135351
	 H          -3.4457476589       -1.6724761236       -0.3183709364
	 C          -4.8747062025        3.1863249143       -0.7494522035
	 H          -0.8946523108        3.4406488658       -0.1904326734
	 H          -1.7468172478        1.8348682982       -2.9279685061
	 H          -5.3932585917        3.5190963960        1.2063255429
	 H          -5.0107115124        4.9722913073       -1.7437515388
	 H          -6.2694963948        1.9164373060       -1.5534605064
	             0.0001773068       -0.0001204954        0.0001362190
	             0.0003830612        0.0014567580        0.0001251163
	             0.0039298052       -0.0025322248       -0.0026597142
	             0.0001432893       -0.0001350723        0.0000005343
	             0.0029550213        0.0006240764        0.0000488478
	             0.0010318118       -0.0025552900        0.0019835676
	             0.0007929453       -0.0007151050        0.0004669962
	            -0.0005571735        0.0025355023       -0.0007502482
	            -0.0007675800       -0.0031665484        0.0020911076
	             0.0022731721        0.0012487207       -0.0000806498
	            -0.0039493179        0.0038397734        0.0018903151
	            -0.0027526439       -0.0028477677       -0.0003641508
	            -0.0001450176        0.0024655539       -0.0009909819
	             0.0010542742        0.0009611744       -0.0007671551
	            -0.0033047823       -0.0011150153       -0.0008857864
	            -0.0009632688        0.0000303942       -0.0001942249
	             0.0001081513       -0.0000564516       -0.0000123258
	            -0.0003441175        0.0001231828       -0.0000518264
	            -0.0000649369       -0.0000411657        0.0000143596

	---Fragment 1 Intrafragment Coordinates---
	 - Coordinate -           - BOHR/RAD -       - ANG/DEG -
	 R(1,2)           =         1.885550	       0.997790
	 R(2,3)           =         2.748062	       1.454212
	 R(2,4)           =         1.887325	       0.998729
	 R(3,5)           =         2.884691	       1.526513
	 R(3,6)           =         2.039952	       1.079496
	 R(3,7)           =         2.062504	       1.091430
	 R(5,8)           =         2.931414	       1.551238
	 R(5,9)           =         2.049705	       1.084657
	 R(5,10)          =         2.053563	       1.086699
	 R(8,11)          =         2.895977	       1.532485
	 R(8,12)          =         2.054263	       1.087069
	 R(8,13)          =         2.051228	       1.085463
	 R(11,14)         =         2.881364	       1.524753
	 R(11,15)         =         2.043044	       1.081133
	 R(11,16)         =         2.054015	       1.086938
	 R(14,17)         =         2.050537	       1.085097
	 R(14,18)         =         2.048610	       1.084078
	 R(14,19)         =         2.050484	       1.085069
	 B(1,2,3)         =         1.938439	     111.064381
	 B(1,2,4)         =         1.870313	     107.161022
	 B(2,3,5)         =         1.921755	     110.108472
	 B(2,3,6)         =         1.870229	     107.156242
	 B(2,3,7)         =         1.962358	     112.434837
	 B(3,2,4)         =         1.939440	     111.121738
	 B(3,5,8)         =         2.077719	     119.044504
	 B(3,5,9)         =         1.892110	     108.409931
	 B(3,5,10)        =         1.858175	     106.465561
	 B(5,3,6)         =         1.929362	     110.544294
	 B(5,3,7)         =         1.910793	     109.480359
	 B(5,8,11)        =         2.083939	     119.400882
	 B(5,8,12)        =         1.909040	     109.379936
	 B(5,8,13)        =         1.864035	     106.801363
	 B(6,3,7)         =         1.868445	     107.054018
	 B(8,5,9)         =         1.920283	     110.024108
	 B(8,5,10)        =         1.868755	     107.071790
	 B(8,11,14)       =         1.961853	     112.405879
	 B(8,11,15)       =         1.930623	     110.616563
	 B(8,11,16)       =         1.911939	     109.546023
	 B(9,5,10)        =         1.830174	     104.861275
	 B(11,8,12)       =         1.902447	     109.002186
	 B(11,8,13)       =         1.860365	     106.591077
	 B(11,14,17)      =         1.938815	     111.085906
	 B(11,14,18)      =         1.941745	     111.253779
	 B(11,14,19)      =         1.941810	     111.257513
	 B(12,8,13)       =         1.826128	     104.629416
	 B(14,11,15)      =         1.894213	     108.530437
	 B(14,11,16)      =         1.900725	     108.903548
	 B(15,11,16)      =         1.861523	     106.657415
	 B(17,14,18)      =         1.880374	     107.737471
	 B(17,14,19)      =         1.878082	     107.606150
	 B(18,14,19)      =         1.880149	     107.724609
	 D(1,2,3,5)       =         3.092612	     177.193614
	 D(1,2,3,6)       =         0.993430	      56.919330
	 D(1,2,3,7)       =        -1.054828	     -60.437171
	 D(2,3,5,8)       =         3.083832	     176.690555
	 D(2,3,5,9)       =        -0.988007	     -56.608652
	 D(2,3,5,10)      =         0.972856	      55.740518
	 D(3,5,8,11)      =         0.740113	      42.405366
	 D(3,5,8,12)      =        -1.467206	     -84.064708
	 D(3,5,8,13)      =         2.849014	     163.236455
	 D(4,2,3,5)       =        -1.110272	     -63.613892
	 D(4,2,3,6)       =         3.073731	     176.111824
	 D(4,2,3,7)       =         1.025474	      58.755324
	 D(5,8,11,14)     =         3.059719	     175.308966
	 D(5,8,11,15)     =        -1.103022	     -63.198520
	 D(5,8,11,16)     =         0.944139	      54.095183
	 D(6,3,5,8)       =        -1.136240	     -65.101747
	 D(6,3,5,9)       =         1.075106	      61.599047
	 D(6,3,5,10)      =         3.035969	     173.948216
	 D(7,3,5,8)       =         0.917938	      52.593971
	 D(7,3,5,9)       =         3.129284	     179.294765
	 D(7,3,5,10)      =        -1.193038	     -68.356066
	 D(8,11,14,17)    =         1.052514	      60.304610
	 D(8,11,14,18)    =        -3.135903	    -179.673980
	 D(8,11,14,19)    =        -1.039400	     -59.553247
	 D(9,5,8,11)      =        -1.457872	     -83.529934
	*D(9,5,8,12)      =         2.617994	     149.999993
	 D(9,5,8,13)      =         0.651028	      37.301155
	 D(10,5,8,11)     =         2.845741	     163.048931
	 D(10,5,8,12)     =         0.638421	      36.578857
	 D(10,5,8,13)     =        -1.328544	     -76.119980
	 D(12,8,11,14)    =        -1.013053	     -58.043655
	 D(12,8,11,15)    =         1.107392	      63.448859
	 D(12,8,11,16)    =        -3.128632	    -179.257437
	 D(13,8,11,14)    =         0.948978	      54.372421
	 D(13,8,11,15)    =         3.069422	     175.864935
	 D(13,8,11,16)    =        -1.166602	     -66.841362
	 D(15,11,14,17)   =        -1.088582	     -62.371170
	 D(15,11,14,18)   =         1.006187	      57.650241
	 D(15,11,14,19)   =         3.102689	     177.770974
	 D(16,11,14,17)   =        -3.108685	    -178.114522
	 D(16,11,14,18)   =        -1.013916	     -58.093112
	 D(16,11,14,19)   =         1.082586	      62.027621

	Current energy   :      -251.4422110903

	Energy change for the previous step:
		Projected    :        -0.0143873916
		Actual       :        -0.0014709708
	Energy ratio indicates iffy step: Trust radius decreased to 1.250e-01.


	Performing BFGS update.
	Previous computed or guess Hessian on step 1.
	Steps to be used in Hessian update: 1
	Taking RFO optimization step.
	Going to follow RFO solution 1.
	Using RFO vector 1.

	Determining step-restricting scale parameter for RS-RFO.
	Maximum step size allowed    0.12500

	 Iter      |step|        alpha        rfo_root  
	------------------------------------------------
	    0     0.16056       1.00000           1
	    1     0.13457       1.58913           1
	    2     0.12619       1.88762           1
	    3     0.12502       1.93608           1
	    4     0.12500       1.93709           1
	------------------------------------------------
	Norm of target step-size    0.12500
	Projected energy change by RFO approximation:        -0.0017024994

	Back-transformation to cartesian coordinates...
	Successfully converged to displaced geometry.

	Back-transformation to cartesian coordinates to adjust frozen coordinates...
	Successfully converged to displaced geometry.

	--- Internal Coordinate Step in ANG or DEG, aJ/ANG or AJ/DEG ---
	 ---------------------------------------------------------------------------
	   Coordinate                Previous        Force       Change         New 
	   ----------                --------       ------       ------       ------
	    1 R(1,2)          =      0.997790    -0.000831    -0.000075     0.997715
	    2 R(2,3)          =      1.454212     0.001967     0.000229     1.454441
	    3 R(2,4)          =      0.998729    -0.000664    -0.000061     0.998668
	    4 R(3,5)          =      1.526513    -0.027352    -0.003948     1.522565
	    5 R(3,6)          =      1.079496     0.024800     0.003074     1.082570
	    6 R(3,7)          =      1.091430     0.000118     0.000012     1.091442
	    7 R(5,8)          =      1.551238    -0.100911    -0.014765     1.536473
	    8 R(5,9)          =      1.084657     0.000469     0.000060     1.084717
	    9 R(5,10)         =      1.086699     0.007555     0.000947     1.087646
	   10 R(8,11)         =      1.532485    -0.032207    -0.004718     1.527767
	   11 R(8,12)         =      1.087069     0.000326     0.000043     1.087112
	   12 R(8,13)         =      1.085463     0.008220     0.001030     1.086493
	   13 R(11,14)        =      1.524753     0.003056     0.000445     1.525198
	   14 R(11,15)        =      1.081133     0.026476     0.003297     1.084429
	   15 R(11,16)        =      1.086938     0.000316     0.000038     1.086976
	   16 R(14,17)        =      1.085097     0.000398     0.000049     1.085146
	   17 R(14,18)        =      1.084078    -0.001280    -0.000157     1.083921
	   18 R(14,19)        =      1.085069    -0.000528    -0.000065     1.085004
	   19 B(1,2,3)        =    111.064381    -0.000018    -0.062080   111.002300
	   20 B(1,2,4)        =    107.161022     0.000016     0.042608   107.203630
	   21 B(2,3,5)        =    110.108472    -0.000133    -0.279890   109.828583
	   22 B(2,3,6)        =    107.156242     0.000108     0.413668   107.569910
	   23 B(2,3,7)        =    112.434837     0.000090     0.399111   112.833947
	   24 B(3,2,4)        =    111.121738    -0.000017    -0.057507   111.064231
	   25 B(3,5,8)        =    119.044504    -0.000929    -2.155457   116.889047
	   26 B(3,5,9)        =    108.409931     0.000376     1.244234   109.654165
	   27 B(3,5,10)       =    106.465561     0.000415     1.281135   107.746696
	   28 B(5,3,6)        =    110.544294    -0.000037    -0.301979   110.242316
	   29 B(5,3,7)        =    109.480359     0.000018    -0.043970   109.436388
	   30 B(5,8,11)       =    119.400882    -0.000960    -2.240543   117.160339
	   31 B(5,8,12)       =    109.379936     0.000247     0.276935   109.656872
	   32 B(5,8,13)       =    106.801363     0.000160    -0.125724   106.675639
	   33 B(6,3,7)        =    107.054018    -0.000042    -0.188518   106.865500
	   34 B(8,5,9)        =    110.024108     0.000235     0.276349   110.300456
	   35 B(8,5,10)       =    107.071790     0.000148    -0.153524   106.918265
	   36 B(8,11,14)      =    112.405879    -0.000121    -0.254300   112.151578
	   37 B(8,11,15)      =    110.616563    -0.000032    -0.274667   110.341896
	   38 B(8,11,16)      =    109.546023     0.000023    -0.016579   109.529443
	   39 B(9,5,10)       =    104.861275    -0.000170    -0.315550   104.545724
	   40 B(11,8,12)      =    109.002186     0.000379     1.244431   110.246617
	   41 B(11,8,13)      =    106.591077     0.000425     1.320018   107.911095
	   42 B(11,14,17)     =    111.085906     0.000019     0.069823   111.155729
	   43 B(11,14,18)     =    111.253779    -0.000039    -0.142251   111.111528
	   44 B(11,14,19)     =    111.257513     0.000003     0.017902   111.275415
	   45 B(12,8,13)      =    104.629416    -0.000174    -0.288584   104.340831
	   46 B(14,11,15)     =    108.530437     0.000113     0.439178   108.969615
	   47 B(14,11,16)     =    108.903548     0.000070     0.315404   109.218952
	   48 B(15,11,16)     =    106.657415    -0.000047    -0.196913   106.460502
	   49 B(17,14,18)     =    107.737471     0.000007     0.004228   107.741699
	   50 B(17,14,19)     =    107.606150    -0.000004     0.024136   107.630286
	   51 B(18,14,19)     =    107.724609     0.000015     0.029705   107.754313
	   52 D(1,2,3,5)      =    177.193614    -0.000004    -0.207553   176.986060
	   53 D(1,2,3,6)      =     56.919330     0.000009     0.068645    56.987975
	   54 D(1,2,3,7)      =    -60.437171    -0.000006    -0.189582   -60.626753
	   55 D(2,3,5,8)      =    176.690555     0.000001    -1.130683   175.559872
	   56 D(2,3,5,9)      =    -56.608652    -0.000019    -1.377849   -57.986500
	   57 D(2,3,5,10)     =     55.740518     0.000022    -0.503655    55.236862
	   58 D(3,5,8,11)     =     42.405366    -0.000017     0.332576    42.737942
	   59 D(3,5,8,12)     =    -84.064708    -0.000008     0.198418   -83.866290
	   60 D(3,5,8,13)     =    163.236455    -0.000007     0.466633   163.703088
	   61 D(4,2,3,5)      =    -63.613892    -0.000005    -0.232486   -63.846377
	   62 D(4,2,3,6)      =    176.111824     0.000008     0.043713   176.155537
	   63 D(4,2,3,7)      =     58.755324    -0.000007    -0.214515    58.540809
	   64 D(5,8,11,14)    =    175.308966     0.000001    -1.411645   173.897320
	   65 D(5,8,11,15)    =    -63.198520     0.000009    -1.219203   -64.417723
	   66 D(5,8,11,16)    =     54.095183    -0.000005    -1.631240    52.463943
	   67 D(6,3,5,8)      =    -65.101747     0.000007    -0.979645   -66.081392
	   68 D(6,3,5,9)      =     61.599047    -0.000012    -1.226811    60.372236
	   69 D(6,3,5,10)     =    173.948216     0.000028    -0.352618   173.595598
	   70 D(7,3,5,8)      =     52.593971    -0.000007    -1.414769    51.179202
[...]
	 R(11,15)         =         2.050180	       1.084909
	 R(11,16)         =         2.053934	       1.086895
	 R(14,17)         =         2.050537	       1.085097
	 R(14,18)         =         2.048489	       1.084014
	 R(14,19)         =         2.050086	       1.084859
	 B(1,2,3)         =         1.939741	     111.138952
	 B(1,2,4)         =         1.871372	     107.221715
	 B(2,3,5)         =         1.924607	     110.271854
	 B(2,3,6)         =         1.877085	     107.549025
	 B(2,3,7)         =         1.969971	     112.871011
	 B(3,2,4)         =         1.937091	     110.987154
	 B(3,5,8)         =         2.025640	     116.060613
	 B(3,5,9)         =         1.917474	     109.863184
	 B(3,5,10)        =         1.882846	     107.879133
	 B(5,3,6)         =         1.921755	     110.108442
	 B(5,3,7)         =         1.906260	     109.220680
	 B(5,8,11)        =         2.030223	     116.323209
	 B(5,8,12)        =         1.914350	     109.684182
	 B(5,8,13)        =         1.872796	     107.303326
	 B(6,3,7)         =         1.862878	     106.735029
	 B(8,5,9)         =         1.925241	     110.308209
	 B(8,5,10)        =         1.876863	     107.536342
	 B(8,11,14)       =         1.964063	     112.532494
	 B(8,11,15)       =         1.922590	     110.156312
	 B(8,11,16)       =         1.908231	     109.333572
	 B(9,5,10)        =         1.823883	     104.500773
	 B(11,8,12)       =         1.926505	     110.380593
	 B(11,8,13)       =         1.886719	     108.101023
	 B(11,14,17)      =         1.938974	     111.095021
	 B(11,14,18)      =         1.941789	     111.256313
	 B(11,14,19)      =         1.940300	     111.171023
	 B(12,8,13)       =         1.820456	     104.304437
	 B(14,11,15)      =         1.902143	     108.984752
	 B(14,11,16)      =         1.907430	     109.287697
	 B(15,11,16)      =         1.856212	     106.353142
	 B(17,14,18)      =         1.880287	     107.732532
	 B(17,14,19)      =         1.878751	     107.644531
	 B(18,14,19)      =         1.880951	     107.770556
	 D(1,2,3,5)       =         3.086130	     176.822242
	 D(1,2,3,6)       =         0.990357	      56.743277
	 D(1,2,3,7)       =        -1.059749	     -60.719119
	 D(2,3,5,8)       =         3.073508	     176.099059
	 D(2,3,5,9)       =        -1.010957	     -57.923597
	 D(2,3,5,10)      =         0.967304	      55.422425
	 D(3,5,8,11)      =         0.731015	      41.884049
	 D(3,5,8,12)      =        -1.470401	     -84.247759
	 D(3,5,8,13)      =         2.845379	     163.028185
	 D(4,2,3,5)       =        -1.116111	     -63.948458
	 D(4,2,3,6)       =         3.071301	     175.972577
	 D(4,2,3,7)       =         1.021195	      58.510182
	 D(5,8,11,14)     =         3.050667	     174.790333
	 D(5,8,11,15)     =        -1.106106	     -63.375214
	 D(5,8,11,16)     =         0.927691	      53.152779
	 D(6,3,5,8)       =        -1.141048	     -65.377239
	 D(6,3,5,9)       =         1.057671	      60.600105
	 D(6,3,5,10)      =         3.035933	     173.946127
	 D(7,3,5,8)       =         0.899183	      51.519392
	 D(7,3,5,9)       =         3.097902	     177.496735
	 D(7,3,5,10)      =        -1.207022	     -69.157243
	 D(8,11,14,17)    =         1.040929	      59.640839
	 D(8,11,14,18)    =         3.135725	     179.663825
	 D(8,11,14,19)    =        -1.050930	     -60.213875
	 D(9,5,8,11)      =        -1.463776	     -83.868200
	*D(9,5,8,12)      =         2.617994	     149.999993
	 D(9,5,8,13)      =         0.650588	      37.275936
	 D(10,5,8,11)     =         2.840428	     162.744516
	 D(10,5,8,12)     =         0.639012	      36.612709
	 D(10,5,8,13)     =        -1.328394	     -76.111348
	 D(12,8,11,14)    =        -1.037213	     -59.427907
	 D(12,8,11,15)    =         1.089200	      62.406546
	 D(12,8,11,16)    =         3.122997	     178.934538
	 D(13,8,11,14)    =         0.943719	      54.071093
	 D(13,8,11,15)    =         3.070131	     175.905546
	 D(13,8,11,16)    =        -1.179257	     -67.566462
	 D(15,11,14,17)   =        -1.097042	     -62.855894
	 D(15,11,14,18)   =         0.997754	      57.167092
	 D(15,11,14,19)   =         3.094284	     177.289392
	 D(16,11,14,17)   =        -3.118825	    -178.695529
	 D(16,11,14,18)   =        -1.024029	     -58.672543
	 D(16,11,14,19)   =         1.072501	      61.449757

	Current energy   :      -251.4435939948

	Energy change for the previous step:
		Projected    :        -0.0000000700
		Actual       :        -0.0000002250
	Energy ratio indicates good step: Trust radius increased to 2.344e-02.


	Performing BFGS update.
	Previous computed or guess Hessian on step 1.
	Steps to be used in Hessian update: 6 5
	Taking RFO optimization step.
	Going to follow RFO solution 1.
	Rejecting RFO root 1 because normalization gives large value.
	Rejecting RFO root 2 because normalization gives large value.
	Using RFO vector 3.
	Norm of target step-size    0.00066
	Projected energy change by RFO approximation:        -0.0000000122

	Back-transformation to cartesian coordinates...
	Successfully converged to displaced geometry.

	Back-transformation to cartesian coordinates to adjust frozen coordinates...
	Successfully converged to displaced geometry.

	--- Internal Coordinate Step in ANG or DEG, aJ/ANG or AJ/DEG ---
	 ---------------------------------------------------------------------------
	   Coordinate                Previous        Force       Change         New 
	   ----------                --------       ------       ------       ------
	    1 R(1,2)          =      0.997762    -0.000020    -0.000002     0.997760
	    2 R(2,3)          =      1.454355    -0.000035    -0.000005     1.454351
	    3 R(2,4)          =      0.998578     0.000012     0.000001     0.998579
	    4 R(3,5)          =      1.521267    -0.000075    -0.000011     1.521255
	    5 R(3,6)          =      1.082981     0.000049     0.000007     1.082988
	    6 R(3,7)          =      1.091467    -0.000070    -0.000011     1.091456
	    7 R(5,8)          =      1.535394     0.000140     0.000037     1.535431
	    8 R(5,9)          =      1.084733    -0.000041    -0.000008     1.084725
	    9 R(5,10)         =      1.088331     0.000045     0.000005     1.088336
	   10 R(8,11)         =      1.526367    -0.000095    -0.000016     1.526351
	   11 R(8,12)         =      1.087107    -0.000042    -0.000008     1.087099
	   12 R(8,13)         =      1.087194     0.000061     0.000008     1.087201
	   13 R(11,14)        =      1.525332    -0.000005     0.000001     1.525333
	   14 R(11,15)        =      1.084909     0.000027     0.000003     1.084912
	   15 R(11,16)        =      1.086895    -0.000070    -0.000011     1.086884
	   16 R(14,17)        =      1.085097    -0.000011    -0.000002     1.085096
	   17 R(14,18)        =      1.084014     0.000007     0.000002     1.084016
	   18 R(14,19)        =      1.084859     0.000013     0.000002     1.084860
	   19 B(1,2,3)        =    111.138952    -0.000000     0.000400   111.139352
	   20 B(1,2,4)        =    107.221715    -0.000000     0.000189   107.221904
	   21 B(2,3,5)        =    110.271854     0.000000     0.000937   110.272791
	   22 B(2,3,6)        =    107.549025     0.000000     0.004313   107.553337
	   23 B(2,3,7)        =    112.871011    -0.000000    -0.003720   112.867291
	   24 B(3,2,4)        =    110.987154     0.000000     0.001531   110.988684
	   25 B(3,5,8)        =    116.060613     0.000000     0.000320   116.060933
	   26 B(3,5,9)        =    109.863184    -0.000001    -0.001855   109.861329
	   27 B(3,5,10)       =    107.879133     0.000000     0.001294   107.880428
	   28 B(5,3,6)        =    110.108442     0.000000     0.003651   110.112093
	   29 B(5,3,7)        =    109.220680    -0.000001    -0.005630   109.215050
	   30 B(5,8,11)       =    116.323209     0.000000     0.001255   116.324465
	   31 B(5,8,12)       =    109.684182     0.000001     0.000784   109.684966
	   32 B(5,8,13)       =    107.303326    -0.000000    -0.000338   107.302988
	   33 B(6,3,7)        =    106.735029     0.000000     0.000818   106.735846
	   34 B(8,5,9)        =    110.308209     0.000000    -0.000143   110.308067
	   35 B(8,5,10)       =    107.536342    -0.000000     0.000146   107.536488
	   36 B(8,11,14)      =    112.532494     0.000000     0.000318   112.532812
	   37 B(8,11,15)      =    110.156312     0.000000     0.004130   110.160442
	   38 B(8,11,16)      =    109.333572    -0.000000    -0.005829   109.327743
	   39 B(9,5,10)       =    104.500773    -0.000000     0.000350   104.501123
	   40 B(11,8,12)      =    110.380593    -0.000001    -0.002485   110.378109
	   41 B(11,8,13)      =    108.101023     0.000000     0.001670   108.102694
	   42 B(11,14,17)     =    111.095021    -0.000000    -0.002140   111.092880
	   43 B(11,14,18)     =    111.256313     0.000000     0.001230   111.257544
	   44 B(11,14,19)     =    111.171023     0.000000     0.000814   111.171837
	   45 B(12,8,13)      =    104.304437    -0.000000    -0.001049   104.303388
	   46 B(14,11,15)     =    108.984752     0.000000     0.003574   108.988326
	   47 B(14,11,16)     =    109.287697    -0.000000    -0.003195   109.284503
	   48 B(15,11,16)     =    106.353142     0.000000     0.001009   106.354150
	   49 B(17,14,18)     =    107.732532     0.000000     0.000092   107.732624
	   50 B(17,14,19)     =    107.644531     0.000000    -0.000050   107.644482
	   51 B(18,14,19)     =    107.770556    -0.000000     0.000054   107.770610
	   52 D(1,2,3,5)      =    176.822242     0.000000     0.002496   176.824738
	   53 D(1,2,3,6)      =     56.743277    -0.000000    -0.005109    56.738168
	   54 D(1,2,3,7)      =    -60.719119    -0.000000    -0.006731   -60.725850
	   55 D(2,3,5,8)      =    176.099059    -0.000000    -0.006820   176.092239
	   56 D(2,3,5,9)      =    -57.923597    -0.000000    -0.008367   -57.931964
	   57 D(2,3,5,10)     =     55.422425    -0.000000    -0.008206    55.414219
	   58 D(3,5,8,11)     =     41.884049    -0.000000    -0.004140    41.879909
	   59 D(3,5,8,12)     =    -84.247759    -0.000000    -0.002417   -84.250176
	   60 D(3,5,8,13)     =    163.028185    -0.000000    -0.001398   163.026786
	   61 D(4,2,3,5)      =    -63.948458     0.000000     0.004002   -63.944455
	   62 D(4,2,3,6)      =    175.972577    -0.000000    -0.003602   175.968975
	   63 D(4,2,3,7)      =     58.510182    -0.000000    -0.005225    58.504957
	   64 D(5,8,11,14)    =    174.790333    -0.000000    -0.004023   174.786310
	   65 D(5,8,11,15)    =    -63.375214     0.000000     0.003743   -63.371471
	   66 D(5,8,11,16)    =     53.152779    -0.000000     0.003928    53.156707
	   67 D(6,3,5,8)      =    -65.377239     0.000000     0.001334   -65.375905
	   68 D(6,3,5,9)      =     60.600105     0.000000    -0.000213    60.599892
	   69 D(6,3,5,10)     =    173.946127     0.000000    -0.000053   173.946074
	   70 D(7,3,5,8)      =     51.519392     0.000000     0.001123    51.520514
	   71 D(7,3,5,9)      =    177.496735     0.000000    -0.000424   177.496311
	   72 D(7,3,5,10)     =    -69.157243    -0.000000    -0.000264   -69.157506
	   73 D(8,11,14,17)   =     59.640839     0.000000     0.013797    59.654636
	   74 D(8,11,14,18)   =    179.663825     0.000000     0.013300   179.677125
	   75 D(8,11,14,19)   =    -60.213875     0.000000     0.014747   -60.199128
	   76 D(9,5,8,11)     =    -83.868200    -0.000000    -0.001722   -83.869923
	   77 *D(9,5,8,12)    =    149.999993    -0.000000     0.000000   149.999993
	   78 D(9,5,8,13)     =     37.275936     0.000000     0.001019    37.276955
	   79 D(10,5,8,11)    =    162.744516    -0.000000    -0.002142   162.742374
	   80 D(10,5,8,12)    =     36.612709     0.000000    -0.000419    36.612289
	   81 D(10,5,8,13)    =    -76.111348     0.000000     0.000599   -76.110748
	   82 D(12,8,11,14)   =    -59.427907     0.000000    -0.004098   -59.432005
	   83 D(12,8,11,15)   =     62.406546     0.000000     0.003668    62.410214
	   84 D(12,8,11,16)   =    178.934538     0.000000     0.003853   178.938392
	   85 D(13,8,11,14)   =     54.071093    -0.000000    -0.005715    54.065378
	   86 D(13,8,11,15)   =    175.905546    -0.000000     0.002051   175.907597
	   87 D(13,8,11,16)   =    -67.566462    -0.000000     0.002236   -67.564225
	   88 D(15,11,14,17)  =    -62.855894    -0.000000     0.005778   -62.850116
	   89 D(15,11,14,18)  =     57.167092    -0.000000     0.005281    57.172373
	   90 D(15,11,14,19)  =    177.289392    -0.000000     0.006728   177.296120
	   91 D(16,11,14,17)  =   -178.695529    -0.000000     0.004351  -178.691178
	   92 D(16,11,14,18)  =    -58.672543    -0.000000     0.003854   -58.668689
	   93 D(16,11,14,19)  =     61.449757    -0.000000     0.005300    61.455057
	 ---------------------------------------------------------------------------

  ==> Convergence Check <==

  Measures of convergence in internal coordinates in au.
  Criteria marked as inactive (o), active & met (*), and active & unmet ( ).
  ---------------------------------------------------------------------------------------------
   Step     Total Energy     Delta E     MAX Force     RMS Force      MAX Disp      RMS Disp   
  ---------------------------------------------------------------------------------------------
    Convergence Criteria    1.00e-06 *    3.00e-04 *             o    1.20e-03 *             o
  ---------------------------------------------------------------------------------------------
      7    -251.44359399   -2.25e-07 *    1.70e-05 *    4.53e-06 o    2.57e-04 *    6.89e-05 o  ~
  ---------------------------------------------------------------------------------------------


  **** Optimization is complete! (in 7 steps) ****

  ==> Optimization Summary <==

  Measures of convergence in internal coordinates in au.
  --------------------------------------------------------------------------------------------------------------- ~
   Step         Total Energy             Delta E       MAX Force       RMS Force        MAX Disp        RMS Disp  ~
  --------------------------------------------------------------------------------------------------------------- ~
      1    -251.440740119442   -251.440740119442      0.02143440      0.00427852      0.15311184      0.04468606  ~
      2    -251.442211090266     -0.001470970824      0.01260991      0.00272531      0.03910485      0.01296048  ~
      3    -251.443468625043     -0.001257534778      0.00354103      0.00073445      0.01388676      0.00534833  ~
      4    -251.443580810541     -0.000112185498      0.00125204      0.00024748      0.01481371      0.00583138  ~
      5    -251.443591868408     -0.000011057867      0.00034647      0.00007069      0.00841740      0.00324095  ~
      6    -251.443593769846     -0.000001901437      0.00006427      0.00001750      0.00192878      0.00081043  ~
      7    -251.443593994841     -0.000000224996      0.00001700      0.00000453      0.00025738      0.00006889  ~
  --------------------------------------------------------------------------------------------------------------- ~

	Writing optimization data to binary file.
	Final energy is   -251.4435939948413
	Final (previous) structure:
	Cartesian Geometry (in Angstrom)
	    H     3.5428042655  -0.6027387801   0.2122607703
	    N     2.6952403364  -1.1289412204   0.1956656177
	    C     1.5339988793  -0.2543104318   0.2367503367
	    H     2.7109975690  -1.7398256815   0.9854311374
	    C     0.2549363294  -1.0711339065   0.1316267155
	    H     1.6096386376   0.4284267625  -0.6005051827
	    H     1.4960040690   0.3582274635   1.1393323427
	    C    -1.0588047168  -0.2860932378   0.2550434064
	    H     0.2622719513  -1.6510712775  -0.7850323857
	    H     0.2678105010  -1.8157224396   0.9252808673
	    C    -1.1187983704   1.0522757047  -0.4763696301
	    H    -1.3101538138  -0.1555479430   1.3046066681
	    H    -1.8518958954  -0.9196554311  -0.1343089698
	    C    -2.4989263984   1.6975559614  -0.4022221363
	    H    -0.3861861224   1.7373986770  -0.0629541345
	    H    -0.8466546182   0.9054205598  -1.5183446503
	    H    -2.7905631757   1.8786998112   0.6271326815
	    H    -2.5166979236   2.6483255054  -0.9226132652
	    H    -3.2538983736   1.0604947991  -0.8506514600
	Saving final (previous) structure.
			--------------------------
			 OPTKING Finished Execution 
			--------------------------

    Final optimized geometry and variables:
    Molecular point group: c1
    Full point group: C1

    Geometry (in Angstrom), charge = 0, multiplicity = 1:

    H            3.542803994985    -0.602738734026     0.212260754130
    N            2.695240130608    -1.128941134144     0.195665602803
    C            1.533998762189    -0.254310412377     0.236750318593
    H            2.710997361936    -1.739825548597     0.985431062113
    C            0.254936309950    -1.071133824656     0.131626705465
    H            1.609638514695     0.428426729792    -0.600505136799
    H            1.496003954723     0.358227436100     1.139332255680
    C           -1.058804635921    -0.286093215949     0.255043386920
    H            0.262271931248    -1.651071151460    -0.785032325781
    H            0.267810480506    -1.815722300938     0.925280796615
    C           -1.118798284984     1.052275624358    -0.476369593772
    H           -1.310153713799    -0.155547931115     1.304606568471
    H           -1.851895753996    -0.919655360882    -0.134308959571
    C           -2.498926207558     1.697555831769    -0.402222105565
    H           -0.386186092886     1.737398544359    -0.062954129689
    H           -0.846654553528     0.905420490688    -1.518344534313
    H           -2.790562962594     1.878699667734     0.627132633655
    H           -2.516697731370     2.648325303211    -0.922613194755
    H           -3.253898125147     1.060494718145    -0.850651395074

	Cleaning optimization helper files.


Properties will be evaluated at   0.000000,   0.000000,   0.000000 Bohr

Properties computed using the  density matrix

  Nuclear Dipole Moment: (a.u.)
     X:    -2.8826      Y:     2.0024      Z:     0.2991

  Electronic Dipole Moment: (a.u.)
     X:     2.9395      Y:    -1.7492      Z:     0.1048

  Dipole Moment: (a.u.)
     X:     0.0569      Y:     0.2532      Z:     0.4038     Total:     0.4800

  Dipole Moment: (Debye)
     X:     0.1446      Y:     0.6436      Z:     1.0264     Total:     1.2201

  Quadrupole Moment: (Debye Ang)
    XX:   -39.9375     YY:   -42.3383     ZZ:   -40.2332
    XY:     2.4154     XZ:     3.3439     YZ:    -2.2212

  Traceless Quadrupole Moment: (Debye Ang)
    XX:     0.8988     YY:    -1.5020     ZZ:     0.6031
    XY:     2.4154     XZ:     3.3439     YZ:    -2.2212

  Mulliken Charges: (a.u.)
   Center  Symbol    Alpha    Beta     Spin     Total
       1     H     0.43011  0.43011  0.00000  0.13979
       2     N     3.69020  3.69020  0.00000 -0.38040
       3     C     3.02815  3.02815  0.00000 -0.05630
       4     H     0.43098  0.43098  0.00000  0.13804
       5     C     3.08882  3.08882  0.00000 -0.17763
       6     H     0.45345  0.45345  0.00000  0.09310
       7     H     0.46708  0.46708  0.00000  0.06583
       8     C     3.09937  3.09937  0.00000 -0.19873
       9     H     0.44700  0.44700  0.00000  0.10599
      10     H     0.45750  0.45750  0.00000  0.08500
      11     C     3.08959  3.08959  0.00000 -0.17919
      12     H     0.45341  0.45341  0.00000  0.09318
      13     H     0.45145  0.45145  0.00000  0.09709
      14     C     3.15000  3.15000  0.00000 -0.30001
      15     H     0.45260  0.45260  0.00000  0.09480
      16     H     0.45189  0.45189  0.00000  0.09623
      17     H     0.45545  0.45545  0.00000  0.08910
      18     H     0.44848  0.44848  0.00000  0.10304
      19     H     0.45447  0.45447  0.00000  0.09107

   Total alpha = 25.00000, Total beta = 25.00000, Total charge = -0.00000


*** PSI4 exiting successfully. Buy a developer a beer!
