    -----------------------------------------------------------------------
          Psi4: An Open-Source Ab Initio Electronic Structure Package
                              Psi4 (no tag) Driver

                          Git: Rev {detached?}  

    J. M. Turney, A. C. Simmonett, R. M. Parrish, E. G. Hohenstein,
    F. A. Evangelista, J. T. Fermann, B. J. Mintz, L. A. Burns, J. J. Wilke,
    M. L. Abrams, N. J. Russ, M. L. Leininger, C. L. Janssen, E. T. Seidl,
    W. D. Allen, H. F. Schaefer, R. A. King, E. F. Valeev, C. D. Sherrill,
    and T. D. Crawford, WIREs Comput. Mol. Sci. 2, 556-565 (2012)
    (doi: 10.1002/wcms.93)

                         Additional Contributions by
    A. E. DePrince, M. Saitow, U. Bozkaya, A. Yu. Sokolov
    -----------------------------------------------------------------------


    Psi4 started on: Fri Sep  2 13:14:22 2016

    Process ID:  30351
    PSI4DATADIR: /export131/home/mjharvey/miniconda3/share
    Memory level set to 256.000 MB

  ==> Input File <==

--------------------------------------------------------------------------
set {
	reference rhf
	basis 6-31G*
}


set_num_threads( 4 )
memory 2 gb

molecule MOL {
0 1

H	 2.338604	 -0.954222	 0.891682
O	 2.016064	 -0.864478	 0.000222
C	 1.050492	 0.053836	 0.000068
C	 -0.318135	 -0.576402	 0.000164
O	 1.285279	 1.218255	 -0.000078
C	 -1.454360	 0.441875	 -0.000474
H	 -0.374042	 -1.230163	 -0.866135
H	 -0.374274	 -1.229227	 0.867154
C	 -2.826123	 -0.230780	 0.000056
H	 -1.357605	 1.085198	 -0.868380
H	 -1.357504	 1.086451	 0.866496
H	 -2.959731	 -0.858053	 -0.876869
H	 -3.619374	 0.509403	 -0.000080
H	 -2.959371	 -0.857318	 0.877556

	symmetry c1
}
set optking {
	frozen_dihedral = ("
		1 2 3 5
	")
}

ee = optimize('scf')
oeprop('DIPOLE', 'QUADRUPOLE', 'MULLIKEN_CHARGES')
f=open( 'psi4out.xyz', 'w' )
f.write( "14  " )
f.write( str(ee) + "\n" )
f.write( MOL.save_string_xyz() )
f.close()
--------------------------------------------------------------------------

  Memory set to   2.000 GiB by Python script.
gradient() will perform analytic gradient computation.

*** tstart() called on cx1-1-4-4.cx1.hpc.ic.ac.uk
*** at Fri Sep  2 13:14:23 2016


         ---------------------------------------------------------
                                   SCF
            by Justin Turney, Rob Parrish, and Andy Simmonett
                              RHF Reference
                        4 Threads,   2000 MiB Core
         ---------------------------------------------------------

  ==> Geometry <==

    Molecular point group: c1
    Full point group: C1

    Geometry (in Angstrom), charge = 0, multiplicity = 1:

       Center              X                  Y                   Z               Mass       
    ------------   -----------------  -----------------  -----------------  -----------------
           H          2.344504464406    -0.948019953874     0.881478185134     1.007825032070
           O          2.021964464406    -0.858275953874    -0.009981814866    15.994914619560
           C          1.056392464406     0.060038046126    -0.010135814866    12.000000000000
           C         -0.312234535594    -0.570199953874    -0.010039814866    12.000000000000
           O          1.291179464406     1.224457046126    -0.010281814866    15.994914619560
           C         -1.448459535594     0.448077046126    -0.010677814866    12.000000000000
           H         -0.368141535594    -1.223960953874    -0.876338814866     1.007825032070
           H         -0.368373535594    -1.223024953874     0.856950185134     1.007825032070
           C         -2.820222535594    -0.224577953874    -0.010147814866    12.000000000000
           H         -1.351704535594     1.091400046126    -0.878583814866     1.007825032070
           H         -1.351603535594     1.092653046126     0.856292185134     1.007825032070
           H         -2.953830535594    -0.851850953874    -0.887072814866     1.007825032070
           H         -3.613473535594     0.515605046126    -0.010283814866     1.007825032070
           H         -2.953470535594    -0.851115953874     0.867352185134     1.007825032070

  Running in c1 symmetry.

  Rotational constants: A =      0.30032  B =      0.06179  C =      0.05296 [cm^-1]
  Rotational constants: A =   9003.40484  B =   1852.28312  C =   1587.78426 [MHz]
  Nuclear repulsion =  240.026689406154730

  Charge       = 0
  Multiplicity = 1
  Electrons    = 48
  Nalpha       = 24
  Nbeta        = 24

  ==> Algorithm <==

  SCF Algorithm Type is DF.
  DIIS enabled.
  MOM disabled.
  Fractional occupation disabled.
  Guess Type is CORE.
  Energy threshold   = 1.00e-08
  Density threshold  = 1.00e-08
  Integral threshold = 0.00e+00

  ==> Primary Basis <==

  Basis Set: 6-31G*
    Number of shells: 52
    Number of basis function: 106
    Number of Cartesian functions: 106
    Spherical Harmonics?: false
    Max angular momentum: 2

  ==> Pre-Iterations <==

   -------------------------------------------------------
    Irrep   Nso     Nmo     Nalpha   Nbeta   Ndocc  Nsocc
   -------------------------------------------------------
     A        106     106       0       0       0       0
   -------------------------------------------------------
    Total     106     106      24      24      24       0
   -------------------------------------------------------

 OEINTS: Overlap, kinetic, potential, dipole, and quadrupole integrals
         stored in file 35.

  ==> Integral Setup <==

  ==> DFJK: Density-Fitted J/K Matrices <==

    J tasked:                  Yes
    K tasked:                  Yes
    wK tasked:                  No
    OpenMP threads:              4
    Integrals threads:           4
    Memory (MB):              1430
    Algorithm:                Core
    Integral Cache:           NONE
    Schwarz Cutoff:          1E-12
    Fitting Condition:       1E-12

   => Auxiliary Basis Set <=

  Basis Set: 
    Number of shells: 216
    Number of basis function: 686
    Number of Cartesian functions: 686
    Spherical Harmonics?: false
    Max angular momentum: 3

  Minimum eigenvalue in the overlap matrix is 3.2680381634E-03.
  Using Symmetric Orthogonalization.
  SCF Guess: Core (One-Electron) Hamiltonian.

  ==> Iterations <==

                           Total Energy        Delta E     RMS |[F,P]|

   @DF-RHF iter   1:  -241.98365386882267   -2.41984e+02   7.38359e-02 
   @DF-RHF iter   2:  -135.42272171485740    1.06561e+02   9.51836e-02 DIIS
   @DF-RHF iter   3:  -284.56675016224284   -1.49144e+02   3.09505e-02 DIIS
   @DF-RHF iter   4:  -207.55433234252445    7.70124e+01   9.52049e-02 DIIS
   @DF-RHF iter   5:  -230.91402978821674   -2.33597e+01   8.15508e-02 DIIS
   @DF-RHF iter   6:  -243.31216758165266   -1.23981e+01   7.04336e-02 DIIS
   @DF-RHF iter   7:  -248.38650204952540   -5.07433e+00   6.27740e-02 DIIS
   @DF-RHF iter   8:  -276.74605548472340   -2.83596e+01   4.84529e-02 DIIS
   @DF-RHF iter   9:  -280.35177081965816   -3.60572e+00   4.31889e-02 DIIS
   @DF-RHF iter  10:  -289.82849722613463   -9.47673e+00   3.48437e-02 DIIS
   @DF-RHF iter  11:  -303.97808277692747   -1.41496e+01   1.59380e-02 DIIS
   @DF-RHF iter  12:  -305.60091434556097   -1.62283e+00   6.24171e-03 DIIS
   @DF-RHF iter  13:  -305.80005065820200   -1.99136e-01   3.00575e-03 DIIS
   @DF-RHF iter  14:  -305.84665777939216   -4.66071e-02   1.17681e-03 DIIS
   @DF-RHF iter  15:  -305.85746127711326   -1.08035e-02   4.80903e-04 DIIS
   @DF-RHF iter  16:  -305.85871883254384   -1.25756e-03   1.69622e-04 DIIS
   @DF-RHF iter  17:  -305.85894740876159   -2.28576e-04   5.95148e-05 DIIS
   @DF-RHF iter  18:  -305.85897813339074   -3.07246e-05   1.21739e-05 DIIS
   @DF-RHF iter  19:  -305.85897992098688   -1.78760e-06   2.91401e-06 DIIS
   @DF-RHF iter  20:  -305.85898005296195   -1.31975e-07   1.37029e-06 DIIS
   @DF-RHF iter  21:  -305.85898008095313   -2.79912e-08   5.14186e-07 DIIS
   @DF-RHF iter  22:  -305.85898008646694   -5.51381e-09   1.60543e-07 DIIS
   @DF-RHF iter  23:  -305.85898008719977   -7.32825e-10   4.59497e-08 DIIS
   @DF-RHF iter  24:  -305.85898008726286   -6.30962e-11   1.89932e-08 DIIS
   @DF-RHF iter  25:  -305.85898008727071   -7.84439e-12   5.80115e-09 DIIS

  ==> Post-Iterations <==

    Orbital Energies (a.u.)
    -----------------------

    Doubly Occupied:                                                      

       1A    -20.598641     2A    -20.560224     3A    -11.380435  
       4A    -11.241816     5A    -11.225675     6A    -11.217796  
       7A     -1.469709     8A     -1.368815     9A     -1.082934  
      10A     -0.976774    11A     -0.852865    12A     -0.798851  
      13A     -0.711511    14A     -0.680739    15A     -0.664934  
      16A     -0.633225    17A     -0.578567    18A     -0.559784  
      19A     -0.543469    20A     -0.501976    21A     -0.497275  
      22A     -0.483500    23A     -0.479306    24A     -0.444494  

    Virtual:                                                              

      25A      0.170020    26A      0.211360    27A      0.235759  
      28A      0.282355    29A      0.288507    30A      0.302412  
      31A      0.326254    32A      0.337962    33A      0.353503  
      34A      0.392532    35A      0.417203    36A      0.457994  
      37A      0.521950    38A      0.556557    39A      0.733712  
      40A      0.736653    41A      0.750410    42A      0.757400  
      43A      0.784958    44A      0.840448    45A      0.866347  
      46A      0.937734    47A      0.953471    48A      0.956857  
      49A      1.034664    50A      1.049285    51A      1.066661  
      52A      1.100067    53A      1.119554    54A      1.127676  
      55A      1.159258    56A      1.173832    57A      1.190668  
      58A      1.217518    59A      1.221625    60A      1.237907  
      61A      1.257126    62A      1.269111    63A      1.317903  
      64A      1.346018    65A      1.391544    66A      1.436131  
      67A      1.622113    68A      1.639462    69A      1.704050  
      70A      1.776154    71A      1.807642    72A      1.917269  
      73A      1.978926    74A      2.004517    75A      2.046142  
      76A      2.064391    77A      2.103207    78A      2.132795  
      79A      2.144437    80A      2.245287    81A      2.267267  
      82A      2.279769    83A      2.292027    84A      2.361449  
      85A      2.370648    86A      2.463785    87A      2.547512  
      88A      2.659881    89A      2.678519    90A      2.698206  
      91A      2.755289    92A      2.793157    93A      2.813415  
      94A      2.937967    95A      2.989422    96A      3.025565  
      97A      3.162498    98A      3.273474    99A      3.386524  
     100A      3.501000   101A      4.242930   102A      4.515262  
     103A      4.575374   104A      4.708846   105A      4.818434  
     106A      4.976447  

    Final Occupation by Irrep:
              A 
    DOCC [    24 ]

  Energy converged.

  @DF-RHF Final Energy:  -305.85898008727071

   => Energetics <=

    Nuclear Repulsion Energy =            240.0266894061547305
    One-Electron Energy =                -892.6647089477946793
    Two-Electron Energy =                 346.7790394543688421
    DFT Exchange-Correlation Energy =       0.0000000000000000
    Empirical Dispersion Energy =           0.0000000000000000
    PCM Polarization Energy =               0.0000000000000000
    EFP Energy =                            0.0000000000000000
    Total Energy =                       -305.8589800872711635

    Alert: EFP and PCM quantities not currently incorporated into SCF psivars.

Properties will be evaluated at   0.000000,   0.000000,   0.000000 Bohr
  ==> Properties <==


Properties computed using the SCF density matrix

  Nuclear Dipole Moment: (a.u.)
     X:    -9.9363      Y:    -2.2466      Z:     0.7591

  Electronic Dipole Moment: (a.u.)
     X:     9.4457      Y:     1.3436      Z:    -0.1219

  Dipole Moment: (a.u.)
     X:    -0.4907      Y:    -0.9030      Z:     0.6372     Total:     1.2092

  Dipole Moment: (Debye)
     X:    -1.2472      Y:    -2.2951      Z:     1.6196     Total:     3.0734


  Saving occupied orbitals to File 180.

*** tstop() called on cx1-1-4-4.cx1.hpc.ic.ac.uk at Fri Sep  2 13:14:26 2016
Module time:
	user time   =      10.04 seconds =       0.17 minutes
	system time =       0.13 seconds =       0.00 minutes
	total time  =          3 seconds =       0.05 minutes
Total time:
	user time   =      10.04 seconds =       0.17 minutes
	system time =       0.13 seconds =       0.00 minutes
	total time  =          3 seconds =       0.05 minutes

*** tstart() called on cx1-1-4-4.cx1.hpc.ic.ac.uk
*** at Fri Sep  2 13:14:26 2016


         ------------------------------------------------------------
                                   SCF GRAD                          
                          Rob Parrish, Justin Turney,                
                       Andy Simmonett, and Alex Sokolov              
         ------------------------------------------------------------

  ==> Geometry <==

    Molecular point group: c1
    Full point group: C1

    Geometry (in Angstrom), charge = 0, multiplicity = 1:

       Center              X                  Y                   Z               Mass       
    ------------   -----------------  -----------------  -----------------  -----------------
           H          2.344504464406    -0.948019953874     0.881478185134     1.007825032070
           O          2.021964464406    -0.858275953874    -0.009981814866    15.994914619560
           C          1.056392464406     0.060038046126    -0.010135814866    12.000000000000
           C         -0.312234535594    -0.570199953874    -0.010039814866    12.000000000000
           O          1.291179464406     1.224457046126    -0.010281814866    15.994914619560
           C         -1.448459535594     0.448077046126    -0.010677814866    12.000000000000
           H         -0.368141535594    -1.223960953874    -0.876338814866     1.007825032070
           H         -0.368373535594    -1.223024953874     0.856950185134     1.007825032070
           C         -2.820222535594    -0.224577953874    -0.010147814866    12.000000000000
           H         -1.351704535594     1.091400046126    -0.878583814866     1.007825032070
           H         -1.351603535594     1.092653046126     0.856292185134     1.007825032070
           H         -2.953830535594    -0.851850953874    -0.887072814866     1.007825032070
           H         -3.613473535594     0.515605046126    -0.010283814866     1.007825032070
           H         -2.953470535594    -0.851115953874     0.867352185134     1.007825032070

  Nuclear repulsion =  240.026689406154730

  ==> Basis Set <==

  Basis Set: 6-31G*
    Number of shells: 52
    Number of basis function: 106
    Number of Cartesian functions: 106
    Spherical Harmonics?: false
    Max angular momentum: 2

  ==> DFJKGrad: Density-Fitted SCF Gradients <==

    Gradient:                    1
    J tasked:                  Yes
    K tasked:                  Yes
    wK tasked:                  No
    OpenMP threads:              4
    Integrals threads:           4
    Memory (MB):              1430
    Schwarz Cutoff:          0E+00
    Fitting Condition:       1E-12

   => Auxiliary Basis Set <=

  Basis Set: 
    Number of shells: 216
    Number of basis function: 686
    Number of Cartesian functions: 686
    Spherical Harmonics?: false
    Max angular momentum: 3


  -Total Gradient:
     Atom            X                  Y                   Z
    ------   -----------------  -----------------  -----------------
       1       -0.007882606157     0.000080920760     0.004420463608
       2       -0.016322045121     0.018138866188    -0.008196091626
       3        0.013926253848    -0.023932293897     0.001640393960
       4        0.004092216256    -0.007960596511     0.004120384100
       5        0.004819596337     0.011352517398    -0.001143196119
       6        0.001475414502     0.001804821134    -0.000015403308
       7       -0.000326199588     0.000512665063    -0.000155985024
       8       -0.000204382634     0.000513085764    -0.000487614677
       9        0.000374534061    -0.000631784072     0.000057511314
      10       -0.000220026681     0.000123885051     0.000010034228
      11        0.000046269660    -0.000162013364    -0.000128338694
      12       -0.000042648813    -0.000029313222    -0.000021295951
      13        0.000204582774     0.000125317457    -0.000021263902
      14        0.000059041552     0.000063922248    -0.000079597908


*** tstop() called on cx1-1-4-4.cx1.hpc.ic.ac.uk at Fri Sep  2 13:14:30 2016
Module time:
	user time   =      11.96 seconds =       0.20 minutes
	system time =       0.12 seconds =       0.00 minutes
	total time  =          4 seconds =       0.07 minutes
Total time:
	user time   =      22.02 seconds =       0.37 minutes
	system time =       0.25 seconds =       0.00 minutes
	total time  =          7 seconds =       0.12 minutes
CURRENT ENERGY: -305.8589800873

			-----------------------------------------
			 OPTKING 2.0: for geometry optimizations 
			  - R.A. King,  Bethel University        
			-----------------------------------------

	Internal coordinates to be generated automatically.
	Detected frag with atoms:  1 2 3 4 5 6 7 8 9 10 11 12 13 14
	---Fragment 1 Bond Connectivity---
	 1 : 2
	 2 : 1 3
	 3 : 2 4 5
	 4 : 3 6 7 8
	 5 : 3
	 6 : 4 9 10 11
	 7 : 4
	 8 : 4
	 9 : 6 12 13 14
	 10 : 6
	 11 : 6
	 12 : 9
	 13 : 9
	 14 : 9

	Assuming in current code that numbering for constraints corresponds to unified fragment.
	Frozen dihedral atom list: 
	     1     2     3     5
	---Fragment 1 Geometry and Gradient---
	 H           4.4304713551       -1.7914980813        1.6657523620
	 O           3.8209590882       -1.6219064993       -0.0188628964
	 C           1.9962924466        0.1134554647       -0.0191539142
	 C          -0.5900377615       -1.0775217538       -0.0189725005
	 O           2.4399755761        2.3138884787       -0.0194298142
	 C          -2.7371918368        0.8467429036       -0.0201781458
	 H          -0.6956866804       -2.3129510002       -1.6560403597
	 H          -0.6961250969       -2.3111822165        1.6194011594
	 C          -5.3294482261       -0.4243908283       -0.0191765909
	 H          -2.5543513849        2.0624471886       -1.6602827949
	 H          -2.5541605225        2.0648150154        1.6181577196
	 H          -5.5819307552       -1.6097650089       -1.6763246800
	 H          -6.8284753707        0.9743523299       -0.0194335937
	 H          -5.5812504538       -1.6083760602        1.6390580907
	            -0.0078826062        0.0000809208        0.0044204636
	            -0.0163220451        0.0181388662       -0.0081960916
	             0.0139262538       -0.0239322939        0.0016403940
	             0.0040922163       -0.0079605965        0.0041203841
	             0.0048195963        0.0113525174       -0.0011431961
	             0.0014754145        0.0018048211       -0.0000154033
	            -0.0003261996        0.0005126651       -0.0001559850
	            -0.0002043826        0.0005130858       -0.0004876147
	             0.0003745341       -0.0006317841        0.0000575113
	            -0.0002200267        0.0001238851        0.0000100342
	             0.0000462697       -0.0001620134       -0.0001283387
	            -0.0000426488       -0.0000293132       -0.0000212960
	             0.0002045828        0.0001253175       -0.0000212639
	             0.0000590416        0.0000639222       -0.0000795979

	Previous optimization step data not found.  Starting new optimization.

	---Fragment 1 Intrafragment Coordinates---
	 - Coordinate -           - BOHR/RAD -       - ANG/DEG -
	 R(1,2)           =         1.799499	       0.952254
	 R(2,3)           =         2.518112	       1.332528
	 R(3,4)           =         2.847373	       1.506765
	 R(3,5)           =         2.244718	       1.187854
	 R(4,6)           =         2.883239	       1.525744
	 R(4,7)           =         2.053640	       1.086740
	 R(4,8)           =         2.053641	       1.086740
	 R(6,9)           =         2.887140	       1.527809
	 R(6,10)          =         2.049710	       1.084660
	 R(6,11)          =         2.049718	       1.084664
	 R(9,12)          =         2.053046	       1.086425
	 R(9,13)          =         2.050260	       1.084951
	 R(9,14)          =         2.053039	       1.086421
	 B(1,2,3)         =         1.886508	     108.088951
	 B(2,3,4)         =         1.949732	     111.711423
	 B(2,3,5)         =         2.132148	     122.163065
	 B(3,4,6)         =         1.979342	     113.407959
	 B(3,4,7)         =         1.873709	     107.355640
	 B(3,4,8)         =         1.873641	     107.351749
	 B(4,3,5)         =         2.201305	     126.125512
	 B(4,6,9)         =         1.954980	     112.012118
	 B(4,6,10)        =         1.906830	     109.253293
	 B(4,6,11)        =         1.906863	     109.255204
	 B(6,4,7)         =         1.942119	     111.275230
	 B(6,4,8)         =         1.942047	     111.271112
	 B(6,9,12)        =         1.943722	     111.367059
	 B(6,9,13)        =         1.934884	     110.860663
	 B(6,9,14)        =         1.943686	     111.364978
	 B(7,4,8)         =         1.846188	     105.778754
	 B(9,6,10)        =         1.919310	     109.968355
	 B(9,6,11)        =         1.919348	     109.970548
	 B(10,6,11)       =         1.853695	     106.208922
	 B(12,9,13)       =         1.879563	     107.691002
	 B(12,9,14)       =         1.879571	     107.691509
	 B(13,9,14)       =         1.879546	     107.690057
	 D(1,2,3,4)       =        -1.745287	     -99.997587
	*D(1,2,3,5)       =         1.396263	      80.000002
	 D(2,3,4,6)       =        -3.141259	    -179.980893
	 D(2,3,4,7)       =        -0.988643	     -56.645087
	 D(2,3,4,8)       =         0.989451	      56.691360
	 D(3,4,6,9)       =        -3.141300	    -179.983225
	 D(3,4,6,10)      =         1.010862	      57.918100
	 D(3,4,6,11)      =        -1.010204	     -57.880439
	 D(4,6,9,12)      =        -1.049493	     -60.131524
	 D(4,6,9,13)      =         3.141268	     179.981382
	 D(4,6,9,14)      =         1.048888	      60.096864
	 D(5,3,4,6)       =         0.000378	       0.021633
	 D(5,3,4,7)       =         2.152993	     123.357440
	 D(5,3,4,8)       =        -2.152098	    -123.306113
	 D(7,4,6,9)       =         1.027287	      58.859186
	 D(7,4,6,10)      =        -1.103737	     -63.239489
	 D(7,4,6,11)      =        -3.124803	    -179.038029
	 D(8,4,6,9)       =        -1.026843	     -58.833763
	 D(8,4,6,10)      =         3.125319	     179.067562
	 D(8,4,6,11)      =         1.104253	      63.269023
	 D(10,6,9,12)     =         1.074385	      61.557739
	 D(10,6,9,13)     =        -1.018039	     -58.329355
	 D(10,6,9,14)     =        -3.110419	    -178.213873
	 D(11,6,9,12)     =         3.109745	     178.175246
	 D(11,6,9,13)     =         1.017320	      58.288153
	 D(11,6,9,14)     =        -1.075059	     -61.596366

	Current energy   :      -305.8589800873

	Generating empirical Hessian (Schlegel '84) for each fragment.
	Taking RFO optimization step.
	Going to follow RFO solution 1.
	Using RFO vector 1.
	Norm of target step-size    0.41887
	Projected energy change by RFO approximation:        -0.0039032429

	Back-transformation to cartesian coordinates...
	Successfully converged to displaced geometry.

	Back-transformation to cartesian coordinates to adjust frozen coordinates...
	Successfully converged to displaced geometry.

	--- Internal Coordinate Step in ANG or DEG, aJ/ANG or AJ/DEG ---
	 ---------------------------------------------------------------------------
	   Coordinate                Previous        Force       Change         New 
	   ----------                --------       ------       ------       ------
	    1 R(1,2)          =      0.952254    -0.012034    -0.001340     0.950914
	    2 R(2,3)          =      1.332528     0.247950     0.026794     1.359322
	    3 R(3,4)          =      1.506765     0.021413     0.004271     1.511036
	    4 R(3,5)          =      1.187854    -0.099535    -0.005724     1.182130
	    5 R(4,6)          =      1.525744     0.004520     0.000957     1.526701
	    6 R(4,7)          =      1.086740     0.001378     0.000248     1.086988
	    7 R(4,8)          =      1.086740     0.005657     0.001017     1.087757
	    8 R(6,9)          =      1.527809     0.002694     0.000574     1.528382
	    9 R(6,10)         =      1.084660    -0.000378    -0.000067     1.084592
	   10 R(6,11)         =      1.084664     0.001604     0.000287     1.084951
	   11 R(9,12)         =      1.086425    -0.000324    -0.000058     1.086367
	   12 R(9,13)         =      1.084951     0.000528     0.000094     1.085045
	   13 R(9,14)         =      1.086421     0.000893     0.000160     1.086582
	   14 B(1,2,3)        =    108.088951     0.000896     4.082726   112.171676
	   15 B(2,3,4)        =    111.711423     0.000651     1.354023   113.065446
	   16 B(2,3,5)        =    122.163065    -0.000114    -0.932476   121.230589
	   17 B(3,4,6)        =    113.407959     0.000265     0.991604   114.399563
	   18 B(3,4,7)        =    107.355640    -0.000100    -0.274100   107.081540
	   19 B(3,4,8)        =    107.351749    -0.000103    -0.357857   106.993891
	   20 B(4,3,5)        =    126.125512    -0.000537    -2.132458   123.993054
	   21 B(4,6,9)        =    112.012118     0.000085     0.310582   112.322700
	   22 B(4,6,10)       =    109.253293    -0.000042    -0.205736   109.047557
	   23 B(4,6,11)       =    109.255204    -0.000018    -0.003220   109.251983
	   24 B(6,4,7)        =    111.275230    -0.000045    -0.022947   111.252283
	   25 B(6,4,8)        =    111.271112    -0.000054    -0.131077   111.140035
	   26 B(6,9,12)       =    111.367059    -0.000010    -0.051834   111.315225
	   27 B(6,9,13)       =    110.860663     0.000026     0.131819   110.992482
	   28 B(6,9,14)       =    111.364978     0.000001    -0.000808   111.364171
	   29 B(7,4,8)        =    105.778754     0.000018    -0.313893   105.464861
	   30 B(9,6,10)       =    109.968355    -0.000014    -0.021547   109.946808
	   31 B(9,6,11)       =    109.970548    -0.000029    -0.059276   109.911272
	   32 B(10,6,11)      =    106.208922     0.000014    -0.041720   106.167201
	   33 B(12,9,13)      =    107.691002    -0.000007    -0.022083   107.668919
	   34 B(12,9,14)      =    107.691509     0.000001    -0.022506   107.669003
	   35 B(13,9,14)      =    107.690057    -0.000012    -0.039197   107.650861
	   36 D(1,2,3,4)      =    -99.997587    -0.000057   -14.340326  -114.337914
	   37 *D(1,2,3,5)     =     80.000002     0.000000     0.000000    80.000002
	   38 D(2,3,4,6)      =   -179.980893     0.000031     8.081414  -171.899479
	   39 D(2,3,4,7)      =    -56.645087     0.000041     8.510129   -48.134958
	   40 D(2,3,4,8)      =     56.691360     0.000024     7.854695    64.546055
	   41 D(3,4,6,9)      =   -179.983225     0.000001     0.020888  -179.962337
	   42 D(3,4,6,10)     =     57.918100    -0.000001    -0.014737    57.903364
	   43 D(3,4,6,11)     =    -57.880439     0.000003     0.151080   -57.729359
	   44 D(4,6,9,12)     =    -60.131524     0.000002     0.098646   -60.032878
	   45 D(4,6,9,13)     =    179.981382     0.000002     0.072657   180.054040
	   46 D(4,6,9,14)     =     60.096864     0.000001     0.034250    60.131114
	   47 D(5,3,4,6)      =      0.021633    -0.000029    -6.718441    -6.696807
	   48 D(5,3,4,7)      =    123.357440    -0.000018    -6.289726   117.067714
	   49 D(5,3,4,8)      =   -123.306113    -0.000036    -6.945160  -130.251273
	   50 D(7,4,6,9)      =     58.859186    -0.000005    -0.321296    58.537890
	   51 D(7,4,6,10)     =    -63.239489    -0.000007    -0.356920   -63.596409
	   52 D(7,4,6,11)     =   -179.038029    -0.000003    -0.191104  -179.229132
	   53 D(8,4,6,9)      =    -58.833763     0.000005     0.169346   -58.664417
	   54 D(8,4,6,10)     =    179.067562     0.000002     0.133722   179.201285
	   55 D(8,4,6,11)     =     63.269023     0.000006     0.299539    63.568561
	   56 D(10,6,9,12)    =     61.557739     0.000001     0.031726    61.589465
	   57 D(10,6,9,13)    =    -58.329355     0.000000     0.005737   -58.323618
	   58 D(10,6,9,14)    =   -178.213873    -0.000000    -0.032670  -178.246543
	   59 D(11,6,9,12)    =    178.175246    -0.000001    -0.066447   178.108799
	   60 D(11,6,9,13)    =     58.288153    -0.000002    -0.092436    58.195717
	   61 D(11,6,9,14)    =    -61.596366    -0.000002    -0.130843   -61.727209
	 ---------------------------------------------------------------------------

  ==> Convergence Check <==

  Measures of convergence in internal coordinates in au.
  Criteria marked as inactive (o), active & met (*), and active & unmet ( ).
  --------------------------------------------------------------------------------------------- ~
   Step     Total Energy     Delta E     MAX Force     RMS Force      MAX Disp      RMS Disp    ~
  --------------------------------------------------------------------------------------------- ~
    Convergence Criteria    1.00e-06 *    3.00e-04 *             o    1.20e-03 *             o  ~
  --------------------------------------------------------------------------------------------- ~
      1    -305.85898009   -3.06e+02      3.01e-02      4.75e-03 o    2.50e-01      5.35e-02 o  ~
  ---------------------------------------------------------------------------------------------

	Writing optimization data to binary file.
	Structure for next step:
	Cartesian Geometry (in Angstrom)
	    H     2.5709605196  -0.9512174926   0.7433010636
	    O     2.0428229421  -0.8736649577  -0.0436512795
	    C     1.0502122111   0.0448995348   0.0931643766
	    C    -0.3313717643  -0.5654415971   0.0491415377
	    O     1.2656607759   1.2016586860  -0.0205107544
	    C    -1.4690320899   0.4516680132   0.0040519945
	    H    -0.3605607529  -1.2276902195  -0.8123203989
	    H    -0.4198769841  -1.2147968677   0.9173124017
	    C    -2.8432407973  -0.2159370097  -0.0384538764
	    H    -1.3401184992   1.0886684565  -0.8642523762
	    H    -1.4011978089   1.1028596886   0.8691913158
	    H    -2.9479171762  -0.8486905206  -0.9153001740
	    H    -3.6347635459   0.5255182549  -0.0709939810
	    H    -3.0090513552  -0.8366305004   0.8378487994
			--------------------------
			 OPTKING Finished Execution 
			--------------------------

    Structure for next step:
    Molecular point group: c1
    Full point group: C1

    Geometry (in Angstrom), charge = 0, multiplicity = 1:

    H            2.580355814528    -0.944948850804     0.732183951966
    O            2.052218277429    -0.867396321790    -0.054768331030
    C            1.059607622246     0.051168100579     0.082047314668
    C           -0.321976247745    -0.559172984727     0.038024479113
    O            1.275056170589     1.207927163397    -0.031627807737
    C           -1.459636486424     0.457936547943    -0.007065060658
    H           -0.351165234024    -1.221421556537    -0.823437391740
    H           -0.410481460770    -1.208528205775     0.906195276777
    C           -2.833845088920    -0.209668423990    -0.049570928285
    H           -1.330722905522     1.094936942520    -0.875369365069
    H           -1.391802210592     1.109128173616     0.858074194603
    H           -2.938521459833    -0.842421886620    -0.926417158944
    H           -3.625367777018     0.531786783924    -0.082111030416
    H           -2.999655634086    -0.830361867283     0.826731680582

gradient() will perform analytic gradient computation.

*** tstart() called on cx1-1-4-4.cx1.hpc.ic.ac.uk
*** at Fri Sep  2 13:14:31 2016


         ---------------------------------------------------------
                                   SCF
            by Justin Turney, Rob Parrish, and Andy Simmonett
                              RHF Reference
                        4 Threads,   2000 MiB Core
         ---------------------------------------------------------

  ==> Geometry <==

    Molecular point group: c1
    Full point group: C1

    Geometry (in Angstrom), charge = 0, multiplicity = 1:

       Center              X                  Y                   Z               Mass       
    ------------   -----------------  -----------------  -----------------  -----------------
           H          2.580355814528    -0.944948850804     0.732183951966     1.007825032070
           O          2.052218277429    -0.867396321790    -0.054768331030    15.994914619560
           C          1.059607622246     0.051168100579     0.082047314668    12.000000000000
           C         -0.321976247745    -0.559172984727     0.038024479113    12.000000000000
           O          1.275056170589     1.207927163397    -0.031627807737    15.994914619560
           C         -1.459636486424     0.457936547943    -0.007065060658    12.000000000000
           H         -0.351165234024    -1.221421556537    -0.823437391740     1.007825032070
           H         -0.410481460770    -1.208528205775     0.906195276777     1.007825032070
           C         -2.833845088920    -0.209668423990    -0.049570928285    12.000000000000
           H         -1.330722905522     1.094936942520    -0.875369365069     1.007825032070
           H         -1.391802210592     1.109128173616     0.858074194603     1.007825032070
           H         -2.938521459833    -0.842421886620    -0.926417158944     1.007825032070
           H         -3.625367777018     0.531786783924    -0.082111030416     1.007825032070
           H         -2.999655634086    -0.830361867283     0.826731680582     1.007825032070

  Running in c1 symmetry.

  Rotational constants: A =      0.30397  B =      0.06083  C =      0.05235 [cm^-1]
  Rotational constants: A =   9112.68493  B =   1823.55818  C =   1569.34232 [MHz]
  Nuclear repulsion =  239.019971377878477

  Charge       = 0
  Multiplicity = 1
  Electrons    = 48
  Nalpha       = 24
  Nbeta        = 24

  ==> Algorithm <==

  SCF Algorithm Type is DF.
  DIIS enabled.
  MOM disabled.
  Fractional occupation disabled.
  Guess Type is READ.
  Energy threshold   = 1.00e-08
  Density threshold  = 1.00e-08
  Integral threshold = 0.00e+00

  ==> Primary Basis <==

  Basis Set: 6-31G*
    Number of shells: 52
    Number of basis function: 106
    Number of Cartesian functions: 106
    Spherical Harmonics?: false
    Max angular momentum: 2

  ==> Pre-Iterations <==

   -------------------------------------------------------
    Irrep   Nso     Nmo     Nalpha   Nbeta   Ndocc  Nsocc
   -------------------------------------------------------
     A        106     106       0       0       0       0
   -------------------------------------------------------
    Total     106     106      24      24      24       0
   -------------------------------------------------------

 OEINTS: Overlap, kinetic, potential, dipole, and quadrupole integrals
         stored in file 35.

  ==> Integral Setup <==

  ==> DFJK: Density-Fitted J/K Matrices <==

    J tasked:                  Yes
    K tasked:                  Yes
    wK tasked:                  No
    OpenMP threads:              4
    Integrals threads:           4
    Memory (MB):              1430
    Algorithm:                Core
    Integral Cache:           NONE
    Schwarz Cutoff:          1E-12
    Fitting Condition:       1E-12

   => Auxiliary Basis Set <=

  Basis Set: 
    Number of shells: 216
    Number of basis function: 686
    Number of Cartesian functions: 686
    Spherical Harmonics?: false
    Max angular momentum: 3

  Minimum eigenvalue in the overlap matrix is 3.2647429017E-03.
  Using Symmetric Orthogonalization.
  SCF Guess: Reading in previously saved MOs, projecting if necessary.

  Using orbitals from previous SCF, no projection.
  Recomputing DOCC and SOCC from number of alpha and beta electrons from previous calculation.
              A 
    DOCC [    24 ]

  ==> Iterations <==

                           Total Energy        Delta E     RMS |[F,P]|

   @DF-RHF iter   0:  -305.81784183551042   -3.05818e+02   2.56499e-03 
   @DF-RHF iter   1:  -305.85646841080450   -3.86266e-02   4.33874e-04 
   @DF-RHF iter   2:  -305.85831053291747   -1.84212e-03   1.69359e-04 DIIS
   @DF-RHF iter   3:  -305.85863583920241   -3.25306e-04   8.86183e-05 DIIS
   @DF-RHF iter   4:  -305.85870599437601   -7.01552e-05   2.45153e-05 DIIS
   @DF-RHF iter   5:  -305.85871644985309   -1.04555e-05   1.29373e-05 DIIS
   @DF-RHF iter   6:  -305.85871974094164   -3.29109e-06   4.66098e-06 DIIS
   @DF-RHF iter   7:  -305.85872019936608   -4.58424e-07   2.20375e-06 DIIS
   @DF-RHF iter   8:  -305.85872032323448   -1.23868e-07   8.19052e-07 DIIS
   @DF-RHF iter   9:  -305.85872034252509   -1.92906e-08   2.14824e-07 DIIS
   @DF-RHF iter  10:  -305.85872034360375   -1.07866e-09   6.62972e-08 DIIS
   @DF-RHF iter  11:  -305.85872034367731   -7.35554e-11   2.41781e-08 DIIS
   @DF-RHF iter  12:  -305.85872034368867   -1.13687e-11   8.29277e-09 DIIS

  ==> Post-Iterations <==

    Orbital Energies (a.u.)
    -----------------------

    Doubly Occupied:                                                      

       1A    -20.597039     2A    -20.560824     3A    -11.381161  
       4A    -11.241566     5A    -11.225759     6A    -11.217655  
       7A     -1.460766     8A     -1.365971     9A     -1.080831  
      10A     -0.975634    11A     -0.852699    12A     -0.794994  
      13A     -0.707294    14A     -0.676490    15A     -0.661449  
      16A     -0.627709    17A     -0.577621    18A     -0.558276  
      19A     -0.542739    20A     -0.503721    21A     -0.494841  
      22A     -0.482683    23A     -0.479921    24A     -0.443253  

    Virtual:                                                              

      25A      0.173234    26A      0.210067    27A      0.235339  
      28A      0.281024    29A      0.289151    30A      0.303758  
      31A      0.326340    32A      0.338453    33A      0.350818  
      34A      0.392231    35A      0.419649    36A      0.457516  
      37A      0.518110    38A      0.547650    39A      0.734119  
      40A      0.736523    41A      0.750921    42A      0.754103  
      43A      0.782279    44A      0.845023    45A      0.856838  
      46A      0.939985    47A      0.950889    48A      0.962938  
      49A      1.046246    50A      1.055367    51A      1.076239  
      52A      1.092637    53A      1.115440    54A      1.129543  
      55A      1.157560    56A      1.173178    57A      1.195599  
      58A      1.215270    59A      1.221081    60A      1.223955  
      61A      1.252688    62A      1.267018    63A      1.302670  
      64A      1.352460    65A      1.398108    66A      1.449775  
      67A      1.616626    68A      1.639887    69A      1.709079  
      70A      1.782475    71A      1.799478    72A      1.877218  
      73A      1.974616    74A      2.016033    75A      2.037587  
      76A      2.070432    77A      2.094654    78A      2.143752  
      79A      2.154805    80A      2.236854    81A      2.264548  
      82A      2.275133    83A      2.293643    84A      2.338215  
      85A      2.368351    86A      2.467794    87A      2.536866  
      88A      2.648455    89A      2.673344    90A      2.694253  
      91A      2.758736    92A      2.763209    93A      2.839178  
      94A      2.942623    95A      2.984605    96A      3.035233  
      97A      3.126755    98A      3.260897    99A      3.385904  
     100A      3.475648   101A      4.232730   102A      4.479356  
     103A      4.554903   104A      4.688361   105A      4.808566  
     106A      4.969246  

    Final Occupation by Irrep:
              A 
    DOCC [    24 ]

  Energy converged.

  @DF-RHF Final Energy:  -305.85872034368867

   => Energetics <=

    Nuclear Repulsion Energy =            239.0199713778784769
    One-Electron Energy =                -890.7355975264451899
    Two-Electron Energy =                 345.8569058048781244
    DFT Exchange-Correlation Energy =       0.0000000000000000
    Empirical Dispersion Energy =           0.0000000000000000
    PCM Polarization Energy =               0.0000000000000000
    EFP Energy =                            0.0000000000000000
    Total Energy =                       -305.8587203436885602

    Alert: EFP and PCM quantities not currently incorporated into SCF psivars.

Properties will be evaluated at   0.000000,   0.000000,   0.000000 Bohr
  ==> Properties <==


Properties computed using the SCF density matrix

  Nuclear Dipole Moment: (a.u.)
     X:    -9.7968      Y:    -2.1656      Z:     0.5769

  Electronic Dipole Moment: (a.u.)
     X:     9.4424      Y:     1.3129      Z:     0.1069

  Dipole Moment: (a.u.)
     X:    -0.3545      Y:    -0.8527      Z:     0.6838     Total:     1.1491

  Dipole Moment: (Debye)
     X:    -0.9010      Y:    -2.1675      Z:     1.7381     Total:     2.9207


  Saving occupied orbitals to File 180.

*** tstop() called on cx1-1-4-4.cx1.hpc.ic.ac.uk at Fri Sep  2 13:14:34 2016
Module time:
	user time   =       9.26 seconds =       0.15 minutes
	system time =       0.14 seconds =       0.00 minutes
	total time  =          3 seconds =       0.05 minutes
Total time:
	user time   =      32.69 seconds =       0.54 minutes
	system time =       0.45 seconds =       0.01 minutes
	total time  =         11 seconds =       0.18 minutes

*** tstart() called on cx1-1-4-4.cx1.hpc.ic.ac.uk
*** at Fri Sep  2 13:14:34 2016


         ------------------------------------------------------------
                                   SCF GRAD                          
                          Rob Parrish, Justin Turney,                
                       Andy Simmonett, and Alex Sokolov              
         ------------------------------------------------------------

  ==> Geometry <==

    Molecular point group: c1
    Full point group: C1

    Geometry (in Angstrom), charge = 0, multiplicity = 1:

       Center              X                  Y                   Z               Mass       
    ------------   -----------------  -----------------  -----------------  -----------------
           H          2.580355814528    -0.944948850804     0.732183951966     1.007825032070
           O          2.052218277429    -0.867396321790    -0.054768331030    15.994914619560
           C          1.059607622246     0.051168100579     0.082047314668    12.000000000000
           C         -0.321976247745    -0.559172984727     0.038024479113    12.000000000000
           O          1.275056170589     1.207927163397    -0.031627807737    15.994914619560
           C         -1.459636486424     0.457936547943    -0.007065060658    12.000000000000
           H         -0.351165234024    -1.221421556537    -0.823437391740     1.007825032070
           H         -0.410481460770    -1.208528205775     0.906195276777     1.007825032070
           C         -2.833845088920    -0.209668423990    -0.049570928285    12.000000000000
           H         -1.330722905522     1.094936942520    -0.875369365069     1.007825032070
           H         -1.391802210592     1.109128173616     0.858074194603     1.007825032070
           H         -2.938521459833    -0.842421886620    -0.926417158944     1.007825032070
           H         -3.625367777018     0.531786783924    -0.082111030416     1.007825032070
           H         -2.999655634086    -0.830361867283     0.826731680582     1.007825032070

  Nuclear repulsion =  239.019971377878477

  ==> Basis Set <==

  Basis Set: 6-31G*
    Number of shells: 52
    Number of basis function: 106
    Number of Cartesian functions: 106
    Spherical Harmonics?: false
    Max angular momentum: 2

  ==> DFJKGrad: Density-Fitted SCF Gradients <==

    Gradient:                    1
    J tasked:                  Yes
    K tasked:                  Yes
    wK tasked:                  No
    OpenMP threads:              4
    Integrals threads:           4
    Memory (MB):              1430
    Schwarz Cutoff:          0E+00
    Fitting Condition:       1E-12

   => Auxiliary Basis Set <=

  Basis Set: 
    Number of shells: 216
    Number of basis function: 686
    Number of Cartesian functions: 686
    Spherical Harmonics?: false
    Max angular momentum: 3


  -Total Gradient:
     Atom            X                  Y                   Z
    ------   -----------------  -----------------  -----------------
       1       -0.003579293139    -0.004832353040     0.003438574390
       2        0.004544581591     0.009326290537    -0.015612968729
       3        0.004010843585    -0.006711655755     0.039894233265
       4       -0.001113034642     0.003078639423    -0.010496816081
       5       -0.002000969751    -0.001194936878    -0.017005460956
       6       -0.001528322693    -0.000936932496    -0.000099923577
       7       -0.001877130903    -0.000697636303     0.000021589679
       8        0.002319568196     0.001507345288     0.000102133943
       9       -0.000618023515     0.000761380089    -0.000206537947
      10       -0.000012755025     0.000017364674    -0.000066962238
      11        0.000144620494    -0.000151403805    -0.000080750455
      12        0.000035391279     0.000021518140     0.000018694583
      13       -0.000347876271    -0.000185330025     0.000043358927
      14        0.000022400794    -0.000002289850     0.000050835195


*** tstop() called on cx1-1-4-4.cx1.hpc.ic.ac.uk at Fri Sep  2 13:14:37 2016
Module time:
	user time   =      12.25 seconds =       0.20 minutes
	system time =       0.12 seconds =       0.00 minutes
	total time  =          3 seconds =       0.05 minutes
Total time:
	user time   =      44.95 seconds =       0.75 minutes
	system time =       0.57 seconds =       0.01 minutes
	total time  =         14 seconds =       0.23 minutes
CURRENT ENERGY: -305.8587203437

			-----------------------------------------
			 OPTKING 2.0: for geometry optimizations 
			  - R.A. King,  Bethel University        
			-----------------------------------------

	Previous internal coordinate definitions found.
	---Fragment 1 Geometry and Gradient---
	 H           4.8761658149       -1.7856945376        1.3836271481
	 O           3.8781305092       -1.6391414969       -0.1034971464
	 C           2.0023682144        0.0966936968        0.1550469547
	 C          -0.6084469295       -1.0566838020        0.0718558519
	 O           2.4095069665        2.2826515273       -0.0597678948
	 C          -2.7583132129        0.8653746619       -0.0133510298
	 H          -0.6636061197       -2.3081522347       -1.5560711580
	 H          -0.7756975435       -2.2837873328        1.7124608960
	 C          -5.3551911211       -0.3962159001       -0.0936754786
	 H          -2.5147018502        2.0691309541       -1.6542083651
	 H          -2.6301250092        2.0959484944        1.6215252295
	 H          -5.5530007947       -1.5919466541       -1.7506747152
	 H          -6.8509522296        1.0049313827       -0.1551673600
	 H          -5.6685276414       -1.5691565204        1.5622964617
	            -0.0035792931       -0.0048323530        0.0034385744
	             0.0045445816        0.0093262905       -0.0156129687
	             0.0040108436       -0.0067116558        0.0398942333
	            -0.0011130346        0.0030786394       -0.0104968161
	            -0.0020009698       -0.0011949369       -0.0170054610
	            -0.0015283227       -0.0009369325       -0.0000999236
	            -0.0018771309       -0.0006976363        0.0000215897
	             0.0023195682        0.0015073453        0.0001021339
	            -0.0006180235        0.0007613801       -0.0002065379
	            -0.0000127550        0.0000173647       -0.0000669622
	             0.0001446205       -0.0001514038       -0.0000807505
	             0.0000353913        0.0000215181        0.0000186946
	            -0.0003478763       -0.0001853300        0.0000433589
	             0.0000224008       -0.0000022898        0.0000508352

	---Fragment 1 Intrafragment Coordinates---
	 - Coordinate -           - BOHR/RAD -       - ANG/DEG -
	 R(1,2)           =         1.796967	       0.950914
	 R(2,3)           =         2.568745	       1.359322
	 R(3,4)           =         2.855443	       1.511036
	 R(3,5)           =         2.233902	       1.182130
	 R(4,6)           =         2.885047	       1.526701
	 R(4,7)           =         2.054109	       1.086988
	 R(4,8)           =         2.055563	       1.087757
	 R(6,9)           =         2.888224	       1.528382
	 R(6,10)          =         2.049583	       1.084592
	 R(6,11)          =         2.050260	       1.084951
	 R(9,12)          =         2.052936	       1.086367
	 R(9,13)          =         2.050438	       1.085045
	 R(9,14)          =         2.053342	       1.086582
	 B(1,2,3)         =         1.957765	     112.171676
	 B(2,3,4)         =         1.973364	     113.065446
	 B(2,3,5)         =         2.115873	     121.230589
	 B(3,4,6)         =         1.996649	     114.399563
	 B(3,4,7)         =         1.868925	     107.081540
	 B(3,4,8)         =         1.867396	     106.993891
	 B(4,3,5)         =         2.164087	     123.993054
	 B(4,6,9)         =         1.960401	     112.322700
	 B(4,6,10)        =         1.903239	     109.047557
	 B(4,6,11)        =         1.906807	     109.251983
	 B(6,4,7)         =         1.941719	     111.252283
	 B(6,4,8)         =         1.939760	     111.140035
	 B(6,9,12)        =         1.942817	     111.315225
	 B(6,9,13)        =         1.937184	     110.992482
	 B(6,9,14)        =         1.943671	     111.364171
	 B(7,4,8)         =         1.840709	     105.464861
	 B(9,6,10)        =         1.918934	     109.946808
	 B(9,6,11)        =         1.918314	     109.911272
	 B(10,6,11)       =         1.852967	     106.167201
	 B(12,9,13)       =         1.879177	     107.668919
	 B(12,9,14)       =         1.879179	     107.669003
	 B(13,9,14)       =         1.878862	     107.650861
	 D(1,2,3,4)       =        -1.995573	    -114.337914
	*D(1,2,3,5)       =         1.396263	      80.000002
	 D(2,3,4,6)       =        -3.000212	    -171.899479
	 D(2,3,4,7)       =        -0.840114	     -48.134958
	 D(2,3,4,8)       =         1.126541	      64.546055
	 D(3,4,6,9)       =        -3.140935	    -179.962337
	 D(3,4,6,10)      =         1.010604	      57.903364
	 D(3,4,6,11)      =        -1.007567	     -57.729359
	 D(4,6,9,12)      =        -1.047771	     -60.032878
	 D(4,6,9,13)      =        -3.140649	    -179.945960
	 D(4,6,9,14)      =         1.049486	      60.131114
	 D(5,3,4,6)       =        -0.116881	      -6.696807
	 D(5,3,4,7)       =         2.043217	     117.067714
	 D(5,3,4,8)       =        -2.273314	    -130.251273
	 D(7,4,6,9)       =         1.021679	      58.537890
	 D(7,4,6,10)      =        -1.109967	     -63.596409
	 D(7,4,6,11)      =        -3.128138	    -179.229132
	 D(8,4,6,9)       =        -1.023887	     -58.664417
	 D(8,4,6,10)      =         3.127652	     179.201285
	 D(8,4,6,11)      =         1.109481	      63.568561
	 D(10,6,9,12)     =         1.074939	      61.589465
	 D(10,6,9,13)     =        -1.017939	     -58.323618
	 D(10,6,9,14)     =        -3.110989	    -178.246543
	 D(11,6,9,12)     =         3.108585	     178.108799
	 D(11,6,9,13)     =         1.015707	      58.195717
	 D(11,6,9,14)     =        -1.077343	     -61.727209

	Current energy   :      -305.8587203437

	Energy change for the previous step:
		Projected    :        -0.0039032429
		Actual       :         0.0002597436

	Performing BFGS update.
	Previous computed or guess Hessian on step 1.
	Steps to be used in Hessian update: 1
	Taking RFO optimization step.
	Going to follow RFO solution 1.
	Using RFO vector 1.
	Norm of target step-size    0.35978
	Projected energy change by RFO approximation:        -0.0027061141

	Back-transformation to cartesian coordinates...
	Successfully converged to displaced geometry.

	Back-transformation to cartesian coordinates to adjust frozen coordinates...
	Successfully converged to displaced geometry.

	--- Internal Coordinate Step in ANG or DEG, aJ/ANG or AJ/DEG ---
	 ---------------------------------------------------------------------------
	   Coordinate                Previous        Force       Change         New 
	   ----------                --------       ------       ------       ------
	    1 R(1,2)          =      0.950914    -0.010314    -0.001400     0.949514
	    2 R(2,3)          =      1.359322     0.009117     0.016122     1.375444
	    3 R(3,4)          =      1.511036    -0.013627     0.001013     1.512048
	    4 R(3,5)          =      1.182130    -0.000834    -0.003358     1.178772
	    5 R(4,6)          =      1.526701    -0.011621    -0.000774     1.525927
	    6 R(4,7)          =      1.086988    -0.003776    -0.000223     1.086764
	    7 R(4,8)          =      1.087757     0.008297     0.001398     1.089156
	    8 R(6,9)          =      1.528382    -0.004606    -0.000197     1.528185
	    9 R(6,10)         =      1.084592    -0.000513    -0.000089     1.084504
	   10 R(6,11)         =      1.084951     0.001205     0.000283     1.085234
	   11 R(9,12)         =      1.086367     0.000256    -0.000009     1.086358
	   12 R(9,13)         =      1.085045    -0.001037    -0.000045     1.085000
	   13 R(9,14)         =      1.086582    -0.000320     0.000062     1.086644
	   14 B(1,2,3)        =    112.171676     0.000025     2.429078   114.600754
	   15 B(2,3,4)        =    113.065446    -0.000324     1.082388   114.147834
	   16 B(2,3,5)        =    121.230589     0.000188     0.580404   121.810993
	   17 B(3,4,6)        =    114.399563    -0.000197     0.207167   114.606729
	   18 B(3,4,7)        =    107.081540    -0.000091    -0.805074   106.276466
	   19 B(3,4,8)        =    106.993891     0.000244     0.727156   107.721047
	   20 B(4,3,5)        =    123.993054     0.000284     0.021603   124.014657
	   21 B(4,6,9)        =    112.322700    -0.000103    -0.022485   112.300215
	   22 B(4,6,10)       =    109.047557     0.000028    -0.083696   108.963861
	   23 B(4,6,11)       =    109.251983     0.000042     0.089730   109.341714
	   24 B(6,4,7)        =    111.252283     0.000153     0.131454   111.383737
	   25 B(6,4,8)        =    111.140035    -0.000056    -0.084287   111.055747
	   26 B(6,9,12)       =    111.315225     0.000010    -0.002716   111.312509
	   27 B(6,9,13)       =    110.992482    -0.000043    -0.044178   110.948304
	   28 B(6,9,14)       =    111.364171     0.000012     0.038080   111.402251
	   29 B(7,4,8)        =    105.464861    -0.000039    -0.215788   105.249074
	   30 B(9,6,10)       =    109.946808     0.000033     0.034051   109.980859
	   31 B(9,6,11)       =    109.911272     0.000022    -0.014860   109.896412
	   32 B(10,6,11)      =    106.167201    -0.000017    -0.001627   106.165574
	   33 B(12,9,13)      =    107.668919     0.000013    -0.000485   107.668434
	   34 B(12,9,14)      =    107.669003    -0.000004     0.002272   107.671275
	   35 B(13,9,14)      =    107.650861     0.000015     0.007454   107.658314
	   36 D(1,2,3,4)      =   -114.337914     0.000147    12.535737  -101.802176
	   37 *D(1,2,3,5)     =     80.000002    -0.000000    -0.000000    80.000002
	   38 D(2,3,4,6)      =   -171.899479    -0.000078    -6.405964  -178.305443
	   39 D(2,3,4,7)      =    -48.134958    -0.000079    -6.700957   -54.835915
	   40 D(2,3,4,8)      =     64.546055    -0.000073    -6.989717    57.556339
	   41 D(3,4,6,9)      =   -179.962337    -0.000021    -0.641726  -180.604064
	   42 D(3,4,6,10)     =     57.903364    -0.000020    -0.611342    57.292022
	   43 D(3,4,6,11)     =    -57.729359    -0.000024    -0.612418   -58.341777
	   44 D(4,6,9,12)     =    -60.032878    -0.000000     0.075245   -59.957632
	   45 D(4,6,9,13)     =   -179.945960     0.000001     0.107286  -179.838675
	   46 D(4,6,9,14)     =     60.131114     0.000002     0.102143    60.233257
	   47 D(5,3,4,6)      =     -6.696807     0.000069     6.543736    -0.153072
	   48 D(5,3,4,7)      =    117.067714     0.000068     6.248743   123.316456
	   49 D(5,3,4,8)      =   -130.251273     0.000074     5.959983  -124.291290
	   50 D(7,4,6,9)      =     58.537890     0.000013     0.168446    58.706336
	   51 D(7,4,6,10)     =    -63.596409     0.000014     0.198831   -63.397578
	   52 D(7,4,6,11)     =   -179.229132     0.000010     0.197754  -179.031378
	   53 D(8,4,6,9)      =    -58.664417     0.000010     0.407722   -58.256694
	   54 D(8,4,6,10)     =    179.201285     0.000011     0.438107   179.639392
	   55 D(8,4,6,11)     =     63.568561     0.000007     0.437030    64.005592
	   56 D(10,6,9,12)    =     61.589465    -0.000003    -0.022828    61.566637
	   57 D(10,6,9,13)    =    -58.323618    -0.000001     0.009213   -58.314405
	   58 D(10,6,9,14)    =   -178.246543    -0.000001     0.004070  -178.242474
	   59 D(11,6,9,12)    =    178.108799    -0.000000    -0.013570   178.095230
	   60 D(11,6,9,13)    =     58.195717     0.000001     0.018471    58.214187
	   61 D(11,6,9,14)    =    -61.727209     0.000002     0.013328   -61.713881
	 ---------------------------------------------------------------------------

  ==> Convergence Check <==

  Measures of convergence in internal coordinates in au.
  Criteria marked as inactive (o), active & met (*), and active & unmet ( ).
  ---------------------------------------------------------------------------------------------
   Step     Total Energy     Delta E     MAX Force     RMS Force      MAX Disp      RMS Disp   
  ---------------------------------------------------------------------------------------------
    Convergence Criteria    1.00e-06 *    3.00e-04 *             o    1.20e-03 *             o
  ---------------------------------------------------------------------------------------------
      2    -305.85872034    2.60e-04      8.44e-03      2.06e-03 o    2.19e-01      4.60e-02 o  ~
  ---------------------------------------------------------------------------------------------

	Writing optimization data to binary file.
	Structure for next step:
	Cartesian Geometry (in Angstrom)
	    H     2.5071349879  -0.9983781830   0.8209536518
	    O     2.0893842796  -0.8540235341  -0.0194173105
	    C     1.0658630520   0.0645976842   0.0002217255
	    C    -0.3160873181  -0.5490007168   0.0009332718
	    O     1.2720825689   1.2250705871  -0.0165124442
	    C    -1.4597444254   0.4610131475  -0.0183819673
	    H    -0.3564024504  -1.2097827184  -0.8609245202
	    H    -0.3873916595  -1.2043462335   0.8679383342
	    C    -2.8302245972  -0.2149727493  -0.0316991198
	    H    -1.3524172853   1.0983420984  -0.8892671044
	    H    -1.3779724803   1.1131473615   0.8451957409
	    H    -2.9494711486  -0.8485995656  -0.9060395959
	    H    -3.6262071003   0.5221602773  -0.0481738209
	    H    -2.9744838602  -0.8362640113   0.8480630281
			--------------------------
			 OPTKING Finished Execution 
			--------------------------

    Structure for next step:
    Molecular point group: c1
    Full point group: C1

    Geometry (in Angstrom), charge = 0, multiplicity = 1:

    H            2.499360482750    -1.006240434981     0.826390773598
    O            2.081609806278    -0.861885797127    -0.013980124538
    C            1.058088656911     0.056735351073     0.005658909998
    C           -0.323861607637    -0.556863003045     0.006370456229
    O            1.264308158011     1.217208165344    -0.011075258417
    C           -1.467518627647     0.453150784109    -0.012944781408
    H           -0.364176736949    -1.217644954247    -0.855487269930
    H           -0.395165943615    -1.212208469796     0.873375452384
    C           -2.837998694833    -0.222835061087    -0.026261932916
    H           -1.360191495704     1.090479686357    -0.883829852029
    H           -1.385746688811     1.105284948298     0.850632860823
    H           -2.957245237114    -0.856461829024    -0.900602342259
    H           -3.633981137072     0.514297909211    -0.042736632764
    H           -2.982257946784    -0.844126275676     0.853500147792

gradient() will perform analytic gradient computation.

*** tstart() called on cx1-1-4-4.cx1.hpc.ic.ac.uk
*** at Fri Sep  2 13:14:37 2016


         ---------------------------------------------------------
                                   SCF
            by Justin Turney, Rob Parrish, and Andy Simmonett
                              RHF Reference
                        4 Threads,   2000 MiB Core
         ---------------------------------------------------------

  ==> Geometry <==

    Molecular point group: c1
    Full point group: C1

    Geometry (in Angstrom), charge = 0, multiplicity = 1:

       Center              X                  Y                   Z               Mass       
    ------------   -----------------  -----------------  -----------------  -----------------
           H          2.499360482750    -1.006240434981     0.826390773598     1.007825032070
           O          2.081609806278    -0.861885797127    -0.013980124538    15.994914619560
           C          1.058088656911     0.056735351073     0.005658909998    12.000000000000
           C         -0.323861607637    -0.556863003045     0.006370456229    12.000000000000
           O          1.264308158011     1.217208165344    -0.011075258417    15.994914619560
           C         -1.467518627647     0.453150784109    -0.012944781408    12.000000000000
           H         -0.364176736949    -1.217644954247    -0.855487269930     1.007825032070
           H         -0.395165943615    -1.212208469796     0.873375452384     1.007825032070
           C         -2.837998694833    -0.222835061087    -0.026261932916    12.000000000000
           H         -1.360191495704     1.090479686357    -0.883829852029     1.007825032070
           H         -1.385746688811     1.105284948298     0.850632860823     1.007825032070
           H         -2.957245237114    -0.856461829024    -0.900602342259     1.007825032070
           H         -3.633981137072     0.514297909211    -0.042736632764     1.007825032070
           H         -2.982257946784    -0.844126275676     0.853500147792     1.007825032070

  Running in c1 symmetry.

  Rotational constants: A =      0.30233  B =      0.06046  C =      0.05201 [cm^-1]
  Rotational constants: A =   9063.70255  B =   1812.43082  C =   1559.18053 [MHz]
  Nuclear repulsion =  238.430887876104663

  Charge       = 0
  Multiplicity = 1
  Electrons    = 48
  Nalpha       = 24
  Nbeta        = 24

  ==> Algorithm <==

  SCF Algorithm Type is DF.
  DIIS enabled.
  MOM disabled.
  Fractional occupation disabled.
  Guess Type is READ.
  Energy threshold   = 1.00e-08
  Density threshold  = 1.00e-08
  Integral threshold = 0.00e+00

  ==> Primary Basis <==

  Basis Set: 6-31G*
    Number of shells: 52
    Number of basis function: 106
    Number of Cartesian functions: 106
    Spherical Harmonics?: false
    Max angular momentum: 2

  ==> Pre-Iterations <==

   -------------------------------------------------------
    Irrep   Nso     Nmo     Nalpha   Nbeta   Ndocc  Nsocc
   -------------------------------------------------------
     A        106     106       0       0       0       0
   -------------------------------------------------------
    Total     106     106      24      24      24       0
   -------------------------------------------------------

 OEINTS: Overlap, kinetic, potential, dipole, and quadrupole integrals
         stored in file 35.

  ==> Integral Setup <==

  ==> DFJK: Density-Fitted J/K Matrices <==

    J tasked:                  Yes
    K tasked:                  Yes
    wK tasked:                  No
    OpenMP threads:              4
    Integrals threads:           4
    Memory (MB):              1430
    Algorithm:                Core
    Integral Cache:           NONE
    Schwarz Cutoff:          1E-12
    Fitting Condition:       1E-12

   => Auxiliary Basis Set <=

  Basis Set: 
    Number of shells: 216
    Number of basis function: 686
    Number of Cartesian functions: 686
    Spherical Harmonics?: false
    Max angular momentum: 3

  Minimum eigenvalue in the overlap matrix is 3.2188211155E-03.
  Using Symmetric Orthogonalization.
  SCF Guess: Reading in previously saved MOs, projecting if necessary.

  Using orbitals from previous SCF, no projection.
  Recomputing DOCC and SOCC from number of alpha and beta electrons from previous calculation.
              A 
    DOCC [    24 ]

  ==> Iterations <==

                           Total Energy        Delta E     RMS |[F,P]|

   @DF-RHF iter   0:  -305.83048048555770   -3.05830e+02   2.00989e-03 
   @DF-RHF iter   1:  -305.85846559249433   -2.79851e-02   3.44148e-04 
   @DF-RHF iter   2:  -305.85958295298792   -1.11736e-03   1.48044e-04 DIIS
   @DF-RHF iter   3:  -305.85977713421551   -1.94181e-04   7.55343e-05 DIIS
   @DF-RHF iter   4:  -305.85983950592424   -6.23717e-05   2.26007e-05 DIIS
   @DF-RHF iter   5:  -305.85984752108311   -8.01516e-06   1.18348e-05 DIIS
   @DF-RHF iter   6:  -305.85985098885862   -3.46778e-06   4.36497e-06 DIIS
   @DF-RHF iter   7:  -305.85985139947627   -4.10618e-07   1.93272e-06 DIIS
   @DF-RHF iter   8:  -305.85985149124144   -9.17652e-08   6.37485e-07 DIIS
   @DF-RHF iter   9:  -305.85985150241754   -1.11761e-08   1.61028e-07 DIIS
   @DF-RHF iter  10:  -305.85985150291424   -4.96698e-10   4.88620e-08 DIIS
   @DF-RHF iter  11:  -305.85985150294880   -3.45608e-11   1.54117e-08 DIIS
   @DF-RHF iter  12:  -305.85985150295323   -4.43379e-12   5.46167e-09 DIIS

  ==> Post-Iterations <==

    Orbital Energies (a.u.)
    -----------------------

    Doubly Occupied:                                                      

       1A    -20.592944     2A    -20.563102     3A    -11.383701  
       4A    -11.243541     5A    -11.227263     6A    -11.218788  
       7A     -1.456143     8A     -1.364544     9A     -1.082176  
      10A     -0.976144    11A     -0.852437    12A     -0.796325  
      13A     -0.708634    14A     -0.673763    15A     -0.661018  
      16A     -0.625826    17A     -0.578833    18A     -0.558355  
      19A     -0.540521    20A     -0.505237    21A     -0.497105  
      22A     -0.483284    23A     -0.481986    24A     -0.443923  

    Virtual:                                                              

      25A      0.172887    26A      0.214279    27A      0.235351  
      28A      0.280367    29A      0.288050    30A      0.302068  
      31A      0.325261    32A      0.337309    33A      0.351413  
      34A      0.390288    35A      0.416249    36A      0.446411  
      37A      0.518535    38A      0.547200    39A      0.731801  
      40A      0.734633    41A      0.748800    42A      0.753028  
      43A      0.782336    44A      0.842475    45A      0.859412  
      46A      0.939177    47A      0.949970    48A      0.967232  
      49A      1.047649    50A      1.053520    51A      1.076121  
      52A      1.094260    53A      1.117281    54A      1.127428  
      55A      1.157637    56A      1.172362    57A      1.193119  
      58A      1.215424    59A      1.221052    60A      1.233842  
      61A      1.253365    62A      1.268312    63A      1.309096  
      64A      1.344707    65A      1.397597    66A      1.440111  
      67A      1.627007    68A      1.639007    69A      1.715175  
      70A      1.779088    71A      1.804986    72A      1.901592  
      73A      1.978114    74A      2.004190    75A      2.037372  
      76A      2.058091    77A      2.097291    78A      2.130116  
      79A      2.147511    80A      2.232565    81A      2.265217  
      82A      2.271118    83A      2.288119    84A      2.346532  
      85A      2.350989    86A      2.461633    87A      2.531399  
      88A      2.636420    89A      2.674769    90A      2.692122  
      91A      2.747682    92A      2.784372    93A      2.833876  
      94A      2.934855    95A      2.981328    96A      3.039781  
      97A      3.126772    98A      3.259779    99A      3.387247  
     100A      3.479353   101A      4.235320   102A      4.496298  
     103A      4.564863   104A      4.703595   105A      4.816039  
     106A      4.972846  

    Final Occupation by Irrep:
              A 
    DOCC [    24 ]

  Energy converged.

  @DF-RHF Final Energy:  -305.85985150295323

   => Energetics <=

    Nuclear Repulsion Energy =            238.4308878761046628
    One-Electron Energy =                -889.5502884352869160
    Two-Electron Energy =                 345.2595490562289342
    DFT Exchange-Correlation Energy =       0.0000000000000000
    Empirical Dispersion Energy =           0.0000000000000000
    PCM Polarization Energy =               0.0000000000000000
    EFP Energy =                            0.0000000000000000
    Total Energy =                       -305.8598515029533473

    Alert: EFP and PCM quantities not currently incorporated into SCF psivars.

Properties will be evaluated at   0.000000,   0.000000,   0.000000 Bohr
  ==> Properties <==


Properties computed using the SCF density matrix

  Nuclear Dipole Moment: (a.u.)
     X:    -9.9018      Y:    -2.2732      Z:     0.6760

  Electronic Dipole Moment: (a.u.)
     X:     9.4300      Y:     1.4001      Z:    -0.0380

  Dipole Moment: (a.u.)
     X:    -0.4718      Y:    -0.8731      Z:     0.6380     Total:     1.1798

  Dipole Moment: (Debye)
     X:    -1.1991      Y:    -2.2192      Z:     1.6217     Total:     2.9988


  Saving occupied orbitals to File 180.

*** tstop() called on cx1-1-4-4.cx1.hpc.ic.ac.uk at Fri Sep  2 13:14:41 2016
Module time:
	user time   =      10.11 seconds =       0.17 minutes
	system time =       0.11 seconds =       0.00 minutes
	total time  =          4 seconds =       0.07 minutes
Total time:
	user time   =      55.59 seconds =       0.93 minutes
	system time =       0.69 seconds =       0.01 minutes
	total time  =         18 seconds =       0.30 minutes

*** tstart() called on cx1-1-4-4.cx1.hpc.ic.ac.uk
*** at Fri Sep  2 13:14:41 2016


         ------------------------------------------------------------
                                   SCF GRAD                          
                          Rob Parrish, Justin Turney,                
                       Andy Simmonett, and Alex Sokolov              
         ------------------------------------------------------------

  ==> Geometry <==

    Molecular point group: c1
    Full point group: C1

    Geometry (in Angstrom), charge = 0, multiplicity = 1:

       Center              X                  Y                   Z               Mass       
    ------------   -----------------  -----------------  -----------------  -----------------
           H          2.499360482750    -1.006240434981     0.826390773598     1.007825032070
           O          2.081609806278    -0.861885797127    -0.013980124538    15.994914619560
           C          1.058088656911     0.056735351073     0.005658909998    12.000000000000
           C         -0.323861607637    -0.556863003045     0.006370456229    12.000000000000
           O          1.264308158011     1.217208165344    -0.011075258417    15.994914619560
           C         -1.467518627647     0.453150784109    -0.012944781408    12.000000000000
           H         -0.364176736949    -1.217644954247    -0.855487269930     1.007825032070
           H         -0.395165943615    -1.212208469796     0.873375452384     1.007825032070
           C         -2.837998694833    -0.222835061087    -0.026261932916    12.000000000000
           H         -1.360191495704     1.090479686357    -0.883829852029     1.007825032070
           H         -1.385746688811     1.105284948298     0.850632860823     1.007825032070
           H         -2.957245237114    -0.856461829024    -0.900602342259     1.007825032070
           H         -3.633981137072     0.514297909211    -0.042736632764     1.007825032070
           H         -2.982257946784    -0.844126275676     0.853500147792     1.007825032070

  Nuclear repulsion =  238.430887876104663

  ==> Basis Set <==

  Basis Set: 6-31G*
    Number of shells: 52
    Number of basis function: 106
    Number of Cartesian functions: 106
    Spherical Harmonics?: false
    Max angular momentum: 2

  ==> DFJKGrad: Density-Fitted SCF Gradients <==

    Gradient:                    1
    J tasked:                  Yes
    K tasked:                  Yes
    wK tasked:                  No
    OpenMP threads:              4
    Integrals threads:           4
    Memory (MB):              1430
    Schwarz Cutoff:          0E+00
    Fitting Condition:       1E-12

   => Auxiliary Basis Set <=

  Basis Set: 
    Number of shells: 216
    Number of basis function: 686
    Number of Cartesian functions: 686
    Spherical Harmonics?: false
    Max angular momentum: 3


  -Total Gradient:
     Atom            X                  Y                   Z
    ------   -----------------  -----------------  -----------------
       1        0.000627878630    -0.007719486677    -0.000349346765
       2        0.014179118422     0.001451973581     0.004196413502
       3       -0.005017552148     0.002182612113    -0.006001239539
       4       -0.004254789121     0.006209335374     0.002371507279
       5       -0.003703884054    -0.001322981139    -0.001434093074
       6       -0.001861298195    -0.001664899471     0.000310508556
       7        0.001562240569     0.000864153594     0.000279815842
       8       -0.000856313319    -0.000548030979     0.000404619326
       9       -0.000549606474     0.000844947692     0.000078656667
      10        0.000313538440    -0.000241964275     0.000025684205
      11       -0.000124619060     0.000159653620     0.000123817273
      12        0.000043719459     0.000014120433    -0.000026480613
      13       -0.000326244739    -0.000172811986    -0.000033981451
      14       -0.000032188414    -0.000056621875     0.000054118791


*** tstop() called on cx1-1-4-4.cx1.hpc.ic.ac.uk at Fri Sep  2 13:14:44 2016
Module time:
	user time   =      12.27 seconds =       0.20 minutes
	system time =       0.17 seconds =       0.00 minutes
	total time  =          3 seconds =       0.05 minutes
Total time:
	user time   =      67.88 seconds =       1.13 minutes
	system time =       0.86 seconds =       0.01 minutes
	total time  =         21 seconds =       0.35 minutes
CURRENT ENERGY: -305.8598515030

			-----------------------------------------
			 OPTKING 2.0: for geometry optimizations 
			  - R.A. King,  Bethel University        
			-----------------------------------------

	Previous internal coordinate definitions found.
	---Fragment 1 Geometry and Gradient---
	 H           4.7231068198       -1.9015188460        1.5616522408
	 O           3.9336724494       -1.6287281144       -0.0264186067
	 C           1.9994977859        0.1072142756        0.0106937901
	 C          -0.6120097434       -1.0523185693        0.0120384176
	 O           2.3891961662        2.3001900792       -0.0209292053
	 C          -2.7732083012        0.8563308789       -0.0244620917
	 H          -0.6881942968       -2.3010154906       -1.6166366503
	 H          -0.7467554105       -2.2907420239        1.6504404162
	 C          -5.3630402987       -0.4210972383       -0.0496278609
	 H          -2.5703894152        2.0607079607       -1.6701963684
	 H          -2.6186817314        2.0886858511        1.6074631466
	 H          -5.5883836059       -1.6184783001       -1.7018917815
	 H          -6.8672291211        0.9718821991       -0.0807605318
	 H          -5.6356507770       -1.5951674826        1.6128815337
	             0.0006278786       -0.0077194867       -0.0003493468
	             0.0141791184        0.0014519736        0.0041964135
	            -0.0050175521        0.0021826121       -0.0060012395
	            -0.0042547891        0.0062093354        0.0023715073
	            -0.0037038841       -0.0013229811       -0.0014340931
	            -0.0018612982       -0.0016648995        0.0003105086
	             0.0015622406        0.0008641536        0.0002798158
	            -0.0008563133       -0.0005480310        0.0004046193
	            -0.0005496065        0.0008449477        0.0000786567
	             0.0003135384       -0.0002419643        0.0000256842
	            -0.0001246191        0.0001596536        0.0001238173
	             0.0000437195        0.0000141204       -0.0000264806
	            -0.0003262447       -0.0001728120       -0.0000339815
	            -0.0000321884       -0.0000566219        0.0000541188

	---Fragment 1 Intrafragment Coordinates---
	 - Coordinate -           - BOHR/RAD -       - ANG/DEG -
	 R(1,2)           =         1.794322	       0.949514
	 R(2,3)           =         2.599212	       1.375444
	 R(3,4)           =         2.857357	       1.512048
	 R(3,5)           =         2.227556	       1.178772
	 R(4,6)           =         2.883584	       1.525927
	 R(4,7)           =         2.053687	       1.086764
	 R(4,8)           =         2.058206	       1.089156
	 R(6,9)           =         2.887851	       1.528185
	 R(6,10)          =         2.049415	       1.084504
	 R(6,11)          =         2.050794	       1.085234
	 R(9,12)          =         2.052919	       1.086358
	 R(9,13)          =         2.050352	       1.085000
	 R(9,14)          =         2.053459	       1.086644
	 B(1,2,3)         =         2.000160	     114.600754
	 B(2,3,4)         =         1.992256	     114.147834
	 B(2,3,5)         =         2.126003	     121.810993
	 B(3,4,6)         =         2.000265	     114.606729
	 B(3,4,7)         =         1.854874	     106.276466
	 B(3,4,8)         =         1.880087	     107.721047
	 B(4,3,5)         =         2.164464	     124.014657
	 B(4,6,9)         =         1.960009	     112.300215
	 B(4,6,10)        =         1.901778	     108.963861
	 B(4,6,11)        =         1.908373	     109.341714
	 B(6,4,7)         =         1.944013	     111.383737
	 B(6,4,8)         =         1.938288	     111.055747
	 B(6,9,12)        =         1.942770	     111.312509
	 B(6,9,13)        =         1.936413	     110.948304
	 B(6,9,14)        =         1.944336	     111.402251
	 B(7,4,8)         =         1.836943	     105.249074
	 B(9,6,10)        =         1.919528	     109.980859
	 B(9,6,11)        =         1.918054	     109.896412
	 B(10,6,11)       =         1.852939	     106.165574
	 B(12,9,13)       =         1.879169	     107.668434
	 B(12,9,14)       =         1.879218	     107.671275
	 B(13,9,14)       =         1.878992	     107.658314
	 D(1,2,3,4)       =        -1.776783	    -101.802176
	*D(1,2,3,5)       =         1.396263	      80.000002
	 D(2,3,4,6)       =        -3.112017	    -178.305443
	 D(2,3,4,7)       =        -0.957067	     -54.835915
	 D(2,3,4,8)       =         1.004548	      57.556339
	 D(3,4,6,9)       =         3.131050	     179.395936
	 D(3,4,6,10)      =         0.999934	      57.292022
	 D(3,4,6,11)      =        -1.018256	     -58.341777
	 D(4,6,9,12)      =        -1.046458	     -59.957632
	 D(4,6,9,13)      =        -3.138777	    -179.838675
	 D(4,6,9,14)      =         1.051269	      60.233257
	 D(5,3,4,6)       =        -0.002672	      -0.153072
	 D(5,3,4,7)       =         2.152278	     123.316456
	 D(5,3,4,8)       =        -2.169292	    -124.291290
	 D(7,4,6,9)       =         1.024619	      58.706336
	 D(7,4,6,10)      =        -1.106496	     -63.397578
	 D(7,4,6,11)      =        -3.124687	    -179.031378
	 D(8,4,6,9)       =        -1.016771	     -58.256694
	 D(8,4,6,10)      =         3.135299	     179.639392
	 D(8,4,6,11)      =         1.117108	      64.005592
	 D(10,6,9,12)     =         1.074541	      61.566637
	 D(10,6,9,13)     =        -1.017778	     -58.314405
[...]
           H         -2.974104002866    -0.844080066920     0.852212913272     1.007825032070

  Nuclear repulsion =  239.140422533743759

  ==> Basis Set <==

  Basis Set: 6-31G*
    Number of shells: 52
    Number of basis function: 106
    Number of Cartesian functions: 106
    Spherical Harmonics?: false
    Max angular momentum: 2

  ==> DFJKGrad: Density-Fitted SCF Gradients <==

    Gradient:                    1
    J tasked:                  Yes
    K tasked:                  Yes
    wK tasked:                  No
    OpenMP threads:              4
    Integrals threads:           4
    Memory (MB):              1430
    Schwarz Cutoff:          0E+00
    Fitting Condition:       1E-12

   => Auxiliary Basis Set <=

  Basis Set: 
    Number of shells: 216
    Number of basis function: 686
    Number of Cartesian functions: 686
    Spherical Harmonics?: false
    Max angular momentum: 3


  -Total Gradient:
     Atom            X                  Y                   Z
    ------   -----------------  -----------------  -----------------
       1       -0.003902508263    -0.004294407243     0.001311790745
       2        0.004685467694     0.005431163942    -0.004019360883
       3       -0.000448690209    -0.001057153011     0.007921052013
       4       -0.000012511042     0.000033762300     0.000028502356
       5       -0.000333571638    -0.000076890179    -0.005226371019
       6       -0.000005116112     0.000002752956    -0.000012583276
       7       -0.000005279221    -0.000002766183    -0.000005517376
       8       -0.000012697336    -0.000012077788    -0.000002307991
       9        0.000012915923    -0.000014876767     0.000003331848
      10        0.000007696920    -0.000001871291    -0.000002337272
      11        0.000008424815    -0.000005771325     0.000003601283
      12       -0.000003554738    -0.000001941141    -0.000005055226
      13        0.000012829058     0.000003309544     0.000000955043
      14       -0.000003405864    -0.000003233815     0.000004299757


*** tstop() called on cx1-1-4-4.cx1.hpc.ic.ac.uk at Fri Sep  2 13:15:05 2016
Module time:
	user time   =      12.09 seconds =       0.20 minutes
	system time =       0.13 seconds =       0.00 minutes
	total time  =          3 seconds =       0.05 minutes
Total time:
	user time   =     133.31 seconds =       2.22 minutes
	system time =       1.69 seconds =       0.03 minutes
	total time  =         42 seconds =       0.70 minutes
CURRENT ENERGY: -305.8607148133

			-----------------------------------------
			 OPTKING 2.0: for geometry optimizations 
			  - R.A. King,  Bethel University        
			-----------------------------------------

	Previous internal coordinate definitions found.
	---Fragment 1 Geometry and Gradient---
	 H           4.6578805876       -1.8515749005        1.5434441799
	 O           3.8756486637       -1.6357221999       -0.0571473512
	 C           1.9925155926        0.1159404817        0.0386889659
	 C          -0.6026700903       -1.0601580793        0.0188584124
	 O           2.4167828886        2.3047639371       -0.0157219691
	 C          -2.7560270058        0.8553070510       -0.0229062881
	 H          -0.6793652881       -2.3094114956       -1.6101460384
	 H          -0.7352620156       -2.2936812718        1.6588924978
	 C          -5.3457321481       -0.4210182626       -0.0514949818
	 H          -2.5513336371        2.0606708724       -1.6680339183
	 H          -2.6009566565        2.0855877793        1.6100074787
	 H          -5.5709978170       -1.6173639443       -1.7045131182
	 H          -6.8475721685        0.9743102111       -0.0829347020
	 H          -5.6202420561       -1.5950801607        1.6104490130
	            -0.0039025083       -0.0042944072        0.0013117907
	             0.0046854677        0.0054311639       -0.0040193609
	            -0.0004486902       -0.0010571530        0.0079210520
	            -0.0000125110        0.0000337623        0.0000285024
	            -0.0003335716       -0.0000768902       -0.0052263710
	            -0.0000051161        0.0000027530       -0.0000125833
	            -0.0000052792       -0.0000027662       -0.0000055174
	            -0.0000126973       -0.0000120778       -0.0000023080
	             0.0000129159       -0.0000148768        0.0000033318
	             0.0000076969       -0.0000018713       -0.0000023373
	             0.0000084248       -0.0000057713        0.0000036013
	            -0.0000035547       -0.0000019411       -0.0000050552
	             0.0000128291        0.0000033095        0.0000009550
	            -0.0000034059       -0.0000032338        0.0000042998

	---Fragment 1 Intrafragment Coordinates---
	 - Coordinate -           - BOHR/RAD -       - ANG/DEG -
	 R(1,2)           =         1.794540	       0.949630
	 R(2,3)           =         2.573654	       1.361919
	 R(3,4)           =         2.849314	       1.507792
	 R(3,5)           =         2.230227	       1.180185
	 R(4,6)           =         2.882308	       1.525252
	 R(4,7)           =         2.054306	       1.087092
	 R(4,8)           =         2.056422	       1.088212
	 R(6,9)           =         2.887282	       1.527884
	 R(6,10)          =         2.049694	       1.084652
	 R(6,11)          =         2.050377	       1.085013
	 R(9,12)          =         2.052914	       1.086355
	 R(9,13)          =         2.050233	       1.084936
	 R(9,14)          =         2.053250	       1.086533
	 B(1,2,3)         =         1.947219	     111.567458
	 B(2,3,4)         =         1.966269	     112.658887
	 B(2,3,5)         =         2.126893	     121.861986
	 B(3,4,6)         =         1.989149	     113.969827
	 B(3,4,7)         =         1.865579	     106.889794
	 B(3,4,8)         =         1.876295	     107.503789
	 B(4,3,5)         =         2.187318	     125.324111
	 B(4,6,9)         =         1.956779	     112.115201
	 B(4,6,10)        =         1.904801	     109.137042
	 B(4,6,11)        =         1.907853	     109.311921
	 B(6,4,7)         =         1.944157	     111.391972
	 B(6,4,8)         =         1.941225	     111.223978
	 B(6,9,12)        =         1.943356	     111.346087
	 B(6,9,13)        =         1.935133	     110.874957
	 B(6,9,14)        =         1.944074	     111.387220
	 B(7,4,8)         =         1.839239	     105.380638
	 B(9,6,10)        =         1.919396	     109.973310
	 B(9,6,11)        =         1.918738	     109.935572
	 B(10,6,11)       =         1.853335	     106.188261
	 B(12,9,13)       =         1.879558	     107.690732
	 B(12,9,14)       =         1.879535	     107.689419
	 B(13,9,14)       =         1.879299	     107.675906
	 D(1,2,3,4)       =        -1.820363	    -104.299129
	*D(1,2,3,5)       =         1.396263	      80.000002
	 D(2,3,4,6)       =        -3.085557	    -176.789374
	 D(2,3,4,7)       =        -0.929810	     -53.274191
	 D(2,3,4,8)       =         1.037712	      59.456501
	 D(3,4,6,9)       =         3.137967	     179.792265
	 D(3,4,6,10)      =         1.007051	      57.699745
	 D(3,4,6,11)      =        -1.013005	     -58.040883
	 D(4,6,9,12)      =        -1.048231	     -60.059221
	 D(4,6,9,13)      =        -3.140574	    -179.941617
	 D(4,6,9,14)      =         1.050119	      60.167368
	 D(5,3,4,6)       =        -0.022078	      -1.264996
	 D(5,3,4,7)       =         2.133668	     122.250188
	 D(5,3,4,8)       =        -2.181995	    -125.019120
	 D(7,4,6,9)       =         1.025414	      58.751911
	 D(7,4,6,10)      =        -1.105502	     -63.340609
	 D(7,4,6,11)      =        -3.125557	    -179.081237
	 D(8,4,6,9)       =        -1.020804	     -58.487781
	 D(8,4,6,10)      =         3.131464	     179.419699
	 D(8,4,6,11)      =         1.111409	      63.679070
	 D(10,6,9,12)     =         1.074341	      61.555206
	 D(10,6,9,13)     =        -1.018002	     -58.327190
	 D(10,6,9,14)     =        -3.110494	    -178.218205
	 D(11,6,9,12)     =         3.108954	     178.129940
	 D(11,6,9,13)     =         1.016611	      58.247544
	 D(11,6,9,14)     =        -1.075882	     -61.643471

	Current energy   :      -305.8607148133

	Energy change for the previous step:
		Projected    :        -0.0000005109
		Actual       :        -0.0000005602

	Performing BFGS update.
	Previous computed or guess Hessian on step 1.
	Steps to be used in Hessian update: 5 4
	Taking RFO optimization step.
	Going to follow RFO solution 1.
	Using RFO vector 1.
	Norm of target step-size    0.00195
	Projected energy change by RFO approximation:        -0.0000000243

	Back-transformation to cartesian coordinates...
	Successfully converged to displaced geometry.

	Back-transformation to cartesian coordinates to adjust frozen coordinates...
	Successfully converged to displaced geometry.

	--- Internal Coordinate Step in ANG or DEG, aJ/ANG or AJ/DEG ---
	 ---------------------------------------------------------------------------
	   Coordinate                Previous        Force       Change         New 
	   ----------                --------       ------       ------       ------
	    1 R(1,2)          =      0.949630     0.000120     0.000019     0.949648
	    2 R(2,3)          =      1.361919     0.000824     0.000237     1.362157
	    3 R(3,4)          =      1.507792    -0.000014     0.000000     1.507792
	    4 R(3,5)          =      1.180185     0.000094    -0.000010     1.180175
	    5 R(4,6)          =      1.525252     0.000301     0.000055     1.525307
	    6 R(4,7)          =      1.087092    -0.000052    -0.000013     1.087079
	    7 R(4,8)          =      1.088212    -0.000051    -0.000007     1.088205
	    8 R(6,9)          =      1.527884     0.000078     0.000008     1.527891
	    9 R(6,10)         =      1.084652    -0.000013     0.000003     1.084654
	   10 R(6,11)         =      1.085013    -0.000000     0.000002     1.085015
	   11 R(9,12)         =      1.086355    -0.000046    -0.000009     1.086347
	   12 R(9,13)         =      1.084936     0.000059     0.000008     1.084945
	   13 R(9,14)         =      1.086533    -0.000048    -0.000008     1.086525
	   14 B(1,2,3)        =    111.567458    -0.000004    -0.018074   111.549384
	   15 B(2,3,4)        =    112.658887    -0.000000    -0.003501   112.655386
	   16 B(2,3,5)        =    121.861986    -0.000000    -0.009902   121.852084
	   17 B(3,4,6)        =    113.969827     0.000000    -0.000646   113.969181
	   18 B(3,4,7)        =    106.889794    -0.000000     0.001624   106.891418
	   19 B(3,4,8)        =    107.503789    -0.000001    -0.010402   107.493387
	   20 B(4,3,5)        =    125.324111     0.000000     0.013615   125.337726
	   21 B(4,6,9)        =    112.115201     0.000001     0.004639   112.119840
	   22 B(4,6,10)       =    109.137042    -0.000000     0.001180   109.138222
	   23 B(4,6,11)       =    109.311921     0.000000     0.005127   109.317048
	   24 B(6,4,7)        =    111.391972     0.000000     0.005711   111.397683
	   25 B(6,4,8)        =    111.223978     0.000000    -0.000265   111.223713
	   26 B(6,9,12)       =    111.346087    -0.000000    -0.002325   111.343762
	   27 B(6,9,13)       =    110.874957     0.000001     0.006103   110.881060
	   28 B(6,9,14)       =    111.387220    -0.000000    -0.002650   111.384570
	   29 B(7,4,8)        =    105.380638     0.000000     0.003933   105.384571
	   30 B(9,6,10)       =    109.973310    -0.000001    -0.005953   109.967358
	   31 B(9,6,11)       =    109.935572    -0.000001    -0.002159   109.933413
	   32 B(10,6,11)      =    106.188261     0.000000    -0.003190   106.185072
	   33 B(12,9,13)      =    107.690732    -0.000000     0.000129   107.690861
	   34 B(12,9,14)      =    107.689419     0.000000    -0.001386   107.688033
	   35 B(13,9,14)      =    107.675906    -0.000000     0.000086   107.675993
	   36 D(1,2,3,4)      =   -104.299129    -0.000000     0.003588  -104.295541
	   37 *D(1,2,3,5)     =     80.000002     0.000000     0.000000    80.000002
	   38 D(2,3,4,6)      =   -176.789374     0.000000     0.019413  -176.769961
	   39 D(2,3,4,7)      =    -53.274191     0.000000     0.027475   -53.246715
	   40 D(2,3,4,8)      =     59.456501     0.000000     0.027943    59.484445
	   41 D(3,4,6,9)      =    179.792265     0.000000    -0.002240   179.790025
	   42 D(3,4,6,10)     =     57.699745     0.000000     0.001400    57.701145
	   43 D(3,4,6,11)     =    -58.040883     0.000000     0.001716   -58.039167
	   44 D(4,6,9,12)     =    -60.059221     0.000000     0.030394   -60.028826
	   45 D(4,6,9,13)     =   -179.941617     0.000000     0.027688  -179.913930
	   46 D(4,6,9,14)     =     60.167368    -0.000000     0.025246    60.192614
	   47 D(5,3,4,6)      =     -1.264996    -0.000000     0.021913    -1.243083
	   48 D(5,3,4,7)      =    122.250188     0.000000     0.029975   122.280163
	   49 D(5,3,4,8)      =   -125.019120    -0.000000     0.030443  -124.988677
	   50 D(7,4,6,9)      =     58.751911     0.000000    -0.008214    58.743698
	   51 D(7,4,6,10)     =    -63.340609     0.000000    -0.004574   -63.345182
	   52 D(7,4,6,11)     =   -179.081237     0.000000    -0.004257  -179.085495
	   53 D(8,4,6,9)      =    -58.487781    -0.000000    -0.016605   -58.504386
	   54 D(8,4,6,10)     =    179.419699    -0.000000    -0.012965   179.406734
	   55 D(8,4,6,11)     =     63.679070    -0.000000    -0.012649    63.666422
	   56 D(10,6,9,12)    =     61.555206     0.000000     0.030865    61.586072
	   57 D(10,6,9,13)    =    -58.327190     0.000000     0.028159   -58.299031
	   58 D(10,6,9,14)    =   -178.218205     0.000000     0.025717  -178.192487
	   59 D(11,6,9,12)    =    178.129940    -0.000000     0.022225   178.152165
	   60 D(11,6,9,13)    =     58.247544    -0.000000     0.019518    58.267062
	   61 D(11,6,9,14)    =    -61.643471    -0.000000     0.017077   -61.626394
	 ---------------------------------------------------------------------------

  ==> Convergence Check <==

  Measures of convergence in internal coordinates in au.
  Criteria marked as inactive (o), active & met (*), and active & unmet ( ).
  ---------------------------------------------------------------------------------------------
   Step     Total Energy     Delta E     MAX Force     RMS Force      MAX Disp      RMS Disp   
  ---------------------------------------------------------------------------------------------
    Convergence Criteria    1.00e-06 *    3.00e-04 *             o    1.20e-03 *             o
  ---------------------------------------------------------------------------------------------
      6    -305.86071481   -5.60e-07 *    1.00e-04 *    1.61e-05 o    5.39e-04 *    2.50e-04 o  ~
  ---------------------------------------------------------------------------------------------


  **** Optimization is complete! (in 6 steps) ****

  ==> Optimization Summary <==

  Measures of convergence in internal coordinates in au.
  --------------------------------------------------------------------------------------------------------------- ~
   Step         Total Energy             Delta E       MAX Force       RMS Force        MAX Disp        RMS Disp  ~
  --------------------------------------------------------------------------------------------------------------- ~
      1    -305.858980087271   -305.858980087271      0.03009574      0.00474532      0.25028591      0.05348904  ~
      2    -305.858720343689      0.000259743582      0.00844184      0.00206261      0.21878989      0.04596796  ~
      3    -305.859851502953     -0.001131159265      0.01514943      0.00290343      0.04728744      0.01231223  ~
      4    -305.860706568873     -0.000855065920      0.00130156      0.00027823      0.00533744      0.00125019  ~
      5    -305.860714253113     -0.000007684240      0.00049482      0.00007518      0.00123951      0.00041231  ~
      6    -305.860714813338     -0.000000560224      0.00009998      0.00001609      0.00053870      0.00024976  ~
  --------------------------------------------------------------------------------------------------------------- ~

	Writing optimization data to binary file.
	Final energy is   -305.8607148133376
	Final (previous) structure:
	Cartesian Geometry (in Angstrom)
	    H     2.4648444355  -0.9798113122   0.8167555451
	    O     2.0509050980  -0.8655869739  -0.0302410781
	    C     1.0543939199   0.0613530652   0.0204733206
	    C    -0.3189193004  -0.5610115359   0.0099794428
	    O     1.2789065204   1.2196286398  -0.0083197084
	    C    -1.4584267891   0.4526090323  -0.0121214865
	    H    -0.3595046542  -1.2220880221  -0.8520526511
	    H    -0.3890839307  -1.2137639455   0.8778481684
	    C    -2.8288398320  -0.2227932860  -0.0272499728
	    H    -1.3501077153   1.0904601434  -0.8826856001
	    H    -1.3763670882   1.1036456036   0.8519793285
	    H    -2.9480452990  -0.8558722027  -0.9019895628
	    H    -3.6235794024   0.5155827972  -0.0438871575
	    H    -2.9741042300  -0.8440801314   0.8522129784
	Saving final (previous) structure.
			--------------------------
			 OPTKING Finished Execution 
			--------------------------

    Final optimized geometry and variables:
    Molecular point group: c1
    Full point group: C1

    Geometry (in Angstrom), charge = 0, multiplicity = 1:

    H            2.464844247277    -0.979811237333     0.816755482752
    O            2.050904941335    -0.865586907763    -0.030241075770
    C            1.054393839365     0.061353060492     0.020473319003
    C           -0.318919276087    -0.561011493079     0.009979442022
    O            1.278906422760     1.219628546697    -0.008319707729
    C           -1.458426677730     0.452608997744    -0.012121485576
    H           -0.359504626750    -1.222087928731    -0.852052586004
    H           -0.389083900985    -1.213763852830     0.877848101339
    C           -2.828839615988    -0.222793268955    -0.027249970746
    H           -1.350107612241     1.090460060082    -0.882685532740
    H           -1.376366983128     1.103645519335     0.851979263392
    H           -2.948045073835    -0.855872137313    -0.901989493895
    H           -3.623579125720     0.515582757826    -0.043887154117
    H           -2.974104002866    -0.844080066920     0.852212913272

	Cleaning optimization helper files.


Properties will be evaluated at   0.000000,   0.000000,   0.000000 Bohr

Properties computed using the  density matrix

  Nuclear Dipole Moment: (a.u.)
     X:    -9.8799      Y:    -2.2538      Z:     0.6731

  Electronic Dipole Moment: (a.u.)
     X:     9.4193      Y:     1.3832      Z:    -0.0252

  Dipole Moment: (a.u.)
     X:    -0.4606      Y:    -0.8706      Z:     0.6479     Total:     1.1789

  Dipole Moment: (Debye)
     X:    -1.1707      Y:    -2.2129      Z:     1.6468     Total:     2.9966

  Quadrupole Moment: (Debye Ang)
    XX:   -37.2915     YY:   -40.5237     ZZ:   -34.0297
    XY:    -3.4828     XZ:     4.6099     YZ:    -1.7572

  Traceless Quadrupole Moment: (Debye Ang)
    XX:    -0.0098     YY:    -3.2421     ZZ:     3.2519
    XY:    -3.4828     XZ:     4.6099     YZ:    -1.7572

  Mulliken Charges: (a.u.)
   Center  Symbol    Alpha    Beta     Spin     Total
       1     H     0.26582  0.26582  0.00000  0.46836
       2     O     4.36968  4.36968  0.00000 -0.73935
       3     C     2.63088  2.63088  0.00000  0.73824
       4     C     3.20831  3.20831  0.00000 -0.41661
       5     O     4.24719  4.24719  0.00000 -0.49439
       6     C     3.15271  3.15271  0.00000 -0.30542
       7     H     0.39706  0.39706  0.00000  0.20588
       8     H     0.40835  0.40835  0.00000  0.18329
       9     C     3.24280  3.24280  0.00000 -0.48561
      10     H     0.40893  0.40893  0.00000  0.18214
      11     H     0.41202  0.41202  0.00000  0.17597
      12     H     0.42027  0.42027  0.00000  0.15946
      13     H     0.41425  0.41425  0.00000  0.17150
      14     H     0.42174  0.42174  0.00000  0.15653

   Total alpha = 24.00000, Total beta = 24.00000, Total charge = -0.00000


*** PSI4 exiting successfully. Buy a developer a beer!
