    -----------------------------------------------------------------------
          Psi4: An Open-Source Ab Initio Electronic Structure Package
                              Psi4 1.0.54 Driver

                          Git: Rev {master} 8d4cec3 dirty

    J. M. Turney, A. C. Simmonett, R. M. Parrish, E. G. Hohenstein,
    F. A. Evangelista, J. T. Fermann, B. J. Mintz, L. A. Burns, J. J. Wilke,
    M. L. Abrams, N. J. Russ, M. L. Leininger, C. L. Janssen, E. T. Seidl,
    W. D. Allen, H. F. Schaefer, R. A. King, E. F. Valeev, C. D. Sherrill,
    and T. D. Crawford, WIREs Comput. Mol. Sci. 2, 556-565 (2012)
    (doi: 10.1002/wcms.93)

                         Additional Contributions by
    A. E. DePrince, U. Bozkaya, A. Yu. Sokolov, D. G. A. Smith, R. Di Remigio,
    R. M. Richard, J. F. Gonthier, H. R. McAlexander, M. Saitow, and
    B. P. Pritchard
    -----------------------------------------------------------------------


    Psi4 started on: Sat Sep 10 15:24:44 2016

    Process ID:  25894
    PSI4DATADIR: /export131/home/mjharvey/miniconda3/share/psi4
    Memory level set to 256.000 MB

  ==> Input File <==

--------------------------------------------------------------------------
set {
	reference rhf
	basis cc-pvtz
}


set_num_threads( 4 )
memory 2 gb

molecule MOL {
0 1

H	 1.166964	 -1.062386	 0.758429
O	 1.324748	 -0.612467	 -0.052206
C	 0.706474	 0.636793	 -0.025501
C	 1.588502	 1.780552	 -0.439594
H	 0.374975	 0.793192	 0.994279
H	 -0.187860	 0.640224	 -0.645867
C	 2.872964	 1.703037	 -0.708770
H	 1.087103	 2.731900	 -0.508761
H	 3.410936	 0.777263	 -0.634605
H	 3.431533	 2.571874	 -1.000630

	symmetry c1
}
set optking {
	frozen_dihedral = ("
		5 3 2 1
	")
}

ee,wfn = optimize('scf', return_wfn=True)
oeprop( wfn, 'DIPOLE', 'QUADRUPOLE', 'MULLIKEN_CHARGES')
f=open( 'psi4out.xyz', 'w' )
f.write( "10  " )
f.write( str(ee) + "\n" )
f.write( MOL.save_string_xyz() )
f.close()
--------------------------------------------------------------------------

  Memory set to   2.000 GiB by Python script.
gradient() will perform analytic gradient computation.

*** tstart() called on cx1-27-2-4
*** at Sat Sep 10 15:24:45 2016


         ---------------------------------------------------------
                                   SCF
            by Justin Turney, Rob Parrish, and Andy Simmonett
                              RHF Reference
                        4 Threads,   2000 MiB Core
         ---------------------------------------------------------

  ==> Geometry <==

    Molecular point group: c1
    Full point group: C1

    Geometry (in Angstrom), charge = 0, multiplicity = 1:

       Center              X                  Y                   Z               Mass       
    ------------   -----------------  -----------------  -----------------  -----------------
           H         -0.427760899330    -1.857515195252     1.033518047113     1.007825032070
           O         -0.269976899330    -1.407596195252     0.222883047113    15.994914619560
           C         -0.888250899330    -0.158336195252     0.249588047113    12.000000000000
           C         -0.006222899330     0.985422804748    -0.164504952887    12.000000000000
           H         -1.219749899330    -0.001937195252     1.269368047113     1.007825032070
           H         -1.782584899330    -0.154905195252    -0.370777952887     1.007825032070
           C          1.278239100670     0.907907804748    -0.433680952887    12.000000000000
           H         -0.507621899330     1.936770804748    -0.233671952887     1.007825032070
           H          1.816211100670    -0.017866195252    -0.359515952887     1.007825032070
           H          1.836808100670     1.776744804748    -0.725540952887     1.007825032070

  Running in c1 symmetry.

  Rotational constants: A =      0.60131  B =      0.19216  C =      0.15076 [cm^-1]
  Rotational constants: A =  18026.96905  B =   5760.89449  C =   4519.56734 [MHz]
  Nuclear repulsion =  119.112632654790076

  Charge       = 0
  Multiplicity = 1
  Electrons    = 32
  Nalpha       = 16
  Nbeta        = 16

  ==> Algorithm <==

  SCF Algorithm Type is DF.
  DIIS enabled.
  MOM disabled.
  Fractional occupation disabled.
  Guess Type is SAD.
  Energy threshold   = 1.00e-08
  Density threshold  = 1.00e-08
  Integral threshold = 0.00e+00

  ==> Primary Basis <==

  Basis Set: CC-PVTZ
    Number of shells: 76
    Number of basis function: 204
    Number of Cartesian functions: 230
    Spherical Harmonics?: true
    Max angular momentum: 3

  ==> Pre-Iterations <==

   -------------------------------------------------------
    Irrep   Nso     Nmo     Nalpha   Nbeta   Ndocc  Nsocc
   -------------------------------------------------------
     A        204     204       0       0       0       0
   -------------------------------------------------------
    Total     204     204      16      16      16       0
   -------------------------------------------------------

  ==> Integral Setup <==

  ==> DFJK: Density-Fitted J/K Matrices <==

    J tasked:                  Yes
    K tasked:                  Yes
    wK tasked:                  No
    OpenMP threads:              4
    Integrals threads:           4
    Memory (MB):              1430
    Algorithm:                Core
    Integral Cache:           NONE
    Schwarz Cutoff:          1E-12
    Fitting Condition:       1E-12

   => Auxiliary Basis Set <=

  Basis Set: 
    Number of shells: 160
    Number of basis function: 496
    Number of Cartesian functions: 594
    Spherical Harmonics?: true
    Max angular momentum: 4

  Minimum eigenvalue in the overlap matrix is 4.8833650055E-04.
  Using Symmetric Orthogonalization.
  SCF Guess: Superposition of Atomic Densities via on-the-fly atomic UHF.

  ==> Iterations <==

                           Total Energy        Delta E     RMS |[F,P]|

   @DF-RHF iter   0:  -194.02514963279523   -1.94025e+02   1.91588e-02 
   @DF-RHF iter   1:  -191.91440333670110    2.11075e+00   1.64438e-03 
   @DF-RHF iter   2:  -191.98623697599319   -7.18336e-02   5.18026e-04 DIIS
   @DF-RHF iter   3:  -191.99359947376169   -7.36250e-03   2.46598e-04 DIIS
   @DF-RHF iter   4:  -191.99528009972747   -1.68063e-03   7.09788e-05 DIIS
   @DF-RHF iter   5:  -191.99548304051567   -2.02941e-04   2.00185e-05 DIIS
   @DF-RHF iter   6:  -191.99550575829804   -2.27178e-05   6.49455e-06 DIIS
   @DF-RHF iter   7:  -191.99550801042582   -2.25213e-06   1.89344e-06 DIIS
   @DF-RHF iter   8:  -191.99550822858365   -2.18158e-07   5.37995e-07 DIIS
   @DF-RHF iter   9:  -191.99550824608119   -1.74975e-08   2.25463e-07 DIIS
   @DF-RHF iter  10:  -191.99550824819178   -2.11060e-09   5.47897e-08 DIIS
   @DF-RHF iter  11:  -191.99550824837561   -1.83832e-10   1.64518e-08 DIIS
   @DF-RHF iter  12:  -191.99550824839164   -1.60298e-11   3.91581e-09 DIIS

  ==> Post-Iterations <==

    Orbital Energies (a.u.)
    -----------------------

    Doubly Occupied:                                                      

       1A    -20.553241     2A    -11.278252     3A    -11.225758  
       4A    -11.210178     5A     -1.374415     6A     -1.058489  
       7A     -0.926558     8A     -0.760093     9A     -0.710166  
      10A     -0.652432    11A     -0.618859    12A     -0.585007  
      13A     -0.515089    14A     -0.499833    15A     -0.452830  
      16A     -0.361918  

    Virtual:                                                              

      17A      0.132563    18A      0.164898    19A      0.176407  
      20A      0.185023    21A      0.211529    22A      0.221982  
      23A      0.237777    24A      0.316426    25A      0.340341  
      26A      0.378722    27A      0.428463    28A      0.443453  
      29A      0.480806    30A      0.494790    31A      0.539638  
      32A      0.557680    33A      0.586218    34A      0.593219  
      35A      0.599395    36A      0.612772    37A      0.630194  
      38A      0.649469    39A      0.669432    40A      0.675062  
      41A      0.705293    42A      0.728548    43A      0.759225  
      44A      0.797332    45A      0.827239    46A      0.848306  
      47A      0.855579    48A      0.870518    49A      0.898248  
      50A      0.922023    51A      0.949791    52A      1.018165  
      53A      1.111315    54A      1.118784    55A      1.140464  
      56A      1.172243    57A      1.193386    58A      1.220162  
      59A      1.249034    60A      1.257820    61A      1.284078  
      62A      1.317740    63A      1.335059    64A      1.373266  
      65A      1.394263    66A      1.406188    67A      1.428356  
      68A      1.498640    69A      1.504280    70A      1.534019  
      71A      1.551496    72A      1.563365    73A      1.599783  
      74A      1.651561    75A      1.677231    76A      1.709606  
      77A      1.752328    78A      1.786680    79A      1.800347  
      80A      1.920016    81A      2.101099    82A      2.151971  
      83A      2.234246    84A      2.268435    85A      2.320686  
      86A      2.399199    87A      2.424268    88A      2.455302  
      89A      2.553281    90A      2.577717    91A      2.616275  
      92A      2.619000    93A      2.682402    94A      2.742636  
      95A      2.796590    96A      2.845297    97A      2.875882  
      98A      2.963545    99A      2.989825   100A      3.020189  
     101A      3.054760   102A      3.081144   103A      3.100036  
     104A      3.148781   105A      3.163473   106A      3.187871  
     107A      3.205685   108A      3.234897   109A      3.251531  
     110A      3.257225   111A      3.275148   112A      3.298323  
     113A      3.324165   114A      3.386184   115A      3.409132  
     116A      3.446605   117A      3.465343   118A      3.473830  
     119A      3.506564   120A      3.529903   121A      3.547343  
     122A      3.575660   123A      3.599228   124A      3.619125  
     125A      3.653586   126A      3.710195   127A      3.731974  
     128A      3.756262   129A      3.781797   130A      3.801939  
     131A      3.855897   132A      3.868604   133A      3.941989  
     134A      3.955131   135A      3.964065   136A      3.997572  
     137A      4.046811   138A      4.049744   139A      4.062254  
     140A      4.091892   141A      4.137531   142A      4.183447  
     143A      4.189883   144A      4.239158   145A      4.251325  
     146A      4.269290   147A      4.305284   148A      4.337061  
     149A      4.393375   150A      4.400795   151A      4.445275  
     152A      4.458582   153A      4.462380   154A      4.482513  
     155A      4.503158   156A      4.555878   157A      4.585449  
     158A      4.631128   159A      4.721146   160A      4.751348  
     161A      4.783848   162A      4.831175   163A      4.893067  
     164A      4.916752   165A      5.029977   166A      5.070931  
     167A      5.102084   168A      5.130949   169A      5.175325  
     170A      5.203970   171A      5.252001   172A      5.336568  
     173A      5.364314   174A      5.385055   175A      5.409594  
     176A      5.458961   177A      5.496990   178A      5.551729  
     179A      5.603319   180A      5.651564   181A      5.742289  
     182A      5.826938   183A      5.856712   184A      5.937603  
     185A      6.133018   186A      6.147833   187A      6.301958  
     188A      6.340687   189A      6.379101   190A      6.501706  
     191A      6.650553   192A      6.786556   193A      7.061179  
     194A      7.166868   195A      7.244639   196A      7.312513  
     197A      7.416082   198A      7.561034   199A      7.691929  
     200A      7.994474   201A     11.601817   202A     12.656018  
     203A     13.693804   204A     15.064570  

    Final Occupation by Irrep:
              A 
    DOCC [    16 ]

  Energy converged.

  @DF-RHF Final Energy:  -191.99550824839164

   => Energetics <=

    Nuclear Repulsion Energy =            119.1126326547900760
    One-Electron Energy =                -496.6500442369039092
    Two-Electron Energy =                 185.5419033337220753
    DFT Exchange-Correlation Energy =       0.0000000000000000
    Empirical Dispersion Energy =           0.0000000000000000
    PCM Polarization Energy =               0.0000000000000000
    EFP Energy =                            0.0000000000000000
    Total Energy =                       -191.9955082483917295


  Saving occupied orbitals to File 180.

*** tstop() called on cx1-27-2-4 at Sat Sep 10 15:24:48 2016
Module time:
	user time   =       9.33 seconds =       0.16 minutes
	system time =       0.43 seconds =       0.01 minutes
	total time  =          3 seconds =       0.05 minutes
Total time:
	user time   =       9.33 seconds =       0.16 minutes
	system time =       0.43 seconds =       0.01 minutes
	total time  =          3 seconds =       0.05 minutes


Properties will be evaluated at   0.000000,   0.000000,   0.000000 Bohr

Properties computed using the SCF density matrix

  Nuclear Dipole Moment: (a.u.)
     X:    -0.2682      Y:     1.5694      Z:     0.5761

  Electronic Dipole Moment: (a.u.)
     X:    -0.1355      Y:    -1.4250      Z:     0.0007

  Dipole Moment: (a.u.)
     X:    -0.4036      Y:     0.1444      Z:     0.5768     Total:     0.7187

  Dipole Moment: (Debye)
     X:    -1.0260      Y:     0.3671      Z:     1.4660     Total:     1.8266


*** tstart() called on cx1-27-2-4
*** at Sat Sep 10 15:24:48 2016


         ------------------------------------------------------------
                                   SCF GRAD                          
                          Rob Parrish, Justin Turney,                
                       Andy Simmonett, and Alex Sokolov              
         ------------------------------------------------------------

  ==> Geometry <==

    Molecular point group: c1
    Full point group: C1

    Geometry (in Angstrom), charge = 0, multiplicity = 1:

       Center              X                  Y                   Z               Mass       
    ------------   -----------------  -----------------  -----------------  -----------------
           H         -0.427760899330    -1.857515195252     1.033518047113     1.007825032070
           O         -0.269976899330    -1.407596195252     0.222883047113    15.994914619560
           C         -0.888250899330    -0.158336195252     0.249588047113    12.000000000000
           C         -0.006222899330     0.985422804748    -0.164504952887    12.000000000000
           H         -1.219749899330    -0.001937195252     1.269368047113     1.007825032070
           H         -1.782584899330    -0.154905195252    -0.370777952887     1.007825032070
           C          1.278239100670     0.907907804748    -0.433680952887    12.000000000000
           H         -0.507621899330     1.936770804748    -0.233671952887     1.007825032070
           H          1.816211100670    -0.017866195252    -0.359515952887     1.007825032070
           H          1.836808100670     1.776744804748    -0.725540952887     1.007825032070

  Nuclear repulsion =  119.112632654790076

  ==> Basis Set <==

  Basis Set: CC-PVTZ
    Number of shells: 76
    Number of basis function: 204
    Number of Cartesian functions: 230
    Spherical Harmonics?: true
    Max angular momentum: 3

  ==> DFJKGrad: Density-Fitted SCF Gradients <==

    Gradient:                    1
    J tasked:                  Yes
    K tasked:                  Yes
    wK tasked:                  No
    OpenMP threads:              4
    Integrals threads:           4
    Memory (MB):              1430
    Schwarz Cutoff:          0E+00
    Fitting Condition:       1E-12

   => Auxiliary Basis Set <=

  Basis Set: 
    Number of shells: 160
    Number of basis function: 496
    Number of Cartesian functions: 594
    Spherical Harmonics?: true
    Max angular momentum: 4


  -Total Gradient:
     Atom            X                  Y                   Z
    ------   -----------------  -----------------  -----------------
       1       -0.001016643904    -0.001449480643     0.004169074525
       2       -0.005860268606     0.003961513393     0.005649182709
       3        0.005099733926    -0.000756195749    -0.010429626920
       4       -0.003202192771     0.004269046383     0.000436693742
       5        0.004443169386    -0.009593550843    -0.000755195505
       6       -0.001948638151     0.001972524917     0.001079276147
       7       -0.000071888711     0.000755770150    -0.001579567902
       8        0.000913474376     0.000929526923     0.000262751775
       9        0.001330611548     0.000409189515     0.001178413919
      10        0.000312642905    -0.000498344045    -0.000011002488


*** tstop() called on cx1-27-2-4 at Sat Sep 10 15:24:50 2016
Module time:
	user time   =       9.34 seconds =       0.16 minutes
	system time =       0.33 seconds =       0.01 minutes
	total time  =          2 seconds =       0.03 minutes
Total time:
	user time   =      18.76 seconds =       0.31 minutes
	system time =       0.76 seconds =       0.01 minutes
	total time  =          5 seconds =       0.08 minutes

			-----------------------------------------
			 OPTKING 2.0: for geometry optimizations 
			  - R.A. King,  Bethel University        
			-----------------------------------------

	Internal coordinates to be generated automatically.
	Detected frag 1 with atoms:  1 2 3 4 5 6 7 8 9 10
	---Fragment 1 Bond Connectivity---
	 1 : 2
	 2 : 1 3
	 3 : 2 4 5 6
	 4 : 3 7 8
	 5 : 3
	 6 : 3
	 7 : 4 9 10
	 8 : 4
	 9 : 7
	 10 : 7

	Assuming in current code that numbering for constraints corresponds to unified fragment.
	Frozen dihedral atom list: 
	     5     3     2     1
	---Fragment 1 Geometry and Gradient---
	 H          -0.8083509501       -3.5101950067        1.9530660624
	 O          -0.5101824019       -2.6599713147        0.4211879187
	 C          -1.6785509370       -0.2992120460        0.4716530551
	 C          -0.0117595755        1.8621792261       -0.3108693085
	 H          -2.3049932603       -0.0036607685        2.3987579709
	 H          -3.3685972684       -0.2927283956       -0.7006687871
	 C           2.4155218326        1.7156971049       -0.8195382300
	 H          -0.9592663688        3.6599664031       -0.4415759959
	 H           3.4321415798       -0.0337622161       -0.6793866914
	 H           3.4710642689        3.3575610890       -1.3710736992
	            -0.0010166439       -0.0014494806        0.0041690745
	            -0.0058602686        0.0039615134        0.0056491827
	             0.0050997339       -0.0007561957       -0.0104296269
	            -0.0032021928        0.0042690464        0.0004366937
	             0.0044431694       -0.0095935508       -0.0007551955
	            -0.0019486382        0.0019725249        0.0010792761
	            -0.0000718887        0.0007557701       -0.0015795679
	             0.0009134744        0.0009295269        0.0002627518
	             0.0013306115        0.0004091895        0.0011784139
	             0.0003126429       -0.0004983440       -0.0000110025

	Previous optimization step data not found.  Starting new optimization.

	---Fragment 1 Intrafragment Coordinates---
	 - Coordinate -           - BOHR/RAD -       - ANG/DEG -
	 R(1,2)           =         1.777199	       0.940453
	 R(2,3)           =         2.634543	       1.394140
	 R(3,4)           =         2.839392	       1.502542
	 R(3,5)           =         2.047807	       1.083653
	 R(3,6)           =         2.056851	       1.088439
	 R(4,7)           =         2.484330	       1.314651
	 R(4,8)           =         2.036392	       1.077612
	 R(7,9)           =         2.028242	       1.073300
	 R(7,10)          =         2.028319	       1.073340
	 B(1,2,3)         =         1.915348	     109.741344
	 B(2,3,4)         =         2.000385	     114.613642
	 B(2,3,5)         =         1.857736	     106.440415
	 B(2,3,6)         =         1.935102	     110.873152
	 B(3,4,7)         =         2.195786	     125.809289
	 B(3,4,8)         =         2.000475	     114.618778
	 B(4,3,5)         =         1.906108	     109.211952
	 B(4,3,6)         =         1.899547	     108.836012
	 B(4,7,9)         =         2.125194	     121.764673
	 B(4,7,10)        =         2.113437	     121.091036
	 B(5,3,6)         =         1.859338	     106.532235
	 B(7,4,8)         =         2.086922	     119.571824
	 B(9,7,10)        =         2.044466	     117.139294
	 D(1,2,3,4)       =         2.283499	     130.834863
	*D(1,2,3,5)       =         0.174533	      10.000001
	 D(1,2,3,6)       =        -1.840807	    -105.470484
	 D(2,3,4,7)       =        -0.098034	      -5.616949
	 D(2,3,4,8)       =         3.045684	     174.504821
	 D(3,4,7,9)       =        -0.016633	      -0.953011
	 D(3,4,7,10)      =         3.139562	     179.883636
	 D(5,3,4,7)       =         1.984057	     113.678065
	 D(5,3,4,8)       =        -1.155411	     -66.200165
	 D(6,3,4,7)       =        -2.275781	    -130.392670
	 D(6,3,4,8)       =         0.867937	      49.729100
	 D(8,4,7,9)       =         3.122738	     178.919708
	 D(8,4,7,10)      =        -0.004252	      -0.243645

	Current energy   :      -191.9955082484

	Generating empirical Hessian (Schlegel '84) for each fragment.
	Taking RFO optimization step.
	Going to follow RFO solution 1.
	Using RFO vector 1.
	Norm of target step-size    0.21469
	Projected energy change by RFO approximation:        -0.0025893664

	Back-transformation to cartesian coordinates...
	Could not converge backtransformation.
	Using first guess instead.

	Back-transformation to cartesian coordinates to adjust frozen coordinates...
	Successfully converged to displaced geometry.

	--- Internal Coordinate Step in ANG or DEG, aJ/ANG or AJ/DEG ---
	 ---------------------------------------------------------------------------
	   Coordinate                Previous        Force       Change         New 
	   ----------                --------       ------       ------       ------
	    1 R(1,2)          =      0.940453    -0.036725     0.050047     0.990500
	    2 R(2,3)          =      1.394140     0.045221     0.052526     1.446666
	    3 R(3,4)          =      1.502542    -0.032662     0.124211     1.626753
	    4 R(3,5)          =      1.083653     0.028461     0.142093     1.225745
	    5 R(3,6)          =      1.088439    -0.008175     0.100916     1.189355
	    6 R(4,7)          =      1.314651    -0.013020     0.147009     1.461660
	    7 R(4,8)          =      1.077612    -0.003120     0.019614     1.097226
	    8 R(7,9)          =      1.073300    -0.003258     0.023104     1.096404
	    9 R(7,10)         =      1.073340     0.001958     0.085217     1.158557
	   10 B(1,2,3)        =    109.741344     0.000106    -5.054705   104.686639
	   11 B(2,3,4)        =    114.613642    -0.000926    -6.496262   108.117380
	   12 B(2,3,5)        =    106.440415     0.000991     9.741350   116.181765
	   13 B(2,3,6)        =    110.873152    -0.000024    -6.279917   104.593235
	   14 B(3,4,7)        =    125.809289    -0.000085     4.039296   129.848585
	   15 B(3,4,8)        =    114.618778    -0.000044    -3.328233   111.290545
	   16 B(4,3,5)        =    109.211952    -0.000110    -0.537186   108.674766
	   17 B(4,3,6)        =    108.836012     0.000281     4.085770   112.921781
	   18 B(4,7,9)        =    121.764673    -0.000072    -1.457148   120.307524
	   19 B(4,7,10)       =    121.091036    -0.000005     4.509527   125.600563
	   20 B(5,3,6)        =    106.532235    -0.000158    -0.090202   106.442032
	   21 B(7,4,8)        =    119.571824     0.000129    -0.714100   118.857724
	   22 B(9,7,10)       =    117.139294     0.000078    -3.060802   114.078491
	   23 D(1,2,3,4)      =    130.834863    -0.000002     1.596113   132.430976
	   24 *D(1,2,3,5)     =     10.000001    -0.000000     0.000000    10.000001
	   25 D(1,2,3,6)      =   -105.470484    -0.000082    -1.525501  -106.995985
	   26 D(2,3,4,7)      =     -5.616949    -0.000075    -1.660943    -7.277892
	   27 D(2,3,4,8)      =    174.504821    -0.000079    -2.447116   172.057705
	   28 D(3,4,7,9)      =     -0.953011     0.000020     1.897262     0.944251
	   29 D(3,4,7,10)     =    179.883636    -0.000002    -0.353727   179.529909
	   30 D(5,3,4,7)      =    113.678065     0.000059     5.958500   119.636564
	   31 D(5,3,4,8)      =    -66.200165     0.000055     5.172327   -61.027839
	   32 D(6,3,4,7)      =   -130.392670     0.000037     7.889326  -122.503344
	   33 D(6,3,4,8)      =     49.729100     0.000033     7.103153    56.832253
	   34 D(8,4,7,9)      =    178.919708     0.000025     2.731377   181.651084
	   35 D(8,4,7,10)     =     -0.243645     0.000003     0.480388     0.236743
	 ---------------------------------------------------------------------------
	Successfully symmetrized geometry.

  ==> Convergence Check <==

  Measures of convergence in internal coordinates in au.
  Criteria marked as inactive (o), active & met (*), and active & unmet ( ).
  --------------------------------------------------------------------------------------------- ~
   Step     Total Energy     Delta E     MAX Force     RMS Force      MAX Disp      RMS Disp    ~
  --------------------------------------------------------------------------------------------- ~
    Convergence Criteria    1.00e-06 *    3.00e-04 *             o    1.20e-03 *             o  ~
  --------------------------------------------------------------------------------------------- ~
      1    -191.99550825   -1.92e+02      1.30e-02      3.86e-03 o    2.78e-01      1.11e-01 o  ~
  ---------------------------------------------------------------------------------------------

	Writing optimization data to binary file.
	Structure for next step:
	Cartesian Geometry (in Angstrom)
	    H    -0.2654662925  -2.1347730239   0.4410265996
	    O     0.0673311081  -1.4536822831  -0.1965090682
	    C    -0.9118908601  -0.3902301305  -0.1414023051
	    C    -0.1178285563   1.0210463176   0.0138012363
	    H    -1.7478053253  -0.4704959638   0.7514896732
	    H    -1.5063843280  -0.4767986436  -1.1678765254
	    C     1.3043335475   1.2761281773   0.2347959734
	    H    -0.8006752127   1.8747787070  -0.0798268323
	    H     2.0118126395   0.4414619699   0.3048460250
	    H     1.7956632866   2.3212549207   0.3273196946
			--------------------------
			 OPTKING Finished Execution 
			--------------------------

    Structure for next step:
    Molecular point group: c1
    Full point group: C1

    Geometry (in Angstrom), charge = 0, multiplicity = 1:

    H           -0.331891735078    -2.155437549608     0.462998901932
    O            0.000905665570    -1.474346808869    -0.174536765860
    C           -0.978316302666    -0.410894656257    -0.119430002799
    C           -0.184253998893     1.000381791859     0.035773538669
    H           -1.814230767834    -0.491160489550     0.773461975542
    H           -1.572809770573    -0.497463169344    -1.145904223109
    C            1.237908104913     1.255463651519     0.256768275726
    H           -0.867100655300     1.854114181212    -0.057854529979
    H            1.945387196934     0.420797444130     0.326818327319
    H            1.729237844087     2.300590394938     0.349291996900

gradient() will perform analytic gradient computation.

*** tstart() called on cx1-27-2-4
*** at Sat Sep 10 15:24:51 2016


         ---------------------------------------------------------
                                   SCF
            by Justin Turney, Rob Parrish, and Andy Simmonett
                              RHF Reference
                        4 Threads,   2000 MiB Core
         ---------------------------------------------------------

  ==> Geometry <==

    Molecular point group: c1
    Full point group: C1

    Geometry (in Angstrom), charge = 0, multiplicity = 1:

       Center              X                  Y                   Z               Mass       
    ------------   -----------------  -----------------  -----------------  -----------------
           H         -0.331891735078    -2.155437549608     0.462998901932     1.007825032070
           O          0.000905665570    -1.474346808869    -0.174536765860    15.994914619560
           C         -0.978316302666    -0.410894656257    -0.119430002799    12.000000000000
           C         -0.184253998893     1.000381791859     0.035773538669    12.000000000000
           H         -1.814230767834    -0.491160489550     0.773461975542     1.007825032070
           H         -1.572809770573    -0.497463169344    -1.145904223109     1.007825032070
           C          1.237908104913     1.255463651519     0.256768275726    12.000000000000
           H         -0.867100655300     1.854114181212    -0.057854529979     1.007825032070
           H          1.945387196934     0.420797444130     0.326818327319     1.007825032070
           H          1.729237844087     2.300590394938     0.349291996900     1.007825032070

  Running in c1 symmetry.

  Rotational constants: A =      0.51990  B =      0.16945  C =      0.13264 [cm^-1]
  Rotational constants: A =  15586.16418  B =   5080.10945  C =   3976.48475 [MHz]
  Nuclear repulsion =  111.500981275272380

  Charge       = 0
  Multiplicity = 1
  Electrons    = 32
  Nalpha       = 16
  Nbeta        = 16

  ==> Algorithm <==

  SCF Algorithm Type is DF.
  DIIS enabled.
  MOM disabled.
  Fractional occupation disabled.
  Guess Type is READ.
  Energy threshold   = 1.00e-08
  Density threshold  = 1.00e-08
  Integral threshold = 0.00e+00

  ==> Primary Basis <==

  Basis Set: CC-PVTZ
    Number of shells: 76
    Number of basis function: 204
    Number of Cartesian functions: 230
    Spherical Harmonics?: true
    Max angular momentum: 3

  ==> Pre-Iterations <==

   -------------------------------------------------------
    Irrep   Nso     Nmo     Nalpha   Nbeta   Ndocc  Nsocc
   -------------------------------------------------------
     A        204     204       0       0       0       0
   -------------------------------------------------------
    Total     204     204      16      16      16       0
   -------------------------------------------------------

  ==> Integral Setup <==

  ==> DFJK: Density-Fitted J/K Matrices <==

    J tasked:                  Yes
    K tasked:                  Yes
    wK tasked:                  No
    OpenMP threads:              4
    Integrals threads:           4
    Memory (MB):              1430
    Algorithm:                Core
    Integral Cache:           NONE
    Schwarz Cutoff:          1E-12
    Fitting Condition:       1E-12

   => Auxiliary Basis Set <=

  Basis Set: 
    Number of shells: 160
    Number of basis function: 496
    Number of Cartesian functions: 594
    Spherical Harmonics?: true
    Max angular momentum: 4

  Minimum eigenvalue in the overlap matrix is 7.6787987800E-04.
  Using Symmetric Orthogonalization.
  SCF Guess: Reading in previously saved MOs, projecting if necessary.

  Using orbitals from previous SCF, no projection.
  Recomputing DOCC and SOCC from number of alpha and beta electrons from previous calculation.
              A 
    DOCC [    16 ]

  ==> Iterations <==

                           Total Energy        Delta E     RMS |[F,P]|

   @DF-RHF iter   0:  -191.07661860250332   -1.91077e+02   4.72201e-03 
   @DF-RHF iter   1:  -191.85337363786201   -7.76755e-01   1.65198e-03 
   @DF-RHF iter   2:  -191.91569243446273   -6.23188e-02   8.65724e-04 DIIS
   @DF-RHF iter   3:  -191.93177529947761   -1.60829e-02   1.78586e-04 DIIS
   @DF-RHF iter   4:  -191.93337634349004   -1.60104e-03   8.85160e-05 DIIS
   @DF-RHF iter   5:  -191.93369454800515   -3.18205e-04   2.48763e-05 DIIS
   @DF-RHF iter   6:  -191.93374865096698   -5.41030e-05   1.00804e-05 DIIS
   @DF-RHF iter   7:  -191.93375535665038   -6.70568e-06   4.21958e-06 DIIS
   @DF-RHF iter   8:  -191.93375622889468   -8.72244e-07   1.00520e-06 DIIS
   @DF-RHF iter   9:  -191.93375629028438   -6.13897e-08   3.03918e-07 DIIS
   @DF-RHF iter  10:  -191.93375629715783   -6.87345e-09   1.04949e-07 DIIS
   @DF-RHF iter  11:  -191.93375629784325   -6.85418e-10   3.85732e-08 DIIS
   @DF-RHF iter  12:  -191.93375629793607   -9.28253e-11   1.07399e-08 DIIS
   @DF-RHF iter  13:  -191.93375629794431   -8.24230e-12   2.87440e-09 DIIS

  ==> Post-Iterations <==

    Orbital Energies (a.u.)
    -----------------------

    Doubly Occupied:                                                      

       1A    -20.566431     2A    -11.327660     3A    -11.267564  
       4A    -11.254536     5A     -1.351193     6A     -1.004052  
       7A     -0.891602     8A     -0.754850     9A     -0.681909  
      10A     -0.619205    11A     -0.581112    12A     -0.564152  
      13A     -0.516226    14A     -0.488472    15A     -0.446681  
      16A     -0.337503  

    Virtual:                                                              

      17A      0.125946    18A      0.136972    19A      0.168624  
      20A      0.175697    21A      0.200148    22A      0.207660  
      23A      0.230299    24A      0.307725    25A      0.312499  
      26A      0.369229    27A      0.414790    28A      0.448359  
      29A      0.488662    30A      0.502496    31A      0.511075  
      32A      0.522133    33A      0.549035    34A      0.571490  
      35A      0.574121    36A      0.583634    37A      0.598179  
      38A      0.618721    39A      0.631733    40A      0.653804  
      41A      0.686758    42A      0.693955    43A      0.747086  
      44A      0.755787    45A      0.768018    46A      0.827607  
      47A      0.832414    48A      0.852922    49A      0.882074  
      50A      0.913962    51A      0.922748    52A      1.005403  
      53A      1.042299    54A      1.098045    55A      1.109427  
      56A      1.125157    57A      1.168009    58A      1.186062  
      59A      1.200539    60A      1.235811    61A      1.255152  
      62A      1.264938    63A      1.283814    64A      1.317899  
      65A      1.349060    66A      1.354374    67A      1.384759  
      68A      1.428315    69A      1.469120    70A      1.491331  
      71A      1.517763    72A      1.519819    73A      1.541713  
      74A      1.569633    75A      1.629341    76A      1.651325  
      77A      1.698853    78A      1.718319    79A      1.774785  
      80A      1.815694    81A      2.023384    82A      2.097664  
      83A      2.182512    84A      2.249467    85A      2.285214  
      86A      2.361210    87A      2.408994    88A      2.448511  
      89A      2.529983    90A      2.542954    91A      2.556710  
      92A      2.591193    93A      2.691161    94A      2.746631  
      95A      2.762021    96A      2.825428    97A      2.839196  
      98A      2.851293    99A      2.897801   100A      2.952729  
     101A      3.004873   102A      3.014502   103A      3.062891  
     104A      3.094789   105A      3.120041   106A      3.125907  
     107A      3.138913   108A      3.168865   109A      3.176763  
     110A      3.215450   111A      3.269812   112A      3.280268  
     113A      3.300475   114A      3.324431   115A      3.337723  
     116A      3.357967   117A      3.374445   118A      3.418036  
     119A      3.424293   120A      3.461949   121A      3.480795  
     122A      3.494965   123A      3.525062   124A      3.566248  
     125A      3.590065   126A      3.607539   127A      3.630066  
     128A      3.644726   129A      3.653726   130A      3.693369  
     131A      3.705689   132A      3.770825   133A      3.808268  
     134A      3.826494   135A      3.857540   136A      3.902327  
     137A      3.917365   138A      3.930567   139A      3.946933  
     140A      3.968730   141A      4.050774   142A      4.070068  
     143A      4.083908   144A      4.112914   145A      4.134611  
     146A      4.173149   147A      4.185938   148A      4.191601  
     149A      4.227846   150A      4.253901   151A      4.265148  
     152A      4.270850   153A      4.318138   154A      4.342047  
     155A      4.367384   156A      4.377528   157A      4.407008  
     158A      4.464991   159A      4.511324   160A      4.548375  
     161A      4.586760   162A      4.654594   163A      4.670081  
     164A      4.703251   165A      4.780508   166A      4.862334  
     167A      4.905347   168A      4.913251   169A      4.937203  
     170A      4.985798   171A      4.993104   172A      5.063132  
     173A      5.091295   174A      5.126264   175A      5.142042  
     176A      5.234900   177A      5.251021   178A      5.299105  
     179A      5.366969   180A      5.393230   181A      5.435372  
     182A      5.595944   183A      5.688774   184A      5.731289  
     185A      5.933569   186A      6.015145   187A      6.073909  
     188A      6.097871   189A      6.139425   190A      6.253222  
     191A      6.290424   192A      6.535261   193A      6.890124  
     194A      6.993634   195A      7.100003   196A      7.265037  
     197A      7.344855   198A      7.426379   199A      7.583452  
     200A      7.826826   201A     10.601641   202A     11.232997  
     203A     12.027428   204A     12.473591  

    Final Occupation by Irrep:
              A 
    DOCC [    16 ]

  Energy converged.

  @DF-RHF Final Energy:  -191.93375629794431

   => Energetics <=

    Nuclear Repulsion Energy =            111.5009812752723803
    One-Electron Energy =                -481.5631805562815089
    Two-Electron Energy =                 178.1284429830648151
    DFT Exchange-Correlation Energy =       0.0000000000000000
    Empirical Dispersion Energy =           0.0000000000000000
    PCM Polarization Energy =               0.0000000000000000
    EFP Energy =                            0.0000000000000000
    Total Energy =                       -191.9337562979443419


  Saving occupied orbitals to File 180.

*** tstop() called on cx1-27-2-4 at Sat Sep 10 15:24:53 2016
Module time:
	user time   =       7.86 seconds =       0.13 minutes
	system time =       0.17 seconds =       0.00 minutes
	total time  =          2 seconds =       0.03 minutes
Total time:
	user time   =      28.56 seconds =       0.48 minutes
	system time =       0.99 seconds =       0.02 minutes
	total time  =          8 seconds =       0.13 minutes


Properties will be evaluated at   0.000000,   0.000000,   0.000000 Bohr

Properties computed using the SCF density matrix

  Nuclear Dipole Moment: (a.u.)
     X:    -0.8544      Y:     1.3348      Z:     0.6637

  Electronic Dipole Moment: (a.u.)
     X:     0.2538      Y:    -1.4498      Z:    -0.2707

  Dipole Moment: (a.u.)
     X:    -0.6007      Y:    -0.1149      Z:     0.3929     Total:     0.7269

  Dipole Moment: (Debye)
     X:    -1.5267      Y:    -0.2921      Z:     0.9988     Total:     1.8476


*** tstart() called on cx1-27-2-4
*** at Sat Sep 10 15:24:53 2016


         ------------------------------------------------------------
                                   SCF GRAD                          
                          Rob Parrish, Justin Turney,                
                       Andy Simmonett, and Alex Sokolov              
         ------------------------------------------------------------

  ==> Geometry <==

    Molecular point group: c1
    Full point group: C1

    Geometry (in Angstrom), charge = 0, multiplicity = 1:

       Center              X                  Y                   Z               Mass       
    ------------   -----------------  -----------------  -----------------  -----------------
           H         -0.331891735078    -2.155437549608     0.462998901932     1.007825032070
           O          0.000905665570    -1.474346808869    -0.174536765860    15.994914619560
           C         -0.978316302666    -0.410894656257    -0.119430002799    12.000000000000
           C         -0.184253998893     1.000381791859     0.035773538669    12.000000000000
           H         -1.814230767834    -0.491160489550     0.773461975542     1.007825032070
           H         -1.572809770573    -0.497463169344    -1.145904223109     1.007825032070
           C          1.237908104913     1.255463651519     0.256768275726    12.000000000000
           H         -0.867100655300     1.854114181212    -0.057854529979     1.007825032070
           H          1.945387196934     0.420797444130     0.326818327319     1.007825032070
           H          1.729237844087     2.300590394938     0.349291996900     1.007825032070

  Nuclear repulsion =  111.500981275272380

  ==> Basis Set <==

  Basis Set: CC-PVTZ
    Number of shells: 76
    Number of basis function: 204
    Number of Cartesian functions: 230
    Spherical Harmonics?: true
    Max angular momentum: 3

  ==> DFJKGrad: Density-Fitted SCF Gradients <==

    Gradient:                    1
    J tasked:                  Yes
    K tasked:                  Yes
    wK tasked:                  No
    OpenMP threads:              4
    Integrals threads:           4
    Memory (MB):              1430
    Schwarz Cutoff:          0E+00
    Fitting Condition:       1E-12

   => Auxiliary Basis Set <=

  Basis Set: 
    Number of shells: 160
    Number of basis function: 496
    Number of Cartesian functions: 594
    Spherical Harmonics?: true
    Max angular momentum: 4


  -Total Gradient:
     Atom            X                  Y                   Z
    ------   -----------------  -----------------  -----------------
       1       -0.023564770984    -0.029219766825     0.034204353745
       2        0.052781335564     0.014339238255    -0.051075241591
       3       -0.003048468637    -0.014850809961     0.009544805786
       4       -0.074741508339    -0.002836067981    -0.008637866800
       5       -0.050684645465    -0.000309238225     0.045895220401
       6       -0.025318480184    -0.016490124606    -0.048933445879
       7        0.090102558993     0.009583985025     0.015623700691
       8       -0.012362515923     0.008214687965    -0.002816739275
       9        0.014077576141    -0.009969826374     0.001024666053
      10        0.032758918833     0.041537922727     0.005170546869


*** tstop() called on cx1-27-2-4 at Sat Sep 10 15:24:56 2016
Module time:
	user time   =       9.43 seconds =       0.16 minutes
	system time =       0.29 seconds =       0.00 minutes
	total time  =          3 seconds =       0.05 minutes
Total time:
	user time   =      38.03 seconds =       0.63 minutes
	system time =       1.29 seconds =       0.02 minutes
	total time  =         11 seconds =       0.18 minutes

			-----------------------------------------
			 OPTKING 2.0: for geometry optimizations 
			  - R.A. King,  Bethel University        
			-----------------------------------------

	Previous internal coordinate definitions found.
	---Fragment 1 Geometry and Gradient---
	 H          -0.6271844851       -4.0731866653        0.8749411245
	 O           0.0017114599       -2.7861116937       -0.3298266876
	 C          -1.8487498834       -0.7764783698       -0.2256899973
	 C          -0.3481895968        1.8904476149        0.0676021909
	 H          -3.4283992931       -0.9281588125        1.4616313080
	 H          -2.9721797255       -0.9400691513       -2.1654451562
	 C           2.3393072960        2.3724824712        0.4852217207
	 H          -1.6385827682        3.5037680216       -0.1093292172
	 H           3.6762490246        0.7951919268        0.6175971338
	 H           3.2677859439        4.3474857904        0.6600662145
	            -0.0235647710       -0.0292197668        0.0342043537
	             0.0527813356        0.0143392383       -0.0510752416
	            -0.0030484686       -0.0148508100        0.0095448058
	            -0.0747415083       -0.0028360680       -0.0086378668
	            -0.0506846455       -0.0003092382        0.0458952204
	            -0.0253184802       -0.0164901246       -0.0489334459
	             0.0901025590        0.0095839850        0.0156237007
	            -0.0123625159        0.0082146880       -0.0028167393
	             0.0140775761       -0.0099698264        0.0010246661
	             0.0327589188        0.0415379227        0.0051705469

	---Fragment 1 Intrafragment Coordinates---
	 - Coordinate -           - BOHR/RAD -       - ANG/DEG -
	 R(1,2)           =         1.871774	       0.990500
	 R(2,3)           =         2.733803	       1.446666
	 R(3,4)           =         3.074117	       1.626753
	 R(3,5)           =         2.316323	       1.225745
	 R(3,6)           =         2.247556	       1.189355
	 R(4,7)           =         2.762137	       1.461660
	 R(4,8)           =         2.073457	       1.097226
	 R(7,9)           =         2.071903	       1.096404
	 R(7,10)          =         2.189356	       1.158557
	 B(1,2,3)         =         1.827127	     104.686639
	 B(2,3,4)         =         1.887004	     108.117380
	 B(2,3,5)         =         2.027754	     116.181765
	 B(2,3,6)         =         1.825496	     104.593235
	 B(3,4,7)         =         2.266285	     129.848585
	 B(3,4,8)         =         1.942386	     111.290545
	 B(4,3,5)         =         1.896732	     108.674766
	 B(4,3,6)         =         1.970857	     112.921781
	 B(4,7,9)         =         2.099762	     120.307524
	 B(4,7,10)        =         2.192143	     125.600563
	 B(5,3,6)         =         1.857764	     106.442032
	 B(7,4,8)         =         2.074459	     118.857724
	 B(9,7,10)        =         1.991045	     114.078491
	 D(1,2,3,4)       =         2.311357	     132.430976
	*D(1,2,3,5)       =         0.174533	      10.000001
	 D(1,2,3,6)       =        -1.867432	    -106.995985
	 D(2,3,4,7)       =        -0.127023	      -7.277892
	 D(2,3,4,8)       =         3.002973	     172.057705
	 D(3,4,7,9)       =         0.016480	       0.944251
	 D(3,4,7,10)      =         3.133388	     179.529909
	 D(5,3,4,7)       =         2.088052	     119.636564
	 D(5,3,4,8)       =        -1.065137	     -61.027839
	 D(6,3,4,7)       =        -2.138087	    -122.503344
	 D(6,3,4,8)       =         0.991910	      56.832253
	 D(8,4,7,9)       =        -3.112776	    -178.348916
	 D(8,4,7,10)      =         0.004132	       0.236743

	Current energy   :      -191.9337562979

	Energy change for the previous step:
		Projected    :        -0.0025893664
		Actual       :         0.0617519504

	Performing BFGS update.
	Previous computed or guess Hessian on step 1.
	Steps to be used in Hessian update: 1
	Taking RFO optimization step.
	Going to follow RFO solution 1.
	Using RFO vector 1.
	Norm of target step-size    0.45782
	Projected energy change by RFO approximation:        -0.0704178879

	Back-transformation to cartesian coordinates...
	Could not converge backtransformation.
	Using first guess instead.

	Back-transformation to cartesian coordinates to adjust frozen coordinates...
	Successfully converged to displaced geometry.

	--- Internal Coordinate Step in ANG or DEG, aJ/ANG or AJ/DEG ---
	 ---------------------------------------------------------------------------
	   Coordinate                Previous        Force       Change         New 
	   ----------                --------       ------       ------       ------
	    1 R(1,2)          =      0.990500    -0.412145    -0.045003     0.945497
	    2 R(2,3)          =      1.446666    -0.258346    -0.036679     1.409987
	    3 R(3,4)          =      1.626753    -0.541136    -0.099180     1.527573
	    4 R(3,5)          =      1.225745    -0.560379    -0.104248     1.121498
	    5 R(3,6)          =      1.189355    -0.462090    -0.078113     1.111242
	    6 R(4,7)          =      1.461660    -1.184062    -0.125035     1.336625
	    7 R(4,8)          =      1.097226    -0.118026    -0.016334     1.080892
	    8 R(7,9)          =      1.096404    -0.137909    -0.019078     1.077326
	    9 R(7,10)         =      1.158557    -0.426573    -0.067232     1.091326
	   10 B(1,2,3)        =    104.686639     0.001245     3.798623   108.485262
	   11 B(2,3,4)        =    108.117380     0.001165     2.493316   110.610697
	   12 B(2,3,5)        =    116.181765    -0.001026    -2.381498   113.800267
	   13 B(2,3,6)        =    104.593235     0.000706     2.588385   107.181620
	   14 B(3,4,7)        =    129.848585    -0.001648    -3.635858   126.212726
	   15 B(3,4,8)        =    111.290545     0.001195     2.499519   113.790064
	   16 B(4,3,5)        =    108.674766    -0.000067     0.161949   108.836714
	   17 B(4,3,6)        =    112.921781    -0.001113    -3.481612   109.440169
	   18 B(4,7,9)        =    120.307524     0.000221     0.894289   121.201813
	   19 B(4,7,10)       =    125.600563    -0.001110    -3.323897   122.276666
	   20 B(5,3,6)        =    106.442032     0.000241     0.388067   106.830099
	   21 B(7,4,8)        =    118.857724     0.000454     1.136569   119.994293
	   22 B(9,7,10)       =    114.078491     0.000890     2.430408   116.508899
	   23 D(1,2,3,4)      =    132.430976     0.000026     0.449623   132.880599
	   24 *D(1,2,3,5)     =     10.000001    -0.000000    -0.000000    10.000001
	   25 D(1,2,3,6)      =   -106.995985    -0.000052    -0.882817  -107.878802
	   26 D(2,3,4,7)      =     -7.277892     0.000115     1.307170    -5.970722
	   27 D(2,3,4,8)      =    172.057705     0.000122     1.345461   173.403166
	   28 D(3,4,7,9)      =      0.944251    -0.000004    -0.009558     0.934693
	   29 D(3,4,7,10)     =    179.529909     0.000010     0.066993   179.596902
	   30 D(5,3,4,7)      =    119.636564    -0.000009     0.114020   119.750584
	   31 D(5,3,4,8)      =    -61.027839    -0.000003     0.152311   -60.875527
	   32 D(6,3,4,7)      =   -122.503344    -0.000105    -1.334365  -123.837709
	   33 D(6,3,4,8)      =     56.832253    -0.000098    -1.296074    55.536179
	   34 D(8,4,7,9)      =   -178.348916    -0.000012    -0.054888  -178.403803
	   35 D(8,4,7,10)     =      0.236743     0.000002     0.021663     0.258406
	 ---------------------------------------------------------------------------
	Successfully symmetrized geometry.

  ==> Convergence Check <==

  Measures of convergence in internal coordinates in au.
  Criteria marked as inactive (o), active & met (*), and active & unmet ( ).
  ---------------------------------------------------------------------------------------------
   Step     Total Energy     Delta E     MAX Force     RMS Force      MAX Disp      RMS Disp   
  ---------------------------------------------------------------------------------------------
    Convergence Criteria    1.00e-06 *    3.00e-04 *             o    1.20e-03 *             o
  ---------------------------------------------------------------------------------------------
      2    -191.93375630    6.18e-02      1.44e-01      3.45e-02 o    2.36e-01      7.75e-02 o  ~
  ---------------------------------------------------------------------------------------------

	Writing optimization data to binary file.
	Structure for next step:
	Cartesian Geometry (in Angstrom)
	    H    -0.2793066473  -2.0880763431   0.4573000389
	    O     0.0208568290  -1.4137330839  -0.1335708944
	    C    -0.9067125778  -0.3521059561  -0.1085357339
	    C    -0.1870138046   0.9874719076   0.0365262606
	    H    -1.6741706723  -0.4407354916   0.7044278046
	    H    -1.4566508832  -0.3738570362  -1.0739128547
	    C     1.1222250400   1.1623942358   0.2411294609
	    H    -0.8394315885   1.8447407992  -0.0516145436
	    H     1.7939803541   0.3226928604   0.3065365824
	    H     1.5710595319   2.1532528979   0.3291013734
			--------------------------
			 OPTKING Finished Execution 
			--------------------------

    Structure for next step:
    Molecular point group: c1
    Full point group: C1

    Geometry (in Angstrom), charge = 0, multiplicity = 1:

    H           -0.275587707267    -2.094790393386     0.447478156752
    O            0.024575768961    -1.420447134114    -0.143392776566
    C           -0.902993637845    -0.358820006303    -0.118357616118
    C           -0.183294864625     0.980757857333     0.026704378419
    H           -1.670451732316    -0.447449541839     0.694605922407
    H           -1.452931943227    -0.380571086429    -1.083734736845
    C            1.125943980041     1.155680185530     0.231307578737
    H           -0.835712648525     1.838026748960    -0.061436425793
    H            1.797699294067     0.315978810146     0.296714700228
    H            1.574778471846     2.146538847664     0.319279491246

gradient() will perform analytic gradient computation.

*** tstart() called on cx1-27-2-4
*** at Sat Sep 10 15:24:56 2016


         ---------------------------------------------------------
                                   SCF
            by Justin Turney, Rob Parrish, and Andy Simmonett
                              RHF Reference
                        4 Threads,   2000 MiB Core
         ---------------------------------------------------------

  ==> Geometry <==

    Molecular point group: c1
    Full point group: C1

    Geometry (in Angstrom), charge = 0, multiplicity = 1:

       Center              X                  Y                   Z               Mass       
    ------------   -----------------  -----------------  -----------------  -----------------
           H         -0.275587707267    -2.094790393386     0.447478156752     1.007825032070
           O          0.024575768961    -1.420447134114    -0.143392776566    15.994914619560
           C         -0.902993637845    -0.358820006303    -0.118357616118    12.000000000000
           C         -0.183294864625     0.980757857333     0.026704378419    12.000000000000
           H         -1.670451732316    -0.447449541839     0.694605922407     1.007825032070
           H         -1.452931943227    -0.380571086429    -1.083734736845     1.007825032070
           C          1.125943980041     1.155680185530     0.231307578737    12.000000000000
           H         -0.835712648525     1.838026748960    -0.061436425793     1.007825032070
           H          1.797699294067     0.315978810146     0.296714700228     1.007825032070
           H          1.574778471846     2.146538847664     0.319279491246     1.007825032070

  Running in c1 symmetry.

  Rotational constants: A =      0.56861  B =      0.19416  C =      0.15005 [cm^-1]
  Rotational constants: A =  17046.46838  B =   5820.88989  C =   4498.34147 [MHz]
  Nuclear repulsion =  117.946990674011161

  Charge       = 0
  Multiplicity = 1
  Electrons    = 32
  Nalpha       = 16
  Nbeta        = 16

  ==> Algorithm <==

  SCF Algorithm Type is DF.
  DIIS enabled.
  MOM disabled.
  Fractional occupation disabled.
  Guess Type is READ.
  Energy threshold   = 1.00e-08
  Density threshold  = 1.00e-08
  Integral threshold = 0.00e+00

  ==> Primary Basis <==

  Basis Set: CC-PVTZ
    Number of shells: 76
    Number of basis function: 204
    Number of Cartesian functions: 230
    Spherical Harmonics?: true
    Max angular momentum: 3

  ==> Pre-Iterations <==

   -------------------------------------------------------
    Irrep   Nso     Nmo     Nalpha   Nbeta   Ndocc  Nsocc
   -------------------------------------------------------
     A        204     204       0       0       0       0
   -------------------------------------------------------
    Total     204     204      16      16      16       0
   -------------------------------------------------------

  ==> Integral Setup <==

  ==> DFJK: Density-Fitted J/K Matrices <==

    J tasked:                  Yes
    K tasked:                  Yes
    wK tasked:                  No
    OpenMP threads:              4
    Integrals threads:           4
    Memory (MB):              1430
    Algorithm:                Core
    Integral Cache:           NONE
    Schwarz Cutoff:          1E-12
    Fitting Condition:       1E-12

   => Auxiliary Basis Set <=

  Basis Set: 
    Number of shells: 160
    Number of basis function: 496
    Number of Cartesian functions: 594
    Spherical Harmonics?: true
    Max angular momentum: 4

  Minimum eigenvalue in the overlap matrix is 5.2349625571E-04.
  Using Symmetric Orthogonalization.
  SCF Guess: Reading in previously saved MOs, projecting if necessary.

  Using orbitals from previous SCF, no projection.
  Recomputing DOCC and SOCC from number of alpha and beta electrons from previous calculation.
              A 
    DOCC [    16 ]

  ==> Iterations <==

                           Total Energy        Delta E     RMS |[F,P]|

   @DF-RHF iter   0:  -192.24318688372887   -1.92243e+02   1.84341e-03 
   @DF-RHF iter   1:  -191.99096574150116    2.52221e-01   2.91718e-04 
   @DF-RHF iter   2:  -191.99289872829536   -1.93299e-03   1.48167e-04 DIIS
   @DF-RHF iter   3:  -191.99330450928670   -4.05781e-04   2.18184e-05 DIIS
   @DF-RHF iter   4:  -191.99332176178797   -1.72525e-05   9.19402e-06 DIIS
   @DF-RHF iter   5:  -191.99332410389428   -2.34211e-06   2.50837e-06 DIIS
   @DF-RHF iter   6:  -191.99332445461101   -3.50717e-07   8.34132e-07 DIIS
   @DF-RHF iter   7:  -191.99332448793376   -3.33227e-08   2.84895e-07 DIIS
   @DF-RHF iter   8:  -191.99332449109050   -3.15674e-09   1.07209e-07 DIIS
   @DF-RHF iter   9:  -191.99332449150558   -4.15071e-10   3.36380e-08 DIIS
   @DF-RHF iter  10:  -191.99332449157816   -7.25890e-11   9.21346e-09 DIIS

  ==> Post-Iterations <==

    Orbital Energies (a.u.)
    -----------------------

    Doubly Occupied:                                                      

       1A    -20.556340     2A    -11.289839     3A    -11.231538  
       4A    -11.216860     5A     -1.369328     6A     -1.047558  
       7A     -0.918615     8A     -0.756912     9A     -0.704799  
      10A     -0.643888    11A     -0.605768    12A     -0.581180  
      13A     -0.516974    14A     -0.498593    15A     -0.451257  
      16A     -0.357505  

    Virtual:                                                              

      17A      0.134008    18A      0.163111    19A      0.173360  
      20A      0.183716    21A      0.209201    22A      0.218025  
      23A      0.237483    24A      0.315082    25A      0.331310  
      26A      0.379097    27A      0.425735    28A      0.447339  
      29A      0.485149    30A      0.495142    31A      0.534848  
      32A      0.549347    33A      0.583744    34A      0.586929  
      35A      0.595494    36A      0.611346    37A      0.623674  
      38A      0.641079    39A      0.658154    40A      0.668685  
      41A      0.700398    42A      0.730852    43A      0.752572  
      44A      0.787522    45A      0.817289    46A      0.843770  
      47A      0.856934    48A      0.860747    49A      0.900663  
      50A      0.916356    51A      0.943788    52A      1.017917  
      53A      1.098185    54A      1.118438    55A      1.126579  
      56A      1.157025    57A      1.197719    58A      1.211512  
      59A      1.244641    60A      1.265707    61A      1.274137  
      62A      1.313014    63A      1.323428    64A      1.370722  
      65A      1.387946    66A      1.405683    67A      1.413885  
      68A      1.489222    69A      1.504360    70A      1.522421  
      71A      1.540994    72A      1.551098    73A      1.588969  
      74A      1.635966    75A      1.654976    76A      1.708462  
      77A      1.757400    78A      1.766829    79A      1.792082  
      80A      1.889359    81A      2.087504    82A      2.135333  
      83A      2.222011    84A      2.264573    85A      2.314674  
      86A      2.397818    87A      2.427403    88A      2.434415  
      89A      2.558705    90A      2.584551    91A      2.591665  
      92A      2.603337    93A      2.692292    94A      2.739611  
      95A      2.785397    96A      2.847462    97A      2.878760  
      98A      2.946719    99A      2.986186   100A      3.004288  
     101A      3.046627   102A      3.070129   103A      3.094809  
     104A      3.134423   105A      3.159174   106A      3.184903  
     107A      3.198458   108A      3.234246   109A      3.241294  
     110A      3.252542   111A      3.283470   112A      3.290244  
     113A      3.318792   114A      3.379991   115A      3.409706  
     116A      3.432168   117A      3.443159   118A      3.458711  
     119A      3.480568   120A      3.511761   121A      3.531062  
     122A      3.553178   123A      3.576652   124A      3.621169  
     125A      3.633772   126A      3.691435   127A      3.715750  
     128A      3.738460   129A      3.753139   130A      3.762663  
     131A      3.826759   132A      3.843244   133A      3.911923  
     134A      3.929536   135A      3.936032   136A      3.984524  
     137A      4.019703   138A      4.022208   139A      4.046791  
     140A      4.061610   141A      4.119887   142A      4.165282  
     143A      4.174169   144A      4.214505   145A      4.236329  
     146A      4.261831   147A      4.284180   148A      4.307261  
     149A      4.351257   150A      4.364072   151A      4.391225  
     152A      4.399452   153A      4.433340   154A      4.452325  
     155A      4.501579   156A      4.513172   157A      4.557044  
     158A      4.608514   159A      4.680151   160A      4.703152  
     161A      4.750672   162A      4.810899   163A      4.843999  
     164A      4.862120   165A      4.991235   166A      5.037347  
     167A      5.079124   168A      5.083208   169A      5.121211  
     170A      5.140517   171A      5.207918   172A      5.254824  
     173A      5.319219   174A      5.320036   175A      5.343490  
     176A      5.372310   177A      5.455245   178A      5.482408  
     179A      5.567882   180A      5.578982   181A      5.624397  
     182A      5.785740   183A      5.832161   184A      5.901400  
     185A      6.093593   186A      6.147174   187A      6.222591  
     188A      6.289825   189A      6.318877   190A      6.427469  
     191A      6.583234   192A      6.712985   193A      7.046348  
     194A      7.148536   195A      7.219122   196A      7.297541  
     197A      7.395822   198A      7.539456   199A      7.650846  
     200A      7.962244   201A     11.437577   202A     12.578415  
     203A     13.119957   204A     14.577244  

    Final Occupation by Irrep:
              A 
    DOCC [    16 ]

  Energy converged.

  @DF-RHF Final Energy:  -191.99332449157816

   => Energetics <=

    Nuclear Repulsion Energy =            117.9469906740111611
    One-Electron Energy =                -494.3867212144580208
    Two-Electron Energy =                 184.4464060488688233
    DFT Exchange-Correlation Energy =       0.0000000000000000
    Empirical Dispersion Energy =           0.0000000000000000
    PCM Polarization Energy =               0.0000000000000000
    EFP Energy =                            0.0000000000000000
    Total Energy =                       -191.9933244915780506


  Saving occupied orbitals to File 180.

*** tstop() called on cx1-27-2-4 at Sat Sep 10 15:24:58 2016
Module time:
	user time   =       7.25 seconds =       0.12 minutes
	system time =       0.25 seconds =       0.00 minutes
	total time  =          2 seconds =       0.03 minutes
Total time:
	user time   =      46.38 seconds =       0.77 minutes
	system time =       1.57 seconds =       0.03 minutes
	total time  =         13 seconds =       0.22 minutes


Properties will be evaluated at   0.000000,   0.000000,   0.000000 Bohr

Properties computed using the SCF density matrix

  Nuclear Dipole Moment: (a.u.)
     X:    -0.8082      Y:     1.2848      Z:     0.5739

  Electronic Dipole Moment: (a.u.)
     X:     0.2078      Y:    -1.3889      Z:    -0.1985

  Dipole Moment: (a.u.)
     X:    -0.6004      Y:    -0.1041      Z:     0.3754     Total:     0.7157

  Dipole Moment: (Debye)
     X:    -1.5261      Y:    -0.2647      Z:     0.9541     Total:     1.8191


*** tstart() called on cx1-27-2-4
*** at Sat Sep 10 15:24:58 2016


         ------------------------------------------------------------
                                   SCF GRAD                          
                          Rob Parrish, Justin Turney,                
                       Andy Simmonett, and Alex Sokolov              
         ------------------------------------------------------------

  ==> Geometry <==

    Molecular point group: c1
    Full point group: C1

    Geometry (in Angstrom), charge = 0, multiplicity = 1:

       Center              X                  Y                   Z               Mass       
    ------------   -----------------  -----------------  -----------------  -----------------
           H         -0.275587707267    -2.094790393386     0.447478156752     1.007825032070
           O          0.024575768961    -1.420447134114    -0.143392776566    15.994914619560
           C         -0.902993637845    -0.358820006303    -0.118357616118    12.000000000000
           C         -0.183294864625     0.980757857333     0.026704378419    12.000000000000
           H         -1.670451732316    -0.447449541839     0.694605922407     1.007825032070
           H         -1.452931943227    -0.380571086429    -1.083734736845     1.007825032070
           C          1.125943980041     1.155680185530     0.231307578737    12.000000000000
           H         -0.835712648525     1.838026748960    -0.061436425793     1.007825032070
           H          1.797699294067     0.315978810146     0.296714700228     1.007825032070
           H          1.574778471846     2.146538847664     0.319279491246     1.007825032070

  Nuclear repulsion =  117.946990674011161

  ==> Basis Set <==

  Basis Set: CC-PVTZ
    Number of shells: 76
    Number of basis function: 204
    Number of Cartesian functions: 230
    Spherical Harmonics?: true
    Max angular momentum: 3

  ==> DFJKGrad: Density-Fitted SCF Gradients <==

    Gradient:                    1
    J tasked:                  Yes
    K tasked:                  Yes
    wK tasked:                  No
    OpenMP threads:              4
    Integrals threads:           4
    Memory (MB):              1430
    Schwarz Cutoff:          0E+00
    Fitting Condition:       1E-12

   => Auxiliary Basis Set <=

  Basis Set: 
    Number of shells: 160
    Number of basis function: 496
    Number of Cartesian functions: 594
    Spherical Harmonics?: true
    Max angular momentum: 4


  -Total Gradient:
     Atom            X                  Y                   Z
    ------   -----------------  -----------------  -----------------
       1       -0.005378080904    -0.003551774821     0.006120386245
       2        0.014605736116     0.002105089245    -0.014654664597
       3       -0.000002332202    -0.007991281361     0.007426040443
       4       -0.014224602466     0.003020037888    -0.002096342587
       5       -0.017537988914     0.001876986425     0.014331923253
       6       -0.005332535666    -0.004664610956    -0.015146264058
       7        0.018545246271     0.000006179702     0.004225750411
       8       -0.002486756126     0.001141782524    -0.001162197375
       9        0.003306076060    -0.002097663151    -0.000339358802
      10        0.008505237833     0.010155254507     0.001294727066


*** tstop() called on cx1-27-2-4 at Sat Sep 10 15:25:01 2016
Module time:
	user time   =       9.36 seconds =       0.16 minutes
	system time =       0.28 seconds =       0.00 minutes
	total time  =          3 seconds =       0.05 minutes
Total time:
	user time   =      55.81 seconds =       0.93 minutes
	system time =       1.85 seconds =       0.03 minutes
	total time  =         16 seconds =       0.27 minutes

			-----------------------------------------
			 OPTKING 2.0: for geometry optimizations 
			  - R.A. King,  Bethel University        
			-----------------------------------------

	Previous internal coordinate definitions found.
	---Fragment 1 Geometry and Gradient---
	 H          -0.5207852923       -3.9585801493        0.8456111667
	 O           0.0464414728       -2.6842560697       -0.2709730771
	 C          -1.7064106753       -0.6780715429       -0.2236634802
	 C          -0.3463770957        1.8533637530        0.0504639618
	 H          -3.1566962923       -0.8455570924        1.3126149636
	 H          -2.7456434624       -0.7191751274       -2.0479618533
	 C           2.1277257632        2.1839190479        0.4371079763
	 H          -1.5792680315        3.4733671805       -0.1160980193
	 H           3.3971593351        0.5971134150        0.5607095230
	 H           2.9759000318        4.0563705557        0.6033507983
	            -0.0053780809       -0.0035517748        0.0061203862
	             0.0146057361        0.0021050892       -0.0146546646
	            -0.0000023322       -0.0079912814        0.0074260404
	            -0.0142246025        0.0030200379       -0.0020963426
	            -0.0175379889        0.0018769864        0.0143319233
	            -0.0053325357       -0.0046646110       -0.0151462641
	             0.0185452463        0.0000061797        0.0042257504
	            -0.0024867561        0.0011417825       -0.0011621974
	             0.0033060761       -0.0020976632       -0.0003393588
	             0.0085052378        0.0101552545        0.0012947271

	---Fragment 1 Intrafragment Coordinates---
	 - Coordinate -           - BOHR/RAD -       - ANG/DEG -
	 R(1,2)           =         1.786731	       0.945497
	 R(2,3)           =         2.664490	       1.409987
	 R(3,4)           =         2.886694	       1.527573
	 R(3,5)           =         2.119323	       1.121498
	 R(3,6)           =         2.099943	       1.111242
	 R(4,7)           =         2.525855	       1.336625
	 R(4,8)           =         2.042590	       1.080892
	 R(7,9)           =         2.035851	       1.077326
	 R(7,10)          =         2.062307	       1.091326
	 B(1,2,3)         =         1.893425	     108.485262
	 B(2,3,4)         =         1.930521	     110.610697
	 B(2,3,5)         =         1.986189	     113.800267
	 B(2,3,6)         =         1.870672	     107.181620
	 B(3,4,7)         =         2.202828	     126.212726
	 B(3,4,8)         =         1.986011	     113.790064
	 B(4,3,5)         =         1.899559	     108.836714
	 B(4,3,6)         =         1.910091	     109.440169
	 B(4,7,9)         =         2.115371	     121.201813
	 B(4,7,10)        =         2.134130	     122.276666
	 B(5,3,6)         =         1.864537	     106.830099
	 B(7,4,8)         =         2.094296	     119.994293
	 B(9,7,10)        =         2.033464	     116.508899
	 D(1,2,3,4)       =         2.319204	     132.880599
	*D(1,2,3,5)       =         0.174533	      10.000001
	 D(1,2,3,6)       =        -1.882840	    -107.878802
	 D(2,3,4,7)       =        -0.104209	      -5.970722
	 D(2,3,4,8)       =         3.026456	     173.403166
	 D(3,4,7,9)       =         0.016313	       0.934693
	 D(3,4,7,10)      =         3.134557	     179.596902
	 D(5,3,4,7)       =         2.090042	     119.750584
	 D(5,3,4,8)       =        -1.062478	     -60.875527
	 D(6,3,4,7)       =        -2.161376	    -123.837709
	 D(6,3,4,8)       =         0.969289	      55.536179
	 D(8,4,7,9)       =        -3.113734	    -178.403803
	 D(8,4,7,10)      =         0.004510	       0.258406

	Current energy   :      -191.9933244916

	Energy change for the previous step:
		Projected    :        -0.0704178879
		Actual       :        -0.0595681936
	Energy ratio indicates good step: Trust radius increased to 1.000e+00.


	Performing BFGS update.
	Previous computed or guess Hessian on step 1.
	Steps to be used in Hessian update: 2 1
	Taking RFO optimization step.
	Going to follow RFO solution 1.
	Using RFO vector 1.
	Norm of target step-size    0.15194
	Projected energy change by RFO approximation:        -0.0060904964

	Back-transformation to cartesian coordinates...
	Could not converge backtransformation.
	Using first guess instead.

	Back-transformation to cartesian coordinates to adjust frozen coordinates...
	Successfully converged to displaced geometry.

	--- Internal Coordinate Step in ANG or DEG, aJ/ANG or AJ/DEG ---
	 ---------------------------------------------------------------------------
	   Coordinate                Previous        Force       Change         New 
	   ----------                --------       ------       ------       ------
	    1 R(1,2)          =      0.945497    -0.066448    -0.009003     0.936494
	    2 R(2,3)          =      1.409987    -0.060235    -0.009755     1.400232
	    3 R(3,4)          =      1.527573    -0.142797    -0.032037     1.495535
	    4 R(3,5)          =      1.121498    -0.183248    -0.036156     1.085341
	    5 R(3,6)          =      1.111242    -0.130900    -0.025327     1.085915
	    6 R(4,7)          =      1.336625    -0.260203    -0.027457     1.309168
	    7 R(4,8)          =      1.080892    -0.020608    -0.003641     1.077251
	    8 R(7,9)          =      1.077326    -0.030284    -0.004865     1.072461
	    9 R(7,10)         =      1.091326    -0.105643    -0.018848     1.072478
	   10 B(1,2,3)        =    108.485262     0.000506     1.966447   110.451709
	   11 B(2,3,4)        =    110.610697     0.000529     1.171712   111.782409
	   12 B(2,3,5)        =    113.800267    -0.000588    -1.856504   111.943763
	   13 B(2,3,6)        =    107.181620     0.000322     2.103066   109.284686
	   14 B(3,4,7)        =    126.212726    -0.000332    -0.779285   125.433442
	   15 B(3,4,8)        =    113.790064     0.000275     0.666743   114.456807
	   16 B(4,3,5)        =    108.836714     0.000010    -0.044271   108.792443
	   17 B(4,3,6)        =    109.440169    -0.000343    -1.111406   108.328762
	   18 B(4,7,9)        =    121.201813     0.000065     0.274416   121.476229
	   19 B(4,7,10)       =    122.276666    -0.000311    -1.257314   121.019353
	   20 B(5,3,6)        =    106.830099     0.000050    -0.318823   106.511276
	   21 B(7,4,8)        =    119.994293     0.000057     0.113152   120.107445
	   22 B(9,7,10)       =    116.508899     0.000247     0.988390   117.497289
	   23 D(1,2,3,4)      =    132.880599    -0.000003    -0.536301   132.344298
	   24 *D(1,2,3,5)     =     10.000001     0.000000     0.000000    10.000001
	   25 D(1,2,3,6)      =   -107.878802     0.000015     0.130747  -107.748056
	   26 D(2,3,4,7)      =     -5.970722     0.000068     1.529923    -4.440800
	   27 D(2,3,4,8)      =    173.403166     0.000071     1.600868   175.004034
	   28 D(3,4,7,9)      =      0.934693    -0.000009    -0.264784     0.669909
	   29 D(3,4,7,10)     =    179.596902     0.000005     0.077276   179.674178
	   30 D(5,3,4,7)      =    119.750584    -0.000018    -0.061409   119.689176
	   31 D(5,3,4,8)      =    -60.875527    -0.000015     0.009537   -60.865990
	   32 D(6,3,4,7)      =   -123.837709    -0.000047    -1.070375  -124.908084
	   33 D(6,3,4,8)      =     55.536179    -0.000044    -0.999429    54.536750
	   34 D(8,4,7,9)      =   -178.403803    -0.000013    -0.342122  -178.745925
	   35 D(8,4,7,10)     =      0.258406     0.000001    -0.000063     0.258343
	 ---------------------------------------------------------------------------
	Successfully symmetrized geometry.

  ==> Convergence Check <==

  Measures of convergence in internal coordinates in au.
  Criteria marked as inactive (o), active & met (*), and active & unmet ( ).
  ---------------------------------------------------------------------------------------------
   Step     Total Energy     Delta E     MAX Force     RMS Force      MAX Disp      RMS Disp   
  ---------------------------------------------------------------------------------------------
    Convergence Criteria    1.00e-06 *    3.00e-04 *             o    1.20e-03 *             o
  ---------------------------------------------------------------------------------------------
      3    -191.99332449   -5.96e-02      3.16e-02      8.70e-03 o    6.83e-02      2.57e-02 o  ~
  ---------------------------------------------------------------------------------------------

	Writing optimization data to binary file.
	Structure for next step:
	Cartesian Geometry (in Angstrom)
	    H    -0.2661867998  -2.0856569066   0.4589060222
	    O     0.0238018946  -1.4117638050  -0.1231560765
	    C    -0.8805945773  -0.3427841090  -0.1232963324
	    C    -0.1848444950   0.9728048302   0.0242957873
	    H    -1.6204929082  -0.4373915208   0.6650977462
	    H    -1.4280068285  -0.3362684316  -1.0611171568
	    C     1.0989751706   1.1343360423   0.2233815526
	    H    -0.8314965849   1.8307014755  -0.0552322714
	    H     1.7656772586   0.2966360930   0.2861554916
	    H     1.5251928511   2.1142906196   0.3141339098
			--------------------------
			 OPTKING Finished Execution 
			--------------------------

    Structure for next step:
    Molecular point group: c1
    Full point group: C1

    Geometry (in Angstrom), charge = 0, multiplicity = 1:

    H           -0.264828066547    -2.085387576819     0.456573187389
    O            0.025160627829    -1.411494475218    -0.125488911296
    C           -0.879235844037    -0.342514779216    -0.125629167227
    C           -0.183485761731     0.973074159990     0.021962952513
    H           -1.619134174899    -0.437122191060     0.662764911433
    H           -1.426648095240    -0.335999101805    -1.063449991612
    C            1.100333903862     1.134605372040     0.221048717782
    H           -0.830137851634     1.830970805250    -0.057565106200
    H            1.767035991921     0.296905422791     0.283822656803
    H            1.526551584325     2.114559949406     0.311801075010

gradient() will perform analytic gradient computation.

*** tstart() called on cx1-27-2-4
*** at Sat Sep 10 15:25:01 2016


         ---------------------------------------------------------
                                   SCF
            by Justin Turney, Rob Parrish, and Andy Simmonett
                              RHF Reference
                        4 Threads,   2000 MiB Core
         ---------------------------------------------------------

  ==> Geometry <==

    Molecular point group: c1
    Full point group: C1

    Geometry (in Angstrom), charge = 0, multiplicity = 1:

       Center              X                  Y                   Z               Mass       
    ------------   -----------------  -----------------  -----------------  -----------------
           H         -0.264828066547    -2.085387576819     0.456573187389     1.007825032070
           O          0.025160627829    -1.411494475218    -0.125488911296    15.994914619560
           C         -0.879235844037    -0.342514779216    -0.125629167227    12.000000000000
           C         -0.183485761731     0.973074159990     0.021962952513    12.000000000000
           H         -1.619134174899    -0.437122191060     0.662764911433     1.007825032070
           H         -1.426648095240    -0.335999101805    -1.063449991612     1.007825032070
           C          1.100333903862     1.134605372040     0.221048717782    12.000000000000
           H         -0.830137851634     1.830970805250    -0.057565106200     1.007825032070
           H          1.767035991921     0.296905422791     0.283822656803     1.007825032070
           H          1.526551584325     2.114559949406     0.311801075010     1.007825032070

  Running in c1 symmetry.

  Rotational constants: A =      0.58542  B =      0.20052  C =      0.15467 [cm^-1]
  Rotational constants: A =  17550.49654  B =   6011.32213  C =   4636.76696 [MHz]
  Nuclear repulsion =  119.752919934708132

  Charge       = 0
  Multiplicity = 1
  Electrons    = 32
  Nalpha       = 16
  Nbeta        = 16

  ==> Algorithm <==

  SCF Algorithm Type is DF.
  DIIS enabled.
  MOM disabled.
  Fractional occupation disabled.
  Guess Type is READ.
  Energy threshold   = 1.00e-08
  Density threshold  = 1.00e-08
  Integral threshold = 0.00e+00

  ==> Primary Basis <==

  Basis Set: CC-PVTZ
    Number of shells: 76
    Number of basis function: 204
    Number of Cartesian functions: 230
    Spherical Harmonics?: true
    Max angular momentum: 3

  ==> Pre-Iterations <==

[...]
     134A      3.949956   135A      3.965314   136A      3.997398  
     137A      4.041573   138A      4.049156   139A      4.064062  
     140A      4.090581   141A      4.135462   142A      4.185798  
     143A      4.196871   144A      4.232644   145A      4.253729  
     146A      4.284675   147A      4.307257   148A      4.336994  
     149A      4.386467   150A      4.401078   151A      4.436766  
     152A      4.457758   153A      4.469444   154A      4.483963  
     155A      4.529340   156A      4.558571   157A      4.589074  
     158A      4.640742   159A      4.718223   160A      4.743962  
     161A      4.784572   162A      4.839644   163A      4.886520  
     164A      4.915966   165A      5.034005   166A      5.080991  
     167A      5.120456   168A      5.132711   169A      5.182511  
     170A      5.193922   171A      5.247388   172A      5.321034  
     173A      5.373592   174A      5.392735   175A      5.412120  
     176A      5.444970   177A      5.487630   178A      5.559757  
     179A      5.601996   180A      5.654393   181A      5.712032  
     182A      5.826949   183A      5.866731   184A      5.945962  
     185A      6.123894   186A      6.160626   187A      6.285629  
     188A      6.334735   189A      6.368207   190A      6.497200  
     191A      6.645473   192A      6.786125   193A      7.062879  
     194A      7.177360   195A      7.270678   196A      7.304547  
     197A      7.411795   198A      7.553930   199A      7.680162  
     200A      8.002245   201A     11.639999   202A     12.714256  
     203A     13.689063   204A     15.073829  

    Final Occupation by Irrep:
              A 
    DOCC [    16 ]

  Energy converged.

  @DF-RHF Final Energy:  -191.99685398601139

   => Energetics <=

    Nuclear Repulsion Energy =            119.4753047845720033
    One-Electron Energy =                -497.3983176535968482
    Two-Electron Energy =                 185.9261588830134428
    DFT Exchange-Correlation Energy =       0.0000000000000000
    Empirical Dispersion Energy =           0.0000000000000000
    PCM Polarization Energy =               0.0000000000000000
    EFP Energy =                            0.0000000000000000
    Total Energy =                       -191.9968539860113879


  Saving occupied orbitals to File 180.

*** tstop() called on cx1-27-2-4 at Sat Sep 10 15:25:18 2016
Module time:
	user time   =       5.43 seconds =       0.09 minutes
	system time =       0.17 seconds =       0.00 minutes
	total time  =          2 seconds =       0.03 minutes
Total time:
	user time   =     111.17 seconds =       1.85 minutes
	system time =       3.72 seconds =       0.06 minutes
	total time  =         33 seconds =       0.55 minutes


Properties will be evaluated at   0.000000,   0.000000,   0.000000 Bohr

Properties computed using the SCF density matrix

  Nuclear Dipole Moment: (a.u.)
     X:    -0.8005      Y:     1.2989      Z:     0.5606

  Electronic Dipole Moment: (a.u.)
     X:     0.1919      Y:    -1.3911      Z:    -0.1924

  Dipole Moment: (a.u.)
     X:    -0.6086      Y:    -0.0922      Z:     0.3682     Total:     0.7172

  Dipole Moment: (Debye)
     X:    -1.5469      Y:    -0.2343      Z:     0.9358     Total:     1.8231


*** tstart() called on cx1-27-2-4
*** at Sat Sep 10 15:25:18 2016


         ------------------------------------------------------------
                                   SCF GRAD                          
                          Rob Parrish, Justin Turney,                
                       Andy Simmonett, and Alex Sokolov              
         ------------------------------------------------------------

  ==> Geometry <==

    Molecular point group: c1
    Full point group: C1

    Geometry (in Angstrom), charge = 0, multiplicity = 1:

       Center              X                  Y                   Z               Mass       
    ------------   -----------------  -----------------  -----------------  -----------------
           H         -0.283502518249    -2.088302313475     0.465113266695     1.007825032070
           O          0.017254704179    -1.418983812296    -0.118395632814    15.994914619560
           C         -0.877668971072    -0.343853251644    -0.131961425888    12.000000000000
           C         -0.181162220524     0.975224628532     0.024088992057    12.000000000000
           H         -1.618868513040    -0.444542617760     0.657226956141     1.007825032070
           H         -1.425623672614    -0.341261686612    -1.071139256816     1.007825032070
           C          1.107553604413     1.143030890368     0.215411770212    12.000000000000
           H         -0.830497039680     1.832814966285    -0.039620100674     1.007825032070
           H          1.777140449079     0.307756129383     0.274367448415     1.007825032070
           H          1.527377195275     2.126334542310     0.312623841550     1.007825032070

  Nuclear repulsion =  119.475304784572003

  ==> Basis Set <==

  Basis Set: CC-PVTZ
    Number of shells: 76
    Number of basis function: 204
    Number of Cartesian functions: 230
    Spherical Harmonics?: true
    Max angular momentum: 3

  ==> DFJKGrad: Density-Fitted SCF Gradients <==

    Gradient:                    1
    J tasked:                  Yes
    K tasked:                  Yes
    wK tasked:                  No
    OpenMP threads:              4
    Integrals threads:           4
    Memory (MB):              1430
    Schwarz Cutoff:          0E+00
    Fitting Condition:       1E-12

   => Auxiliary Basis Set <=

  Basis Set: 
    Number of shells: 160
    Number of basis function: 496
    Number of Cartesian functions: 594
    Spherical Harmonics?: true
    Max angular momentum: 4


  -Total Gradient:
     Atom            X                  Y                   Z
    ------   -----------------  -----------------  -----------------
       1        0.000178212538     0.000109033392     0.000240600473
       2       -0.000211334983    -0.000273039806    -0.000316834222
       3        0.000250585764     0.000234374284     0.000238789165
       4       -0.000034924350     0.000014603258    -0.000005802465
       5       -0.000180142109    -0.000125742435    -0.000156716887
       6       -0.000017874571     0.000026850359    -0.000002852395
       7       -0.000004442209    -0.000009813080     0.000019601748
       8        0.000004325897     0.000013949992    -0.000004110982
       9        0.000008661165     0.000000480734    -0.000012870300
      10        0.000006932857     0.000009303303     0.000000195865


*** tstop() called on cx1-27-2-4 at Sat Sep 10 15:25:20 2016
Module time:
	user time   =       8.14 seconds =       0.14 minutes
	system time =       0.27 seconds =       0.00 minutes
	total time  =          2 seconds =       0.03 minutes
Total time:
	user time   =     119.38 seconds =       1.99 minutes
	system time =       3.99 seconds =       0.07 minutes
	total time  =         35 seconds =       0.58 minutes

			-----------------------------------------
			 OPTKING 2.0: for geometry optimizations 
			  - R.A. King,  Bethel University        
			-----------------------------------------

	Previous internal coordinate definitions found.
	---Fragment 1 Geometry and Gradient---
	 H          -0.5357421175       -3.9463194551        0.8789366948
	 O           0.0326066654       -2.6814907922       -0.2237353213
	 C          -1.6585539907       -0.6497884755       -0.2493709550
	 C          -0.3423469824        1.8429074660        0.0455215978
	 H          -3.0592181348       -0.8400638020        1.2419789543
	 H          -2.6940383098       -0.6448911273       -2.0241598456
	 C           2.0929729898        2.1600153442        0.4070692515
	 H          -1.5694119592        3.4635183385       -0.0748711396
	 H           3.3583087484        0.5815748003        0.5184793373
	 H           2.8863246007        4.0181899519        0.5907734431
	             0.0001782125        0.0001090334        0.0002406005
	            -0.0002113350       -0.0002730398       -0.0003168342
	             0.0002505858        0.0002343743        0.0002387892
	            -0.0000349244        0.0000146033       -0.0000058025
	            -0.0001801421       -0.0001257424       -0.0001567169
	            -0.0000178746        0.0000268504       -0.0000028524
	            -0.0000044422       -0.0000098131        0.0000196017
	             0.0000043259        0.0000139500       -0.0000041110
	             0.0000086612        0.0000004807       -0.0000128703
	             0.0000069329        0.0000093033        0.0000001959

	---Fragment 1 Intrafragment Coordinates---
	 - Coordinate -           - BOHR/RAD -       - ANG/DEG -
	 R(1,2)           =         1.771637	       0.937510
	 R(2,3)           =         2.643576	       1.398920
	 R(3,4)           =         2.834236	       1.499813
	 R(3,5)           =         2.054797	       1.087352
	 R(3,6)           =         2.054782	       1.087344
	 R(4,7)           =         2.482349	       1.313603
	 R(4,8)           =         2.036311	       1.077569
	 R(7,9)           =         2.026070	       1.072150
	 R(7,10)          =         2.028785	       1.073587
	 B(1,2,3)         =         1.927830	     110.456547
	 B(2,3,4)         =         1.958254	     112.199663
	 B(2,3,5)         =         1.936778	     110.969211
	 B(2,3,6)         =         1.909845	     109.426038
	 B(3,4,7)         =         2.193339	     125.669067
	 B(3,4,8)         =         1.997595	     114.453758
	 B(4,3,5)         =         1.899149	     108.813202
	 B(4,3,6)         =         1.898426	     108.771792
	 B(4,7,9)         =         2.119032	     121.411590
	 B(4,7,10)        =         2.110439	     120.919267
	 B(5,3,6)         =         1.858341	     106.475086
	 B(7,4,8)         =         2.092226	     119.875707
	 B(9,7,10)        =         2.053698	     117.668213
	 D(1,2,3,4)       =         2.303226	     131.965155
	*D(1,2,3,5)       =         0.174533	      10.000001
	 D(1,2,3,6)       =        -1.871113	    -107.206867
	 D(2,3,4,7)       =        -0.052119	      -2.986191
	 D(2,3,4,8)       =         3.081722	     176.569665
	 D(3,4,7,9)       =         0.000990	       0.056704
	 D(3,4,7,10)      =         3.136314	     179.697576
	 D(5,3,4,7)       =         2.097886	     120.199997
	 D(5,3,4,8)       =        -1.051459	     -60.244148
	 D(6,3,4,7)       =        -2.167541	    -124.190951
	 D(6,3,4,8)       =         0.966300	      55.364904
	 D(8,4,7,9)       =        -3.132465	    -179.477029
	 D(8,4,7,10)      =         0.002860	       0.163842

	Current energy   :      -191.9968539860

	Energy change for the previous step:
		Projected    :        -0.0000002032
		Actual       :        -0.0000001546

	Performing BFGS update.
	Previous computed or guess Hessian on step 1.
	Steps to be used in Hessian update: 6 5
	Taking RFO optimization step.
	Going to follow RFO solution 1.
	Using RFO vector 1.
	Norm of target step-size    0.00068
	Projected energy change by RFO approximation:        -0.0000000349

	Back-transformation to cartesian coordinates...
	Successfully converged to displaced geometry.

	Back-transformation to cartesian coordinates to adjust frozen coordinates...
	Successfully converged to displaced geometry.

	--- Internal Coordinate Step in ANG or DEG, aJ/ANG or AJ/DEG ---
	 ---------------------------------------------------------------------------
	   Coordinate                Previous        Force       Change         New 
	   ----------                --------       ------       ------       ------
	    1 R(1,2)          =      0.937510    -0.000121    -0.000011     0.937499
	    2 R(2,3)          =      1.398920    -0.000858    -0.000082     1.398838
	    3 R(3,4)          =      1.499813    -0.000130    -0.000019     1.499794
	    4 R(3,5)          =      1.087352    -0.000170    -0.000028     1.087323
	    5 R(3,6)          =      1.087344    -0.000095    -0.000014     1.087330
	    6 R(4,7)          =      1.313603    -0.000098    -0.000011     1.313591
	    7 R(4,8)          =      1.077569    -0.000072    -0.000009     1.077560
	    8 R(7,9)          =      1.072150    -0.000036    -0.000006     1.072144
	    9 R(7,10)         =      1.073587    -0.000093    -0.000015     1.073572
	   10 B(1,2,3)        =    110.456547    -0.000004    -0.011537   110.445010
	   11 B(2,3,4)        =    112.199663    -0.000002    -0.005448   112.194215
	   12 B(2,3,5)        =    110.969211     0.000000    -0.000830   110.968381
	   13 B(2,3,6)        =    109.426038    -0.000001    -0.009302   109.416736
	   14 B(3,4,7)        =    125.669067     0.000000     0.001081   125.670148
	   15 B(3,4,8)        =    114.453758    -0.000001    -0.003357   114.450401
	   16 B(4,3,5)        =    108.813202     0.000001     0.007682   108.820883
	   17 B(4,3,6)        =    108.771792     0.000002     0.005276   108.777068
	   18 B(4,7,9)        =    121.411590    -0.000000    -0.001530   121.410060
	   19 B(4,7,10)       =    120.919267    -0.000000    -0.000107   120.919160
	   20 B(5,3,6)        =    106.475086     0.000000     0.003266   106.478352
	   21 B(7,4,8)        =    119.875707     0.000001     0.002281   119.877988
	   22 B(9,7,10)       =    117.668213     0.000000     0.001731   117.669944
	   23 D(1,2,3,4)      =    131.965155     0.000000     0.005468   131.970622
	   24 *D(1,2,3,5)     =     10.000001     0.000000    -0.000000    10.000001
	   25 D(1,2,3,6)      =   -107.206867     0.000000     0.002189  -107.204679
	   26 D(2,3,4,7)      =     -2.986191    -0.000000    -0.011045    -2.997236
	   27 D(2,3,4,8)      =    176.569665    -0.000000    -0.010238   176.559426
	   28 D(3,4,7,9)      =      0.056704    -0.000000    -0.016398     0.040306
	   29 D(3,4,7,10)     =    179.697576     0.000000     0.002178   179.699754
	   30 D(5,3,4,7)      =    120.199997    -0.000000    -0.010317   120.189680
	   31 D(5,3,4,8)      =    -60.244148    -0.000000    -0.009510   -60.253658
	   32 D(6,3,4,7)      =   -124.190951     0.000000     0.000563  -124.190389
	   33 D(6,3,4,8)      =     55.364904     0.000000     0.001369    55.366274
	   34 D(8,4,7,9)      =   -179.477029    -0.000000    -0.017222  -179.494251
	   35 D(8,4,7,10)     =      0.163842     0.000000     0.001354     0.165197
	 ---------------------------------------------------------------------------
	Successfully symmetrized geometry.

  ==> Convergence Check <==

  Measures of convergence in internal coordinates in au.
  Criteria marked as inactive (o), active & met (*), and active & unmet ( ).
  ---------------------------------------------------------------------------------------------
   Step     Total Energy     Delta E     MAX Force     RMS Force      MAX Disp      RMS Disp   
  ---------------------------------------------------------------------------------------------
    Convergence Criteria    1.00e-06 *    3.00e-04 *             o    1.20e-03 *             o
  ---------------------------------------------------------------------------------------------
      7    -191.99685399   -1.55e-07 *    1.04e-04 *    2.31e-05 o    3.01e-04 *    1.14e-04 o  ~
  ---------------------------------------------------------------------------------------------


  **** Optimization is complete! (in 7 steps) ****

  ==> Optimization Summary <==

  Measures of convergence in internal coordinates in au.
  --------------------------------------------------------------------------------------------------------------- ~
   Step         Total Energy             Delta E       MAX Force       RMS Force        MAX Disp        RMS Disp  ~
  --------------------------------------------------------------------------------------------------------------- ~
      1    -191.995508248392   -191.995508248392      0.01301731      0.00385862      0.27780732      0.11143234  ~
      2    -191.933756297944      0.061751950447      0.14371914      0.03450496      0.23628207      0.07745232  ~
      3    -191.993324491578     -0.059568193634      0.03158297      0.00869825      0.06832584      0.02573144  ~
      4    -191.996731916028     -0.003407424450      0.00615988      0.00155326      0.03223287      0.01082847  ~
      5    -191.996832585761     -0.000100669733      0.00277287      0.00068222      0.00609649      0.00253934  ~
      6    -191.996853831441     -0.000021245680      0.00020197      0.00005660      0.00163897      0.00057146  ~
      7    -191.996853986011     -0.000000154571      0.00010412      0.00002307      0.00030058      0.00011445  ~
  --------------------------------------------------------------------------------------------------------------- ~

	Writing optimization data to binary file.
	Final energy is   -191.9968539860114
	Final (previous) structure:
	Cartesian Geometry (in Angstrom)
	    H    -0.2835025182  -2.0883023135   0.4651132667
	    O     0.0172547042  -1.4189838123  -0.1183956328
	    C    -0.8776689711  -0.3438532516  -0.1319614259
	    C    -0.1811622205   0.9752246285   0.0240889921
	    H    -1.6188685130  -0.4445426178   0.6572269561
	    H    -1.4256236726  -0.3412616866  -1.0711392568
	    C     1.1075536044   1.1430308904   0.2154117702
	    H    -0.8304970397   1.8328149663  -0.0396201007
	    H     1.7771404491   0.3077561294   0.2743674484
	    H     1.5273771953   2.1263345423   0.3126238415
	Saving final (previous) structure.
			--------------------------
			 OPTKING Finished Execution 
			--------------------------

    Final optimized geometry and variables:
    Molecular point group: c1
    Full point group: C1

    Geometry (in Angstrom), charge = 0, multiplicity = 1:

    H           -0.283502518249    -2.088302313475     0.465113266695
    O            0.017254704179    -1.418983812296    -0.118395632814
    C           -0.877668971072    -0.343853251644    -0.131961425888
    C           -0.181162220524     0.975224628532     0.024088992057
    H           -1.618868513040    -0.444542617760     0.657226956141
    H           -1.425623672614    -0.341261686612    -1.071139256816
    C            1.107553604413     1.143030890368     0.215411770212
    H           -0.830497039680     1.832814966285    -0.039620100674
    H            1.777140449079     0.307756129383     0.274367448415
    H            1.527377195275     2.126334542310     0.312623841550

	Cleaning optimization helper files.


Properties will be evaluated at   0.000000,   0.000000,   0.000000 Bohr

Properties computed using the  density matrix

  Nuclear Dipole Moment: (a.u.)
     X:    -0.8005      Y:     1.2989      Z:     0.5606

  Electronic Dipole Moment: (a.u.)
     X:     0.1919      Y:    -1.3911      Z:    -0.1924

  Dipole Moment: (a.u.)
     X:    -0.6086      Y:    -0.0922      Z:     0.3682     Total:     0.7172

  Dipole Moment: (Debye)
     X:    -1.5469      Y:    -0.2343      Z:     0.9358     Total:     1.8231

  Quadrupole Moment: (Debye Ang)
    XX:   -23.3126     YY:   -22.4566     ZZ:   -26.4793
    XY:     1.5093     XZ:     0.2184     YZ:    -2.4627

  Traceless Quadrupole Moment: (Debye Ang)
    XX:     0.7702     YY:     1.6262     ZZ:    -2.3964
    XY:     1.5093     XZ:     0.2184     YZ:    -2.4627

  Mulliken Charges: (a.u.)
   Center  Symbol    Alpha    Beta     Spin     Total
       1     H     0.38994  0.38994  0.00000  0.22011
       2     O     4.19792  4.19792  0.00000 -0.39584
       3     C     2.94421  2.94421  0.00000  0.11159
       4     C     3.07959  3.07959  0.00000 -0.15919
       5     H     0.47357  0.47357  0.00000  0.05286
       6     H     0.46745  0.46745  0.00000  0.06510
       7     C     3.17302  3.17302  0.00000 -0.34604
       8     H     0.42424  0.42424  0.00000  0.15152
       9     H     0.42013  0.42013  0.00000  0.15974
      10     H     0.42992  0.42992  0.00000  0.14015

   Total alpha = 16.00000, Total beta = 16.00000, Total charge = -0.00000


*** Psi4 exiting successfully. Buy a developer a beer!
