    -----------------------------------------------------------------------
          Psi4: An Open-Source Ab Initio Electronic Structure Package
                              Psi4 1.0.54 Driver

                          Git: Rev {master} 8d4cec3 dirty

    J. M. Turney, A. C. Simmonett, R. M. Parrish, E. G. Hohenstein,
    F. A. Evangelista, J. T. Fermann, B. J. Mintz, L. A. Burns, J. J. Wilke,
    M. L. Abrams, N. J. Russ, M. L. Leininger, C. L. Janssen, E. T. Seidl,
    W. D. Allen, H. F. Schaefer, R. A. King, E. F. Valeev, C. D. Sherrill,
    and T. D. Crawford, WIREs Comput. Mol. Sci. 2, 556-565 (2012)
    (doi: 10.1002/wcms.93)

                         Additional Contributions by
    A. E. DePrince, U. Bozkaya, A. Yu. Sokolov, D. G. A. Smith, R. Di Remigio,
    R. M. Richard, J. F. Gonthier, H. R. McAlexander, M. Saitow, and
    B. P. Pritchard
    -----------------------------------------------------------------------


    Psi4 started on: Sun Sep 11 06:47:59 2016

    Process ID:  19464
    PSI4DATADIR: /export131/home/mjharvey/miniconda3/share/psi4
    Memory level set to 256.000 MB

  ==> Input File <==

--------------------------------------------------------------------------
set {
	reference rhf
	basis cc-pvtz
}


set_num_threads( 4 )
memory 2 gb

molecule MOL {
0 1

O	 0.655802	 -0.118389	 -0.495376
C	 1.704209	 0.119472	 -0.000093
C	 2.070057	 1.401949	 0.702081
O	 2.715427	 -0.733672	 0.000025
C	 0.944751	 2.426130	 0.734651
H	 2.390871	 1.138461	 1.704629
H	 2.949340	 1.799701	 0.205999
C	 1.349385	 3.710579	 1.451924
H	 0.078924	 1.990328	 1.220135
H	 0.637863	 2.652143	 -0.280252
C	 0.233443	 4.750457	 1.494321
H	 1.658401	 3.476614	 2.468300
H	 2.220103	 4.140811	 0.962037
C	 0.637632	 6.034021	 2.211610
H	 -0.636410	 4.322134	 1.984272
H	 -0.074870	 4.986107	 0.479643
H	 0.918825	 5.835830	 3.240632
H	 -0.176317	 6.749613	 2.223851
H	 1.484555	 6.505268	 1.723879
C	 4.020999	 -0.192556	 0.000019
H	 4.182809	 0.412891	 -0.879449
H	 4.692590	 -1.035653	 0.000152
H	 4.182726	 0.413087	 0.879368

	symmetry c1
}
set optking {
	frozen_dihedral = ("
		1 2 4 20
	")
}

ee,wfn = optimize('scf', return_wfn=True)
oeprop( wfn, 'DIPOLE', 'QUADRUPOLE', 'MULLIKEN_CHARGES')
f=open( 'psi4out.xyz', 'w' )
f.write( "23  " )
f.write( str(ee) + "\n" )
f.write( MOL.save_string_xyz() )
f.close()
--------------------------------------------------------------------------

  Memory set to   2.000 GiB by Python script.
gradient() will perform analytic gradient computation.

*** tstart() called on cx1-27-3-2
*** at Sun Sep 11 06:47:59 2016


         ---------------------------------------------------------
                                   SCF
            by Justin Turney, Rob Parrish, and Andy Simmonett
                              RHF Reference
                        4 Threads,   2000 MiB Core
         ---------------------------------------------------------

  ==> Geometry <==

    Molecular point group: c1
    Full point group: C1

    Geometry (in Angstrom), charge = 0, multiplicity = 1:

       Center              X                  Y                   Z               Mass       
    ------------   -----------------  -----------------  -----------------  -----------------
           O         -0.959497238483    -2.033070099474    -1.166162694196    15.994914619560
           C          0.088909761517    -1.795209099474    -0.670879694196    12.000000000000
           C          0.454757761517    -0.512732099474     0.031294305804    12.000000000000
           O          1.100127761517    -2.648353099474    -0.670761694196    15.994914619560
           C         -0.670548238483     0.511448900526     0.063864305804    12.000000000000
           H          0.775571761517    -0.776220099474     1.033842305804     1.007825032070
           H          1.334040761517    -0.114980099474    -0.464787694196     1.007825032070
           C         -0.265914238483     1.795897900526     0.781137305804    12.000000000000
           H         -1.536375238483     0.075646900526     0.549348305804     1.007825032070
           H         -0.977436238483     0.737461900526    -0.951038694196     1.007825032070
           C         -1.381856238483     2.835775900526     0.823534305804    12.000000000000
           H          0.043101761517     1.561932900526     1.797513305804     1.007825032070
           H          0.604803761517     2.226129900526     0.291250305804     1.007825032070
           C         -0.977667238483     4.119339900526     1.540823305804    12.000000000000
           H         -2.251709238483     2.407452900526     1.313485305804     1.007825032070
           H         -1.690169238483     3.071425900526    -0.191143694196     1.007825032070
           H         -0.696474238483     3.921148900526     2.569845305804     1.007825032070
           H         -1.791616238483     4.834931900526     1.553064305804     1.007825032070
           H         -0.130744238483     4.590586900526     1.053092305804     1.007825032070
           C          2.405699761517    -2.107237099474    -0.670767694196    12.000000000000
           H          2.567509761517    -1.501790099474    -1.550235694196     1.007825032070
           H          3.077290761517    -2.950334099474    -0.670634694196     1.007825032070
           H          2.567426761517    -1.501594099474     0.208581305804     1.007825032070

  Running in c1 symmetry.

  Rotational constants: A =      0.13629  B =      0.01888  C =      0.01697 [cm^-1]
  Rotational constants: A =   4085.89991  B =    566.13147  C =    508.73573 [MHz]
  Nuclear repulsion =  458.983138159199882

  Charge       = 0
  Multiplicity = 1
  Electrons    = 72
  Nalpha       = 36
  Nbeta        = 36

  ==> Algorithm <==

  SCF Algorithm Type is DF.
  DIIS enabled.
  MOM disabled.
  Fractional occupation disabled.
  Guess Type is SAD.
  Energy threshold   = 1.00e-08
  Density threshold  = 1.00e-08
  Integral threshold = 0.00e+00

  ==> Primary Basis <==

  Basis Set: CC-PVTZ
    Number of shells: 174
    Number of basis function: 466
    Number of Cartesian functions: 525
    Spherical Harmonics?: true
    Max angular momentum: 3

  ==> Pre-Iterations <==

   -------------------------------------------------------
    Irrep   Nso     Nmo     Nalpha   Nbeta   Ndocc  Nsocc
   -------------------------------------------------------
     A        466     466       0       0       0       0
   -------------------------------------------------------
    Total     466     466      36      36      36       0
   -------------------------------------------------------

  ==> Integral Setup <==

  ==> DFJK: Density-Fitted J/K Matrices <==

    J tasked:                  Yes
    K tasked:                  Yes
    wK tasked:                  No
    OpenMP threads:              4
    Integrals threads:           4
    Memory (MB):              1430
    Algorithm:                Core
    Integral Cache:           NONE
    Schwarz Cutoff:          1E-12
    Fitting Condition:       1E-12

   => Auxiliary Basis Set <=

  Basis Set: 
    Number of shells: 365
    Number of basis function: 1131
    Number of Cartesian functions: 1354
    Spherical Harmonics?: true
    Max angular momentum: 4

  Minimum eigenvalue in the overlap matrix is 2.2914057849E-04.
  Using Symmetric Orthogonalization.
  SCF Guess: Superposition of Atomic Densities via on-the-fly atomic UHF.

  ==> Iterations <==

                           Total Energy        Delta E     RMS |[F,P]|

   @DF-RHF iter   0:  -427.40852947799289   -4.27409e+02   1.28367e-02 
   @DF-RHF iter   1:  -422.81232714928973    4.59620e+00   1.41616e-03 
   @DF-RHF iter   2:  -423.03176335802067   -2.19436e-01   8.98071e-04 DIIS
   @DF-RHF iter   3:  -423.09555674532675   -6.37934e-02   2.41551e-04 DIIS
   @DF-RHF iter   4:  -423.10555877973019   -1.00020e-02   6.85045e-05 DIIS
   @DF-RHF iter   5:  -423.10660485882539   -1.04608e-03   2.54310e-05 DIIS
   @DF-RHF iter   6:  -423.10678710768497   -1.82249e-04   9.78845e-06 DIIS
   @DF-RHF iter   7:  -423.10681272007554   -2.56124e-05   3.82722e-06 DIIS
   @DF-RHF iter   8:  -423.10681654559932   -3.82552e-06   1.38621e-06 DIIS
   @DF-RHF iter   9:  -423.10681720248994   -6.56891e-07   4.54835e-07 DIIS
   @DF-RHF iter  10:  -423.10681728632568   -8.38357e-08   1.89102e-07 DIIS
   @DF-RHF iter  11:  -423.10681730108041   -1.47547e-08   7.05900e-08 DIIS
   @DF-RHF iter  12:  -423.10681730341099   -2.33058e-09   2.67041e-08 DIIS
   @DF-RHF iter  13:  -423.10681730373329   -3.22302e-10   9.84582e-09 DIIS

  ==> Post-Iterations <==

    Orbital Energies (a.u.)
    -----------------------

    Doubly Occupied:                                                      

       1A    -20.595493     2A    -20.535409     3A    -11.366832  
       4A    -11.294206     5A    -11.238789     6A    -11.220392  
       7A    -11.219532     8A    -11.217335     9A    -11.210367  
      10A     -1.469422    11A     -1.371905    12A     -1.097739  
      13A     -1.043683    14A     -0.988043    15A     -0.957088  
      16A     -0.858309    17A     -0.800264    18A     -0.765567  
      19A     -0.703705    20A     -0.694552    21A     -0.680273  
      22A     -0.655627    23A     -0.617454    24A     -0.605552  
      25A     -0.583337    26A     -0.565711    27A     -0.562498  
      28A     -0.545378    29A     -0.521762    30A     -0.508940  
      31A     -0.489248    32A     -0.473878    33A     -0.469836  
      34A     -0.467561    35A     -0.456361    36A     -0.430631  

    Virtual:                                                              

      37A      0.123638    38A      0.142498    39A      0.159643  
      40A      0.163314    41A      0.168153    42A      0.186784  
      43A      0.195474    44A      0.198485    45A      0.209224  
      46A      0.225791    47A      0.229566    48A      0.236495  
      49A      0.247841    50A      0.264334    51A      0.268494  
      52A      0.293064    53A      0.311474    54A      0.321992  
      55A      0.340509    56A      0.358334    57A      0.366303  
      58A      0.386033    59A      0.399813    60A      0.407658  
      61A      0.418288    62A      0.424340    63A      0.453557  
      64A      0.458944    65A      0.486286    66A      0.495337  
      67A      0.504774    68A      0.511663    69A      0.518883  
      70A      0.532257    71A      0.546368    72A      0.557085  
      73A      0.560283    74A      0.576041    75A      0.591088  
      76A      0.600728    77A      0.607165    78A      0.614948  
      79A      0.624395    80A      0.631341    81A      0.642007  
      82A      0.648564    83A      0.652529    84A      0.656947  
      85A      0.664721    86A      0.666864    87A      0.669562  
      88A      0.680126    89A      0.688094    90A      0.702021  
      91A      0.710874    92A      0.726152    93A      0.743879  
      94A      0.760055    95A      0.769178    96A      0.775182  
      97A      0.813936    98A      0.826317    99A      0.836874  
     100A      0.846247   101A      0.866228   102A      0.884285  
     103A      0.896769   104A      0.903901   105A      0.913543  
     106A      0.945961   107A      0.963905   108A      0.968021  
     109A      0.976757   110A      0.983396   111A      0.992195  
     112A      0.994747   113A      1.027365   114A      1.040801  
     115A      1.053405   116A      1.055291   117A      1.088872  
     118A      1.098419   119A      1.113158   120A      1.120412  
     121A      1.152529   122A      1.156271   123A      1.171249  
     124A      1.186872   125A      1.200393   126A      1.214044  
     127A      1.229232   128A      1.240161   129A      1.246325  
     130A      1.251025   131A      1.260518   132A      1.271615  
     133A      1.280526   134A      1.288747   135A      1.300080  
     136A      1.308554   137A      1.326301   138A      1.336567  
     139A      1.348324   140A      1.363638   141A      1.373192  
     142A      1.380829   143A      1.398976   144A      1.409230  
     145A      1.411441   146A      1.440299   147A      1.446732  
     148A      1.460688   149A      1.467006   150A      1.476044  
     151A      1.479363   152A      1.495180   153A      1.502036  
     154A      1.514293   155A      1.520548   156A      1.539961  
     157A      1.545372   158A      1.559659   159A      1.565874  
     160A      1.575234   161A      1.586134   162A      1.604632  
     163A      1.610308   164A      1.614798   165A      1.622233  
     166A      1.649709   167A      1.664400   168A      1.695421  
     169A      1.711387   170A      1.714142   171A      1.738957  
     172A      1.747787   173A      1.765580   174A      1.782871  
     175A      1.798791   176A      1.807324   177A      1.824830  
     178A      1.842182   179A      1.851651   180A      1.878541  
     181A      1.897062   182A      1.910939   183A      1.949568  
     184A      1.954801   185A      1.994581   186A      2.028437  
     187A      2.072203   188A      2.120604   189A      2.168536  
     190A      2.276282   191A      2.316411   192A      2.343157  
     193A      2.408378   194A      2.449697   195A      2.478592  
     196A      2.494162   197A      2.521525   198A      2.528405  
     199A      2.578013   200A      2.594264   201A      2.617019  
     202A      2.625651   203A      2.668615   204A      2.686779  
     205A      2.717198   206A      2.721646   207A      2.737491  
     208A      2.761803   209A      2.774593   210A      2.785681  
     211A      2.804577   212A      2.817305   213A      2.831740  
     214A      2.849805   215A      2.879609   216A      2.888153  
     217A      2.909974   218A      2.922827   219A      2.925261  
     220A      2.930418   221A      2.938041   222A      2.958715  
     223A      2.990033   224A      3.007142   225A      3.013022  
     226A      3.028592   227A      3.036335   228A      3.044694  
     229A      3.059006   230A      3.065351   231A      3.098597  
     232A      3.105894   233A      3.114989   234A      3.137913  
     235A      3.147976   236A      3.164461   237A      3.172429  
     238A      3.185975   239A      3.196161   240A      3.234152  
     241A      3.250015   242A      3.262872   243A      3.273515  
     244A      3.276872   245A      3.295493   246A      3.305702  
     247A      3.320454   248A      3.322205   249A      3.329856  
     250A      3.336697   251A      3.347514   252A      3.365102  
     253A      3.374281   254A      3.389742   255A      3.398894  
     256A      3.411592   257A      3.412977   258A      3.420107  
     259A      3.424897   260A      3.434841   261A      3.438669  
     262A      3.451207   263A      3.461562   264A      3.463676  
     265A      3.473969   266A      3.489335   267A      3.500417  
     268A      3.512158   269A      3.535379   270A      3.542850  
     271A      3.556167   272A      3.562216   273A      3.570193  
     274A      3.574579   275A      3.591091   276A      3.603426  
     277A      3.624990   278A      3.650252   279A      3.655029  
     280A      3.667705   281A      3.683926   282A      3.692233  
     283A      3.711224   284A      3.732794   285A      3.747989  
     286A      3.768673   287A      3.778950   288A      3.792517  
     289A      3.815940   290A      3.818407   291A      3.826013  
     292A      3.828776   293A      3.838292   294A      3.859123  
     295A      3.869642   296A      3.878380   297A      3.890643  
     298A      3.906304   299A      3.915055   300A      3.936927  
     301A      3.949467   302A      3.967394   303A      3.993121  
     304A      4.002347   305A      4.010101   306A      4.016206  
     307A      4.067141   308A      4.084913   309A      4.088127  
     310A      4.091283   311A      4.097381   312A      4.121693  
     313A      4.133662   314A      4.152381   315A      4.159109  
     316A      4.161436   317A      4.174672   318A      4.178680  
     319A      4.186928   320A      4.194278   321A      4.215427  
     322A      4.228006   323A      4.237374   324A      4.247756  
     325A      4.254860   326A      4.264274   327A      4.300358  
     328A      4.307871   329A      4.321587   330A      4.337314  
     331A      4.349965   332A      4.357063   333A      4.372768  
     334A      4.378073   335A      4.399590   336A      4.408844  
     337A      4.428638   338A      4.433569   339A      4.439732  
     340A      4.444908   341A      4.461767   342A      4.472035  
     343A      4.477982   344A      4.487513   345A      4.517106  
     346A      4.534952   347A      4.545315   348A      4.559112  
     349A      4.577196   350A      4.594241   351A      4.599580  
     352A      4.622197   353A      4.623167   354A      4.643164  
     355A      4.662309   356A      4.676848   357A      4.681630  
     358A      4.695881   359A      4.712364   360A      4.741784  
     361A      4.755301   362A      4.772048   363A      4.782662  
     364A      4.788979   365A      4.806801   366A      4.831434  
     367A      4.907802   368A      4.915927   369A      4.946854  
     370A      4.952897   371A      4.964271   372A      4.999862  
     373A      5.037027   374A      5.052882   375A      5.066437  
     376A      5.075083   377A      5.105535   378A      5.136429  
     379A      5.151547   380A      5.154986   381A      5.172457  
     382A      5.219294   383A      5.231107   384A      5.235061  
     385A      5.239198   386A      5.254953   387A      5.266581  
     388A      5.292983   389A      5.307726   390A      5.330183  
     391A      5.335812   392A      5.373257   393A      5.378603  
     394A      5.396608   395A      5.420730   396A      5.427627  
     397A      5.453598   398A      5.461280   399A      5.473853  
     400A      5.516328   401A      5.541209   402A      5.571630  
     403A      5.575393   404A      5.608869   405A      5.623250  
     406A      5.634862   407A      5.643119   408A      5.661579  
     409A      5.678455   410A      5.722761   411A      5.742825  
     412A      5.750481   413A      5.760367   414A      5.776406  
     415A      5.790122   416A      5.824463   417A      5.862210  
     418A      5.871430   419A      5.879370   420A      5.913121  
     421A      5.921313   422A      5.930519   423A      5.949321  
     424A      5.954922   425A      5.962576   426A      6.012268  
     427A      6.023031   428A      6.076593   429A      6.119083  
     430A      6.123106   431A      6.156798   432A      6.255938  
     433A      6.277925   434A      6.304898   435A      6.329210  
     436A      6.338902   437A      6.399383   438A      6.420732  
     439A      6.432477   440A      6.495927   441A      6.517052  
     442A      6.651954   443A      6.744597   444A      6.801283  
     445A      6.871742   446A      6.911261   447A      6.952943  
     448A      7.024874   449A      7.267130   450A      7.320790  
     451A      7.396995   452A      7.431159   453A      7.556457  
     454A      7.594423   455A      7.702787   456A      7.817688  
     457A      7.992734   458A     10.066831   459A     12.238955  
     460A     13.356514   461A     13.629722   462A     13.784898  
     463A     14.081892   464A     14.269467   465A     14.353785  
     466A     14.579416  

    Final Occupation by Irrep:
              A 
    DOCC [    36 ]

  Energy converged.

  @DF-RHF Final Energy:  -423.10681730373329

   => Energetics <=

    Nuclear Repulsion Energy =            458.9831381591998820
    One-Electron Energy =               -1485.6145570264034177
    Two-Electron Energy =                 603.5246015634695596
    DFT Exchange-Correlation Energy =       0.0000000000000000
    Empirical Dispersion Energy =           0.0000000000000000
    PCM Polarization Energy =               0.0000000000000000
    EFP Energy =                            0.0000000000000000
    Total Energy =                       -423.1068173037340330


  Saving occupied orbitals to File 180.

*** tstop() called on cx1-27-3-2 at Sun Sep 11 06:48:18 2016
Module time:
	user time   =      68.30 seconds =       1.14 minutes
	system time =       1.21 seconds =       0.02 minutes
	total time  =         19 seconds =       0.32 minutes
Total time:
	user time   =      68.30 seconds =       1.14 minutes
	system time =       1.21 seconds =       0.02 minutes
	total time  =         19 seconds =       0.32 minutes


Properties will be evaluated at   0.000000,   0.000000,   0.000000 Bohr

Properties computed using the SCF density matrix

  Nuclear Dipole Moment: (a.u.)
     X:     1.7774      Y:    15.5224      Z:     6.1243

  Electronic Dipole Moment: (a.u.)
     X:    -0.3817      Y:   -14.6246      Z:    -5.5619

  Dipole Moment: (a.u.)
     X:     1.3957      Y:     0.8978      Z:     0.5623     Total:     1.7522

  Dipole Moment: (Debye)
     X:     3.5474      Y:     2.2819      Z:     1.4293     Total:     4.4536


*** tstart() called on cx1-27-3-2
*** at Sun Sep 11 06:48:18 2016


         ------------------------------------------------------------
                                   SCF GRAD                          
                          Rob Parrish, Justin Turney,                
                       Andy Simmonett, and Alex Sokolov              
         ------------------------------------------------------------

  ==> Geometry <==

    Molecular point group: c1
    Full point group: C1

    Geometry (in Angstrom), charge = 0, multiplicity = 1:

       Center              X                  Y                   Z               Mass       
    ------------   -----------------  -----------------  -----------------  -----------------
           O         -0.959497238483    -2.033070099474    -1.166162694196    15.994914619560
           C          0.088909761517    -1.795209099474    -0.670879694196    12.000000000000
           C          0.454757761517    -0.512732099474     0.031294305804    12.000000000000
           O          1.100127761517    -2.648353099474    -0.670761694196    15.994914619560
           C         -0.670548238483     0.511448900526     0.063864305804    12.000000000000
           H          0.775571761517    -0.776220099474     1.033842305804     1.007825032070
           H          1.334040761517    -0.114980099474    -0.464787694196     1.007825032070
           C         -0.265914238483     1.795897900526     0.781137305804    12.000000000000
           H         -1.536375238483     0.075646900526     0.549348305804     1.007825032070
           H         -0.977436238483     0.737461900526    -0.951038694196     1.007825032070
           C         -1.381856238483     2.835775900526     0.823534305804    12.000000000000
           H          0.043101761517     1.561932900526     1.797513305804     1.007825032070
           H          0.604803761517     2.226129900526     0.291250305804     1.007825032070
           C         -0.977667238483     4.119339900526     1.540823305804    12.000000000000
           H         -2.251709238483     2.407452900526     1.313485305804     1.007825032070
           H         -1.690169238483     3.071425900526    -0.191143694196     1.007825032070
           H         -0.696474238483     3.921148900526     2.569845305804     1.007825032070
           H         -1.791616238483     4.834931900526     1.553064305804     1.007825032070
           H         -0.130744238483     4.590586900526     1.053092305804     1.007825032070
           C          2.405699761517    -2.107237099474    -0.670767694196    12.000000000000
           H          2.567509761517    -1.501790099474    -1.550235694196     1.007825032070
           H          3.077290761517    -2.950334099474    -0.670634694196     1.007825032070
           H          2.567426761517    -1.501594099474     0.208581305804     1.007825032070

  Nuclear repulsion =  458.983138159199882

  ==> Basis Set <==

  Basis Set: CC-PVTZ
    Number of shells: 174
    Number of basis function: 466
    Number of Cartesian functions: 525
    Spherical Harmonics?: true
    Max angular momentum: 3

  ==> DFJKGrad: Density-Fitted SCF Gradients <==

    Gradient:                    1
    J tasked:                  Yes
    K tasked:                  Yes
    wK tasked:                  No
    OpenMP threads:              4
    Integrals threads:           4
    Memory (MB):              1430
    Schwarz Cutoff:          0E+00
    Fitting Condition:       1E-12

   => Auxiliary Basis Set <=

  Basis Set: 
    Number of shells: 365
    Number of basis function: 1131
    Number of Cartesian functions: 1354
    Spherical Harmonics?: true
    Max angular momentum: 4


  -Total Gradient:
     Atom            X                  Y                   Z
    ------   -----------------  -----------------  -----------------
       1       -0.013657527327     0.004123569673    -0.008326696737
       2        0.005741664109    -0.013603319766     0.000238968204
       3        0.014429470952    -0.012376019501     0.002020670725
       4       -0.003482458846     0.011383306049     0.011597473483
       5       -0.000544038277    -0.000402687313    -0.001198934841
       6        0.001555773098    -0.001150807206    -0.000946610481
       7        0.008101741278    -0.006303622841    -0.002214982905
       8        0.000526773643    -0.000102574362     0.000089005225
       9       -0.000135485839     0.000055786503     0.000208716693
      10       -0.000126905939     0.000314440034     0.000023257797
      11       -0.000038602102    -0.000177206735    -0.000121635768
      12        0.000027688766    -0.000024222042    -0.000156730292
      13       -0.000131218850    -0.000215004459     0.000103031798
      14        0.000039137706    -0.000009769852     0.000000006982
      15       -0.000096394083     0.000027232516     0.000042550619
      16       -0.000028519002     0.000046708876    -0.000026457167
      17        0.000020572895    -0.000004069448    -0.000019581378
      18       -0.000044922318     0.000034984756     0.000001199158
      19       -0.000013790056    -0.000041337863     0.000021853721
      20       -0.002733729392     0.011198329043    -0.006101570553
      21       -0.001983924142     0.001579275308     0.002290974791
      22       -0.000313129983    -0.000819244200     0.000931670872
      23       -0.007112176291     0.006466252827     0.001543820055


*** tstop() called on cx1-27-3-2 at Sun Sep 11 06:48:36 2016
Module time:
	user time   =      66.90 seconds =       1.11 minutes
	system time =       0.90 seconds =       0.01 minutes
	total time  =         18 seconds =       0.30 minutes
Total time:
	user time   =     135.33 seconds =       2.26 minutes
	system time =       2.12 seconds =       0.04 minutes
	total time  =         37 seconds =       0.62 minutes

			-----------------------------------------
			 OPTKING 2.0: for geometry optimizations 
			  - R.A. King,  Bethel University        
			-----------------------------------------

	Internal coordinates to be generated automatically.
	Detected frag 1 with atoms:  1 2 3 4 5 6 7 8 9 10 11 12 13 14 15 16 17 18 19 20
	 21 22 23
	---Fragment 1 Bond Connectivity---
	 1 : 2
	 2 : 1 3 4
	 3 : 2 5 6 7
	 4 : 2 20
	 5 : 3 8 9 10
	 6 : 3
	 7 : 3
	 8 : 5 11 12 13
	 9 : 5
	 10 : 5
	 11 : 8 14 15 16
	 12 : 8
	 13 : 8
	 14 : 11 17 18 19
	 15 : 11
	 16 : 11
	 17 : 14
	 18 : 14
	 19 : 14
	 20 : 4 21 22 23
	 21 : 20
	 22 : 20
	 23 : 20

	Assuming in current code that numbering for constraints corresponds to unified fragment.
	Frozen dihedral atom list: 
	     1     2     4    20
	---Fragment 1 Geometry and Gradient---
	 O          -1.8131870060       -3.8419456970       -2.2037281184
	 C           0.1680150998       -3.3924535493       -1.2677788901
	 C           0.8593676261       -0.9689232475        0.0591376675
	 O           2.0789401805       -5.0046620612       -1.2675559025
	 C          -1.2671525296        0.9664983530        0.1206860476
	 H           1.4656182257       -1.4668434068        1.9536788226
	 H           2.5209716894       -0.2172808987       -0.8783214520
	 C          -0.5025050856        3.3937551946        1.4761355801
	 H          -2.9033284381        0.1429519248        1.0381178495
	 H          -1.8470868031        1.3936010254       -1.7972026738
	 C          -2.6113298458        5.3588398262        1.5562542990
	 H           0.0814505251        2.9516254199        3.3968078682
	 H           1.1429134734        4.2067758482        0.5503833141
	 C          -1.8475233298        7.7844242603        2.9117340671
	 H          -4.2551137916        4.5494266598        2.4821275075
	 H          -3.1939569790        5.8041537894       -0.3612092341
	 H          -1.3161455693        7.4098975483        4.8563038319
	 H          -3.3856640260        9.1366971631        2.9348662047
	 H          -0.2470708042        8.6749520312        1.9900560506
	 C           4.5461137072       -3.9821010151       -1.2675672408
	 H           4.8518902928       -2.8379719971       -2.9295209035
	 H           5.8152367705       -5.5753234485       -1.2673159072
	 H           4.8517334455       -2.8376016108        0.3941615444
	            -0.0136575273        0.0041235697       -0.0083266967
	             0.0057416641       -0.0136033198        0.0002389682
	             0.0144294710       -0.0123760195        0.0020206707
	            -0.0034824588        0.0113833060        0.0115974735
	            -0.0005440383       -0.0004026873       -0.0011989348
	             0.0015557731       -0.0011508072       -0.0009466105
	             0.0081017413       -0.0063036228       -0.0022149829
	             0.0005267736       -0.0001025744        0.0000890052
	            -0.0001354858        0.0000557865        0.0002087167
	            -0.0001269059        0.0003144400        0.0000232578
	            -0.0000386021       -0.0001772067       -0.0001216358
	             0.0000276888       -0.0000242220       -0.0001567303
	            -0.0001312188       -0.0002150045        0.0001030318
	             0.0000391377       -0.0000097699        0.0000000070
	            -0.0000963941        0.0000272325        0.0000425506
	            -0.0000285190        0.0000467089       -0.0000264572
	             0.0000205729       -0.0000040694       -0.0000195814
	            -0.0000449223        0.0000349848        0.0000011992
	            -0.0000137901       -0.0000413379        0.0000218537
	            -0.0027337294        0.0111983290       -0.0061015706
	            -0.0019839241        0.0015792753        0.0022909748
	            -0.0003131300       -0.0008192442        0.0009316709
	            -0.0071121763        0.0064662528        0.0015438201

	Previous optimization step data not found.  Starting new optimization.

	---Fragment 1 Intrafragment Coordinates---
	 - Coordinate -           - BOHR/RAD -       - ANG/DEG -
	 R(1,2)           =         2.236785	       1.183656
	 R(2,3)           =         2.848188	       1.507196
	 R(2,4)           =         2.500170	       1.323033
	 R(3,5)           =         2.876062	       1.521946
	 R(3,6)           =         2.050549	       1.085104
	 R(3,7)           =         2.050542	       1.085100
	 R(4,20)          =         2.670688	       1.413267
	 R(5,8)           =         2.883315	       1.525785
	 R(5,9)           =         2.048654	       1.084101
	 R(5,10)          =         2.048667	       1.084108
	 R(8,11)          =         2.883595	       1.525933
	 R(8,12)          =         2.055594	       1.087773
	 R(8,13)          =         2.055583	       1.087768
	 R(11,14)         =         2.881698	       1.524929
	 R(11,15)         =         2.052904	       1.086350
	 R(11,16)         =         2.052907	       1.086351
	 R(14,17)         =         2.050362	       1.085005
	 R(14,18)         =         2.048183	       1.083852
	 R(14,19)         =         2.050361	       1.085004
	 R(20,21)         =         2.040740	       1.079913
	 R(20,22)         =         2.036917	       1.077890
	 R(20,23)         =         2.040741	       1.079914
	 B(1,2,3)         =         2.190670	     125.516137
	 B(1,2,4)         =         2.150096	     123.191446
	 B(2,3,5)         =         1.985702	     113.772327
	 B(2,3,6)         =         1.870862	     107.192485
	 B(2,3,7)         =         1.870889	     107.194039
	 B(2,4,20)        =         2.047864	     117.333982
	 B(3,2,4)         =         1.942419	     111.292416
	 B(3,5,8)         =         1.961110	     112.363322
	 B(3,5,9)         =         1.906658	     109.243435
	 B(3,5,10)        =         1.906638	     109.242320
	 B(4,20,21)       =         1.931660	     110.675982
	 B(4,20,22)       =         1.850531	     106.027618
	 B(4,20,23)       =         1.931651	     110.675454
	 B(5,3,6)         =         1.941461	     111.237525
	 B(5,3,7)         =         1.941481	     111.238692
	 B(5,8,11)        =         1.974470	     113.128783
	 B(5,8,12)        =         1.910828	     109.482405
	 B(5,8,13)        =         1.910836	     109.482842
	 B(6,3,7)         =         1.846088	     105.773058
	 B(8,5,9)         =         1.917384	     109.858035
	 B(8,5,10)        =         1.917352	     109.856193
	 B(8,11,14)       =         1.974512	     113.131185
	 B(8,11,15)       =         1.906483	     109.233417
	 B(8,11,16)       =         1.906491	     109.233875
	 B(9,5,10)        =         1.851423	     106.078748
	 B(11,8,12)       =         1.905372	     109.169747
	 B(11,8,13)       =         1.905376	     109.169996
	 B(11,14,17)      =         1.940186	     111.164442
	 B(11,14,18)      =         1.941200	     111.222578
	 B(11,14,19)      =         1.940172	     111.163645
	 B(12,8,13)       =         1.853001	     106.169147
	 B(14,11,15)      =         1.909178	     109.387828
	 B(14,11,16)      =         1.909199	     109.389043
	 B(15,11,16)      =         1.854101	     106.232168
	 B(17,14,18)      =         1.880225	     107.728962
	 B(17,14,19)      =         1.879020	     107.659940
	 B(18,14,19)      =         1.880223	     107.728845
	 B(21,20,22)      =         1.923317	     110.197939
	 B(21,20,23)      =         1.903156	     109.042804
	 B(22,20,23)      =         1.923305	     110.197249
	 D(1,2,3,5)       =        -0.000294	      -0.016823
	 D(1,2,3,6)       =         2.153608	     123.392653
	 D(1,2,3,7)       =        -2.154241	    -123.428925
	*D(1,2,4,20)      =         2.617994	     149.999991
	 D(2,3,5,8)       =        -3.141455	    -179.992135
	 D(2,3,5,9)       =         1.009174	      57.821397
	 D(2,3,5,10)      =        -1.008954	     -57.808798
	 D(2,4,20,21)     =        -1.056013	     -60.505098
	 D(2,4,20,22)     =         3.141566	     179.998453
	 D(2,4,20,23)     =         1.055979	      60.503117
	 D(3,2,4,20)      =        -0.523704	     -30.006018
	 D(3,5,8,11)      =         3.141232	     179.979323
	 D(3,5,8,12)      =        -1.012721	     -58.024646
	 D(3,5,8,13)      =         1.011988	      57.982656
	 D(4,2,3,5)       =         3.141407	     179.989355
	 D(4,2,3,6)       =        -0.987877	     -56.601170
	 D(4,2,3,7)       =         0.987459	      56.577252
	 D(5,8,11,14)     =         3.141239	     179.979755
	 D(5,8,11,15)     =         1.010239	      57.882411
	 D(5,8,11,16)     =        -1.010912	     -57.921012
	 D(6,3,5,8)       =         1.026772	      58.829681
	 D(6,3,5,9)       =        -1.105785	     -63.356787
	 D(6,3,5,10)      =        -3.123912	    -178.986983
	 D(7,3,5,8)       =        -1.026446	     -58.811042
	 D(7,3,5,9)       =         3.124183	     179.002490
	 D(7,3,5,10)      =         1.106055	      63.372294
	 D(8,11,14,17)    =        -1.046251	     -59.945760
	 D(8,11,14,18)    =        -3.141388	    -179.988265
	 D(8,11,14,19)    =         1.046672	      59.969914
	 D(9,5,8,11)      =        -1.015491	     -58.183329
	 D(9,5,8,12)      =         1.113742	      63.812702
	 D(9,5,8,13)      =         3.138451	     179.820004
	 D(10,5,8,11)     =         1.014817	      58.144705
	 D(10,5,8,12)     =        -3.139136	    -179.859264
	 D(10,5,8,13)     =        -1.114427	     -63.851962
	 D(12,8,11,14)    =         1.008954	      57.808813
	 D(12,8,11,15)    =        -1.122047	     -64.288531
	 D(12,8,11,16)    =         3.139988	     179.908046
	 D(13,8,11,14)    =        -1.009648	     -57.848563
	 D(13,8,11,15)    =        -3.140649	    -179.945907
	 D(13,8,11,16)    =         1.121386	      64.250670
	 D(15,11,14,17)   =         1.083242	      62.065178
	 D(15,11,14,18)   =        -1.011895	     -57.977328
	 D(15,11,14,19)   =        -3.107020	    -178.019149
	 D(16,11,14,17)   =         3.107416	     178.041835
	 D(16,11,14,18)   =         1.012279	      57.999330
	 D(16,11,14,19)   =        -1.082846	     -62.042491

	Current energy   :      -423.1068173037

	Generating empirical Hessian (Schlegel '84) for each fragment.
	Taking RFO optimization step.
	Going to follow RFO solution 1.
	Using RFO vector 1.
	Norm of target step-size    0.43716
	Projected energy change by RFO approximation:        -0.0348995332

	Back-transformation to cartesian coordinates...
	Could not converge backtransformation.
	Using first guess instead.

	Back-transformation to cartesian coordinates to adjust frozen coordinates...
	Successfully converged to displaced geometry.

	--- Internal Coordinate Step in ANG or DEG, aJ/ANG or AJ/DEG ---
	 ---------------------------------------------------------------------------
	   Coordinate                Previous        Force       Change         New 
	   ----------                --------       ------       ------       ------
	    1 R(1,2)          =      1.183656    -0.121542     0.029119     1.212775
	    2 R(2,3)          =      1.507196     0.103776     0.133073     1.640269
	    3 R(2,4)          =      1.323033     0.256745     0.076278     1.399311
	    4 R(3,5)          =      1.521946    -0.000382     0.016065     1.538012
	    5 R(3,6)          =      1.085104     0.001114     0.073516     1.158620
	    6 R(3,7)          =      1.085100    -0.043394     0.050986     1.136086
	    7 R(4,20)         =      1.413267     0.034299     0.140051     1.553319
	    8 R(5,8)          =      1.525785     0.002916     0.116817     1.642601
	    9 R(5,9)          =      1.084101    -0.001477     0.055141     1.139242
	   10 R(5,10)         =      1.084108    -0.000657     0.073774     1.157882
	   11 R(8,11)         =      1.525933    -0.000263     0.017049     1.542982
	   12 R(8,12)         =      1.087773     0.001099     0.074142     1.161915
	   13 R(8,13)         =      1.087768     0.001948     0.055583     1.143350
	   14 R(11,14)        =      1.524929     0.000124     0.116155     1.641084
	   15 R(11,15)        =      1.086350    -0.000706     0.054938     1.141288
	   16 R(11,16)        =      1.086351    -0.000354     0.073752     1.160103
	   17 R(14,17)        =      1.085005     0.000103     0.075411     1.160415
	   18 R(14,18)        =      1.083852    -0.000468     0.010596     1.094448
	   19 R(14,19)        =      1.085004     0.000318     0.058243     1.143247
	   20 R(20,21)        =      1.079913     0.010526     0.097567     1.177480
	   21 R(20,22)        =      1.077890    -0.003673     0.164557     1.242447
	   22 R(20,23)        =      1.079914    -0.031459     0.155241     1.235155
	   23 B(1,2,3)        =    125.516137    -0.001990    -2.793514   122.722623
	   24 B(1,2,4)        =    123.191446    -0.003011   -11.059888   112.131558
	   25 B(2,3,5)        =    113.772327    -0.000240    -0.021210   113.751117
	   26 B(2,3,6)        =    107.192485     0.000121     0.891259   108.083744
	   27 B(2,3,7)        =    107.194039     0.000512     3.589102   110.783141
	   28 B(2,4,20)       =    117.333982     0.005266     9.294292   126.628275
	   29 B(3,2,4)        =    111.292416     0.005001    13.593311   124.885727
	   30 B(3,5,8)        =    112.363322     0.000065     0.995272   113.358595
	   31 B(3,5,9)        =    109.243435    -0.000023    -3.188727   106.054708
	   32 B(3,5,10)       =    109.242320    -0.000038    -1.268216   107.974104
	   33 B(4,20,21)      =    110.675982     0.000063     1.409811   112.085793
	   34 B(4,20,22)      =    106.027618    -0.000234    -4.013249   102.014370
	   35 B(4,20,23)      =    110.675454     0.000759     4.236298   114.911753
	   36 B(5,3,6)        =    111.237525    -0.000071    -1.952942   109.284583
	   37 B(5,3,7)        =    111.238692    -0.000394    -5.079453   106.159239
	   38 B(5,8,11)       =    113.128783     0.000017     0.881434   114.010217
	   39 B(5,8,12)       =    109.482405    -0.000003     0.341267   109.823673
	   40 B(5,8,13)       =    109.482842     0.000001     1.091716   110.574558
	   41 B(6,3,7)        =    105.773058     0.000133     2.902838   108.675896
	   42 B(8,5,9)        =    109.858035    -0.000012     1.078886   110.936920
	   43 B(8,5,10)       =    109.856193    -0.000004     0.364558   110.220751
	   44 B(8,11,14)      =    113.131185     0.000007     0.856148   113.987333
	   45 B(8,11,15)      =    109.233417    -0.000006    -3.165057   106.068360
	   46 B(8,11,16)      =    109.233875    -0.000004    -1.154066   108.079809
	   47 B(9,5,10)       =    106.078748     0.000008     1.987139   108.065888
	   48 B(11,8,12)      =    109.169747    -0.000009    -1.177000   107.992748
	   49 B(11,8,13)      =    109.169996    -0.000012    -3.184852   105.985144
	   50 B(11,14,17)     =    111.164442     0.000000     0.299281   111.463723
	   51 B(11,14,18)     =    111.222578    -0.000001     0.714514   111.937091
	   52 B(11,14,19)     =    111.163645     0.000002     1.037659   112.201303
	   53 B(12,8,13)      =    106.169147     0.000004     2.062548   108.231694
	   54 B(14,11,15)     =    109.387828     0.000001     1.076530   110.464359
	   55 B(14,11,16)     =    109.389043    -0.000001     0.344676   109.733719
	   56 B(15,11,16)     =    106.232168     0.000002     2.066591   108.298759
	   57 B(17,14,18)     =    107.728962    -0.000001    -0.975532   106.753430
	   58 B(17,14,19)     =    107.659940     0.000000     1.786230   109.446169
	   59 B(18,14,19)     =    107.728845    -0.000001    -3.042033   104.686812
	   60 B(21,20,22)     =    110.197939    -0.000266    -0.150637   110.047302
	   61 B(21,20,23)     =    109.042804     0.000104    -3.908241   105.134562
	   62 B(22,20,23)     =    110.197249    -0.000440     2.590638   112.787887
	   63 D(1,2,3,5)      =     -0.016823    -0.000026    -0.776086    -0.792909
	   64 D(1,2,3,6)      =    123.392653    -0.000063    -2.634585   120.758067
	   65 D(1,2,3,7)      =   -123.428925     0.000040     3.148894  -120.280031
	   66 *D(1,2,4,20)    =    149.999991    -0.000000    -0.000000   149.999991
	   67 D(2,3,5,8)      =   -179.992135    -0.000021    -0.536342  -180.528477
	   68 D(2,3,5,9)      =     57.821397    -0.000023    -0.309745    57.511652
	   69 D(2,3,5,10)     =    -57.808798    -0.000018    -0.313141   -58.121940
	   70 D(2,4,20,21)    =    -60.505098    -0.000032     2.601991   -57.903108
	   71 D(2,4,20,22)    =    179.998453     0.000065     4.415295   184.413748
	   72 D(2,4,20,23)    =     60.503117     0.000124     1.535582    62.038699
	   73 D(3,2,4,20)     =    -30.006018    -0.000090    -5.736649   -35.742667
	   74 D(3,5,8,11)     =    179.979323    -0.000001    -0.027443   179.951880
	   75 D(3,5,8,12)     =    -58.024646    -0.000001    -0.688907   -58.713553
	   76 D(3,5,8,13)     =     57.982656    -0.000000     2.680015    60.662671
	   77 D(4,2,3,5)      =    179.989355     0.000067     5.543022   185.532377
	   78 D(4,2,3,6)      =    -56.601170     0.000030     3.684523   -52.916647
	   79 D(4,2,3,7)      =     56.577252     0.000133     9.468002    66.045254
	   80 D(5,8,11,14)    =    179.979755    -0.000000    -0.007532   179.972224
	   81 D(5,8,11,15)    =     57.882411    -0.000001     0.327388    58.209799
	   82 D(5,8,11,16)    =    -57.921012     0.000000     0.171040   -57.749972
	   83 D(6,3,5,8)      =     58.829681    -0.000005    -0.239000    58.590680
	   84 D(6,3,5,9)      =    -63.356787    -0.000008    -0.012404   -63.369191
	   85 D(6,3,5,10)     =   -178.986983    -0.000002    -0.015800  -179.002783
	   86 D(7,3,5,8)      =    -58.811042     0.000026     0.363314   -58.447728
	   87 D(7,3,5,9)      =    179.002490     0.000023     0.589911   179.592401
	   88 D(7,3,5,10)     =     63.372294     0.000028     0.586515    63.958809
	   89 D(8,11,14,17)   =    -59.945760    -0.000000    -0.549657   -60.495416
	   90 D(8,11,14,18)   =   -179.988265     0.000000     0.003382  -179.984883
	   91 D(8,11,14,19)   =     59.969914     0.000000     2.685083    62.654996
	   92 D(9,5,8,11)     =    -58.183329     0.000001    -2.670095   -60.853424
	   93 D(9,5,8,12)     =     63.812702     0.000000    -3.331559    60.481143
	   94 D(9,5,8,13)     =    179.820004     0.000001     0.037363   179.857367
	   95 D(10,5,8,11)    =     58.144705     0.000001     0.656349    58.801054
	   96 D(10,5,8,12)    =   -179.859264     0.000000    -0.005115  -179.864379
	   97 D(10,5,8,13)    =    -63.851962     0.000001     3.363807   -60.488155
	   98 D(12,8,11,14)   =     57.808813    -0.000001    -0.181162    57.627651
	   99 D(12,8,11,15)   =    -64.288531    -0.000001     0.153758   -64.134773
	  100 D(12,8,11,16)   =    179.908046    -0.000000    -0.002590   179.905456
	  101 D(13,8,11,14)   =    -57.848563     0.000001    -0.322842   -58.171404
	  102 D(13,8,11,15)   =   -179.945907     0.000000     0.012078  -179.933829
	  103 D(13,8,11,16)   =     64.250670     0.000001    -0.144270    64.106401
	  104 D(15,11,14,17)  =     62.065178    -0.000001    -3.259127    58.806050
	  105 D(15,11,14,18)  =    -57.977328    -0.000000    -2.706088   -60.683416
	  106 D(15,11,14,19)  =   -178.019149    -0.000000    -0.024388  -178.043537
	  107 D(16,11,14,17)  =    178.041835    -0.000000     0.097864   178.139699
	  108 D(16,11,14,18)  =     57.999330     0.000000     0.650903    58.650233
	  109 D(16,11,14,19)  =    -62.042491     0.000000     3.332603   -58.709888
	 ---------------------------------------------------------------------------
	Successfully symmetrized geometry.

  ==> Convergence Check <==

  Measures of convergence in internal coordinates in au.
  Criteria marked as inactive (o), active & met (*), and active & unmet ( ).
  --------------------------------------------------------------------------------------------- ~
   Step     Total Energy     Delta E     MAX Force     RMS Force      MAX Disp      RMS Disp    ~
  --------------------------------------------------------------------------------------------- ~
    Convergence Criteria    1.00e-06 *    3.00e-04 *             o    1.20e-03 *             o  ~
  --------------------------------------------------------------------------------------------- ~
      1    -423.10681730   -4.23e+02      6.92e-02      1.10e-02 o    3.11e-01      9.04e-02 o  ~
  ---------------------------------------------------------------------------------------------

	Writing optimization data to binary file.
	Structure for next step:
	Cartesian Geometry (in Angstrom)
	    O    -0.7095773746  -1.3018491650  -2.1472241759
	    C     0.3126992534  -1.2761028050  -1.4952195001
	    C     0.5489967963  -0.2255392234  -0.2578989882
	    O     1.1855132887  -2.3133545849  -1.8421723634
	    C    -0.6341994646   0.7279110131  -0.0202874217
	    H     0.7436641447  -0.8409903033   0.7042471549
	    H     1.4520603427   0.4345746009  -0.4564397047
	    C    -0.3930343789   1.7663096032   1.2293951976
	    H    -1.5401734671   0.0642007255   0.1709512538
	    H    -0.8208018495   1.3167804913  -0.9996252872
	    C    -1.5708580560   2.7309481028   1.4803861650
	    H    -0.2040277088   1.1684680676   2.2076119152
	    H     0.5188166335   2.4273196941   1.0323079742
	    C    -1.3296219165   3.7676422311   2.7294766265
	    H    -2.4817344533   2.0724865854   1.6785545623
	    H    -1.7597243621   3.3300006043   0.5050377467
	    H    -1.1718539442   3.1991311243   3.7287104058
	    H    -2.1842344979   4.4350714447   2.8777754163
	    H    -0.4441453932   4.4670163254   2.5455708741
	    C     2.7366763761  -2.2838514514  -1.7658697947
	    H     3.1951087928  -1.4113014688  -2.4100398432
	    H     3.0408379599  -3.3827557238  -2.2593978923
	    H     3.1988457935  -2.1244551759  -0.6315862879
			--------------------------
			 OPTKING Finished Execution 
			--------------------------

    Structure for next step:
    Molecular point group: c1
    Full point group: C1

    Geometry (in Angstrom), charge = 0, multiplicity = 1:

    O           -0.749663398265    -1.455094122905    -1.899347797878
    C            0.272613229766    -1.429347762913    -1.247343122111
    C            0.508910772694    -0.378784181343    -0.010022610218
    O            1.145427265014    -2.466599542839    -1.594295985369
    C           -0.674285488262     0.574666055170     0.227588956262
    H            0.703578121097    -0.994235261209     0.952123532937
    H            1.411974319102     0.281329642928    -0.208563326674
    C           -0.433120402554     1.613064645259     1.477271575622
    H           -1.580259490784    -0.089044232387     0.418827631831
    H           -0.860887873174     1.163535533362    -0.751748909159
    C           -1.610944079670     2.577703144872     1.728262542979
    H           -0.244113732491     1.015223109660     2.455488293176
    H            0.478730609886     2.274074736204     1.280184352239
    C           -1.369707940129     3.614397273212     2.977353004516
    H           -2.521820476956     1.919241627472     1.926430940250
    H           -1.799810385789     3.176755646330     0.752914124722
    H           -1.211939967871     3.045886166369     3.976586783774
    H           -2.224320521548     4.281826486763     3.125651794317
    H           -0.484231416818     4.313771367464     2.793447252104
    C            2.696590352495    -2.437096409280    -1.517993416708
    H            3.155022769141    -1.564546426774    -2.162163465190
    H            3.000751936259    -3.536000681714    -2.011521514283
    H            3.158759769847    -2.277700133872    -0.383709909874

gradient() will perform analytic gradient computation.

*** tstart() called on cx1-27-3-2
*** at Sun Sep 11 06:48:37 2016


         ---------------------------------------------------------
                                   SCF
            by Justin Turney, Rob Parrish, and Andy Simmonett
                              RHF Reference
                        4 Threads,   2000 MiB Core
         ---------------------------------------------------------

  ==> Geometry <==

    Molecular point group: c1
    Full point group: C1

    Geometry (in Angstrom), charge = 0, multiplicity = 1:

       Center              X                  Y                   Z               Mass       
    ------------   -----------------  -----------------  -----------------  -----------------
           O         -0.749663398265    -1.455094122905    -1.899347797878    15.994914619560
           C          0.272613229766    -1.429347762913    -1.247343122111    12.000000000000
           C          0.508910772694    -0.378784181343    -0.010022610218    12.000000000000
           O          1.145427265014    -2.466599542839    -1.594295985369    15.994914619560
           C         -0.674285488262     0.574666055170     0.227588956262    12.000000000000
           H          0.703578121097    -0.994235261209     0.952123532937     1.007825032070
           H          1.411974319102     0.281329642928    -0.208563326674     1.007825032070
           C         -0.433120402554     1.613064645259     1.477271575622    12.000000000000
           H         -1.580259490784    -0.089044232387     0.418827631831     1.007825032070
           H         -0.860887873174     1.163535533362    -0.751748909159     1.007825032070
           C         -1.610944079670     2.577703144872     1.728262542979    12.000000000000
           H         -0.244113732491     1.015223109660     2.455488293176     1.007825032070
           H          0.478730609886     2.274074736204     1.280184352239     1.007825032070
           C         -1.369707940129     3.614397273212     2.977353004516    12.000000000000
           H         -2.521820476956     1.919241627472     1.926430940250     1.007825032070
           H         -1.799810385789     3.176755646330     0.752914124722     1.007825032070
           H         -1.211939967871     3.045886166369     3.976586783774     1.007825032070
           H         -2.224320521548     4.281826486763     3.125651794317     1.007825032070
           H         -0.484231416818     4.313771367464     2.793447252104     1.007825032070
           C          2.696590352495    -2.437096409280    -1.517993416708    12.000000000000
           H          3.155022769141    -1.564546426774    -2.162163465190     1.007825032070
           H          3.000751936259    -3.536000681714    -2.011521514283     1.007825032070
           H          3.158759769847    -2.277700133872    -0.383709909874     1.007825032070

  Running in c1 symmetry.

  Rotational constants: A =      0.14094  B =      0.01551  C =      0.01427 [cm^-1]
  Rotational constants: A =   4225.42228  B =    464.91807  C =    427.73652 [MHz]
  Nuclear repulsion =  428.151831496674163

  Charge       = 0
  Multiplicity = 1
  Electrons    = 72
  Nalpha       = 36
  Nbeta        = 36

  ==> Algorithm <==

  SCF Algorithm Type is DF.
  DIIS enabled.
  MOM disabled.
  Fractional occupation disabled.
  Guess Type is READ.
  Energy threshold   = 1.00e-08
  Density threshold  = 1.00e-08
  Integral threshold = 0.00e+00

  ==> Primary Basis <==

  Basis Set: CC-PVTZ
    Number of shells: 174
    Number of basis function: 466
    Number of Cartesian functions: 525
    Spherical Harmonics?: true
    Max angular momentum: 3

  ==> Pre-Iterations <==

   -------------------------------------------------------
    Irrep   Nso     Nmo     Nalpha   Nbeta   Ndocc  Nsocc
   -------------------------------------------------------
     A        466     466       0       0       0       0
   -------------------------------------------------------
    Total     466     466      36      36      36       0
   -------------------------------------------------------

  ==> Integral Setup <==

  ==> DFJK: Density-Fitted J/K Matrices <==

    J tasked:                  Yes
    K tasked:                  Yes
    wK tasked:                  No
    OpenMP threads:              4
    Integrals threads:           4
    Memory (MB):              1430
    Algorithm:                Core
    Integral Cache:           NONE
    Schwarz Cutoff:          1E-12
    Fitting Condition:       1E-12

   => Auxiliary Basis Set <=

  Basis Set: 
    Number of shells: 365
    Number of basis function: 1131
    Number of Cartesian functions: 1354
    Spherical Harmonics?: true
    Max angular momentum: 4

  Minimum eigenvalue in the overlap matrix is 3.6105588536E-04.
  Using Symmetric Orthogonalization.
  SCF Guess: Reading in previously saved MOs, projecting if necessary.

  Using orbitals from previous SCF, no projection.
  Recomputing DOCC and SOCC from number of alpha and beta electrons from previous calculation.
              A 
    DOCC [    36 ]

  ==> Iterations <==

                           Total Energy        Delta E     RMS |[F,P]|

   @DF-RHF iter   0:  -421.19697806939519   -4.21197e+02   2.45732e-03 
   @DF-RHF iter   1:  -422.89323809181394   -1.69626e+00   8.35885e-04 
   @DF-RHF iter   2:  -422.98104313325950   -8.78050e-02   4.45861e-04 DIIS
   @DF-RHF iter   3:  -423.00029797462241   -1.92548e-02   1.19256e-04 DIIS
   @DF-RHF iter   4:  -423.00262766506114   -2.32969e-03   5.67508e-05 DIIS
   @DF-RHF iter   5:  -423.00316872024621   -5.41055e-04   1.36775e-05 DIIS
   @DF-RHF iter   6:  -423.00323807271570   -6.93525e-05   6.85550e-06 DIIS
   @DF-RHF iter   7:  -423.00325622353114   -1.81508e-05   3.11708e-06 DIIS
   @DF-RHF iter   8:  -423.00326131342445   -5.08989e-06   1.22893e-06 DIIS
   @DF-RHF iter   9:  -423.00326185186861   -5.38444e-07   5.37835e-07 DIIS
   @DF-RHF iter  10:  -423.00326197559855   -1.23730e-07   1.78497e-07 DIIS
   @DF-RHF iter  11:  -423.00326199059293   -1.49944e-08   6.50817e-08 DIIS
   @DF-RHF iter  12:  -423.00326199224457   -1.65164e-09   2.02985e-08 DIIS
   @DF-RHF iter  13:  -423.00326199238646   -1.41881e-10   5.43055e-09 DIIS

  ==> Post-Iterations <==

    Orbital Energies (a.u.)
    -----------------------

    Doubly Occupied:                                                      

       1A    -20.593045     2A    -20.536995     3A    -11.386431  
       4A    -11.349972     5A    -11.278774     6A    -11.254094  
       7A    -11.253142     8A    -11.250021     9A    -11.241538  
      10A     -1.420528    11A     -1.320243    12A     -1.065276  
      13A     -1.013129    14A     -0.932862    15A     -0.917586  
      16A     -0.836808    17A     -0.774682    18A     -0.743440  
      19A     -0.670235    20A     -0.647532    21A     -0.639562  
      22A     -0.620232    23A     -0.592403    24A     -0.571789  
      25A     -0.556937    26A     -0.546771    27A     -0.539181  
      28A     -0.526096    29A     -0.501082    30A     -0.492589  
      31A     -0.484076    32A     -0.470412    33A     -0.463310  
      34A     -0.453797    35A     -0.443953    36A     -0.425982  

    Virtual:                                                              

      37A      0.115389    38A      0.134927    39A      0.150646  
      40A      0.155821    41A      0.162312    42A      0.170813  
      43A      0.187221    44A      0.191132    45A      0.192266  
      46A      0.215738    47A      0.218430    48A      0.221728  
      49A      0.227443    50A      0.242389    51A      0.256230  
      52A      0.266511    53A      0.292088    54A      0.298855  
      55A      0.317854    56A      0.344484    57A      0.347915  
      58A      0.368128    59A      0.373925    60A      0.387248  
      61A      0.394040    62A      0.419090    63A      0.431124  
      64A      0.439724    65A      0.451286    66A      0.464822  
      67A      0.474167    68A      0.483488    69A      0.492170  
      70A      0.502831    71A      0.511233    72A      0.543013  
      73A      0.552526    74A      0.557035    75A      0.567320  
      76A      0.574322    77A      0.577370    78A      0.593473  
      79A      0.601506    80A      0.607883    81A      0.613578  
      82A      0.619931    83A      0.623198    84A      0.632670  
      85A      0.635986    86A      0.637590    87A      0.641652  
      88A      0.649127    89A      0.654059    90A      0.660997  
      91A      0.670523    92A      0.677254    93A      0.692722  
      94A      0.707918    95A      0.744258    96A      0.755474  
      97A      0.768428    98A      0.772159    99A      0.799975  
     100A      0.816169   101A      0.846687   102A      0.867366  
     103A      0.887451   104A      0.895362   105A      0.908891  
     106A      0.913970   107A      0.930168   108A      0.940114  
     109A      0.952723   110A      0.959556   111A      0.968702  
     112A      0.974639   113A      1.000413   114A      1.012752  
     115A      1.032527   116A      1.044047   117A      1.058650  
     118A      1.064699   119A      1.068023   120A      1.083403  
     121A      1.104044   122A      1.110186   123A      1.136253  
     124A      1.142914   125A      1.164878   126A      1.180869  
     127A      1.200540   128A      1.208528   129A      1.219026  
     130A      1.224991   131A      1.231466   132A      1.234445  
     133A      1.244315   134A      1.247258   135A      1.266313  
     136A      1.274229   137A      1.295890   138A      1.306243  
     139A      1.312598   140A      1.323100   141A      1.332212  
     142A      1.345248   143A      1.348678   144A      1.359505  
     145A      1.368629   146A      1.372759   147A      1.379793  
     148A      1.396880   149A      1.407337   150A      1.426303  
     151A      1.433110   152A      1.445023   153A      1.455628  
     154A      1.462200   155A      1.474051   156A      1.482328  
     157A      1.491544   158A      1.494356   159A      1.505953  
     160A      1.517658   161A      1.524655   162A      1.539047  
     163A      1.550476   164A      1.562177   165A      1.568750  
     166A      1.569854   167A      1.593134   168A      1.601110  
     169A      1.611927   170A      1.649218   171A      1.660175  
     172A      1.674543   173A      1.682387   174A      1.705667  
     175A      1.722544   176A      1.735751   177A      1.763785  
     178A      1.765079   179A      1.775452   180A      1.782887  
     181A      1.812054   182A      1.848416   183A      1.860020  
     184A      1.886979   185A      1.893693   186A      1.925276  
     187A      1.963043   188A      2.044752   189A      2.085044  
     190A      2.224277   191A      2.276839   192A      2.304978  
     193A      2.344575   194A      2.370708   195A      2.462767  
     196A      2.474646   197A      2.505574   198A      2.516947  
     199A      2.533872   200A      2.561477   201A      2.570384  
     202A      2.599426   203A      2.617987   204A      2.641916  
     205A      2.666969   206A      2.682177   207A      2.700792  
     208A      2.731080   209A      2.751196   210A      2.762479  
     211A      2.766101   212A      2.784347   213A      2.793809  
     214A      2.799491   215A      2.821351   216A      2.840392  
     217A      2.868425   218A      2.877246   219A      2.882566  
     220A      2.896564   221A      2.907188   222A      2.913932  
     223A      2.934997   224A      2.947759   225A      2.954313  
     226A      2.956536   227A      2.971266   228A      2.984247  
     229A      2.996347   230A      3.016895   231A      3.030903  
     232A      3.033223   233A      3.061905   234A      3.087522  
     235A      3.091972   236A      3.094560   237A      3.115515  
     238A      3.132179   239A      3.140852   240A      3.149479  
     241A      3.164308   242A      3.177597   243A      3.193021  
     244A      3.202846   245A      3.209851   246A      3.231290  
     247A      3.242934   248A      3.246358   249A      3.274182  
     250A      3.277613   251A      3.286767   252A      3.291270  
     253A      3.303921   254A      3.320669   255A      3.338726  
     256A      3.344284   257A      3.360144   258A      3.369721  
     259A      3.376344   260A      3.385639   261A      3.390835  
     262A      3.397415   263A      3.401192   264A      3.419318  
     265A      3.445401   266A      3.453400   267A      3.458023  
     268A      3.463798   269A      3.470968   270A      3.476747  
     271A      3.487899   272A      3.495767   273A      3.504444  
     274A      3.510799   275A      3.519654   276A      3.523659  
     277A      3.527760   278A      3.533219   279A      3.546128  
     280A      3.562407   281A      3.584070   282A      3.603317  
     283A      3.609966   284A      3.622917   285A      3.623581  
     286A      3.628150   287A      3.651121   288A      3.669057  
     289A      3.680323   290A      3.684940   291A      3.702142  
     292A      3.710299   293A      3.730411   294A      3.738230  
     295A      3.754861   296A      3.757782   297A      3.772024  
     298A      3.776189   299A      3.782872   300A      3.808686  
     301A      3.815692   302A      3.825529   303A      3.836813  
     304A      3.861846   305A      3.881028   306A      3.910295  
     307A      3.913489   308A      3.932276   309A      3.945714  
     310A      3.957850   311A      3.971783   312A      3.976903  
     313A      3.994033   314A      4.004835   315A      4.017851  
     316A      4.038168   317A      4.050860   318A      4.065137  
     319A      4.075555   320A      4.088650   321A      4.097455  
     322A      4.098085   323A      4.112027   324A      4.116454  
     325A      4.125917   326A      4.134429   327A      4.148583  
     328A      4.177496   329A      4.192461   330A      4.200158  
     331A      4.206516   332A      4.217601   333A      4.228127  
     334A      4.236946   335A      4.247132   336A      4.250585  
     337A      4.260291   338A      4.277953   339A      4.284579  
     340A      4.292670   341A      4.306645   342A      4.314553  
     343A      4.322022   344A      4.338377   345A      4.346183  
     346A      4.375727   347A      4.378916   348A      4.394720  
     349A      4.431797   350A      4.446020   351A      4.451954  
     352A      4.454446   353A      4.462786   354A      4.477563  
     355A      4.488492   356A      4.501224   357A      4.510798  
     358A      4.520042   359A      4.539629   360A      4.565495  
     361A      4.573394   362A      4.587900   363A      4.590626  
     364A      4.619350   365A      4.642201   366A      4.665390  
     367A      4.697564   368A      4.699282   369A      4.721165  
     370A      4.749798   371A      4.759360   372A      4.774059  
     373A      4.786840   374A      4.809711   375A      4.868117  
     376A      4.879311   377A      4.910160   378A      4.921431  
     379A      4.927372   380A      4.946336   381A      4.953625  
     382A      4.971542   383A      4.987958   384A      4.988728  
     385A      5.017145   386A      5.031694   387A      5.041909  
     388A      5.055082   389A      5.065534   390A      5.080110  
     391A      5.084940   392A      5.107315   393A      5.120792  
     394A      5.141540   395A      5.150433   396A      5.156570  
     397A      5.196376   398A      5.204124   399A      5.216980  
     400A      5.223648   401A      5.249780   402A      5.270012  
     403A      5.298467   404A      5.304206   405A      5.326310  
     406A      5.356545   407A      5.412911   408A      5.423209  
     409A      5.451121   410A      5.494624   411A      5.521288  
     412A      5.529764   413A      5.543318   414A      5.552402  
     415A      5.599955   416A      5.605072   417A      5.627486  
     418A      5.642293   419A      5.654287   420A      5.666348  
     421A      5.673861   422A      5.685013   423A      5.695036  
     424A      5.720156   425A      5.726150   426A      5.739853  
     427A      5.748745   428A      5.895810   429A      5.960089  
     430A      5.970157   431A      5.975562   432A      6.021727  
     433A      6.063305   434A      6.121627   435A      6.168845  
     436A      6.190686   437A      6.227011   438A      6.273834  
     439A      6.305227   440A      6.318590   441A      6.359074  
     442A      6.389084   443A      6.427429   444A      6.621990  
     445A      6.690602   446A      6.734543   447A      6.910736  
     448A      6.995135   449A      7.102378   450A      7.132707  
     451A      7.195300   452A      7.356268   453A      7.410604  
     454A      7.535466   455A      7.569286   456A      7.645063  
     457A      7.864262   458A      9.091791   459A     10.935960  
     460A     11.201562   461A     11.731720   462A     11.899738  
     463A     12.410225   464A     12.595600   465A     12.874333  
     466A     13.382324  

    Final Occupation by Irrep:
              A 
    DOCC [    36 ]

  Energy converged.

  @DF-RHF Final Energy:  -423.00326199238646

   => Energetics <=

    Nuclear Repulsion Energy =            428.1518314966741627
    One-Electron Energy =               -1424.6811721068620500
    Two-Electron Energy =                 573.5260786178016588
    DFT Exchange-Correlation Energy =       0.0000000000000000
    Empirical Dispersion Energy =           0.0000000000000000
    PCM Polarization Energy =               0.0000000000000000
    EFP Energy =                            0.0000000000000000
    Total Energy =                       -423.0032619923862285


  Saving occupied orbitals to File 180.

*** tstop() called on cx1-27-3-2 at Sun Sep 11 06:48:55 2016
Module time:
	user time   =      63.85 seconds =       1.06 minutes
	system time =       1.12 seconds =       0.02 minutes
	total time  =         18 seconds =       0.30 minutes
Total time:
	user time   =     201.87 seconds =       3.36 minutes
	system time =       3.33 seconds =       0.06 minutes
	total time  =         56 seconds =       0.93 minutes


Properties will be evaluated at   0.000000,   0.000000,   0.000000 Bohr

Properties computed using the SCF density matrix

  Nuclear Dipole Moment: (a.u.)
     X:     0.9220      Y:    12.1777      Z:    11.3865

  Electronic Dipole Moment: (a.u.)
     X:     0.5330      Y:   -11.5876      Z:   -10.4424

  Dipole Moment: (a.u.)
     X:     1.4550      Y:     0.5901      Z:     0.9442     Total:     1.8322

  Dipole Moment: (Debye)
     X:     3.6982      Y:     1.5000      Z:     2.3999     Total:     4.6569


*** tstart() called on cx1-27-3-2
*** at Sun Sep 11 06:48:55 2016


         ------------------------------------------------------------
                                   SCF GRAD                          
                          Rob Parrish, Justin Turney,                
                       Andy Simmonett, and Alex Sokolov              
         ------------------------------------------------------------

  ==> Geometry <==

    Molecular point group: c1
    Full point group: C1

    Geometry (in Angstrom), charge = 0, multiplicity = 1:

       Center              X                  Y                   Z               Mass       
    ------------   -----------------  -----------------  -----------------  -----------------
           O         -0.749663398265    -1.455094122905    -1.899347797878    15.994914619560
           C          0.272613229766    -1.429347762913    -1.247343122111    12.000000000000
           C          0.508910772694    -0.378784181343    -0.010022610218    12.000000000000
           O          1.145427265014    -2.466599542839    -1.594295985369    15.994914619560
           C         -0.674285488262     0.574666055170     0.227588956262    12.000000000000
           H          0.703578121097    -0.994235261209     0.952123532937     1.007825032070
           H          1.411974319102     0.281329642928    -0.208563326674     1.007825032070
           C         -0.433120402554     1.613064645259     1.477271575622    12.000000000000
           H         -1.580259490784    -0.089044232387     0.418827631831     1.007825032070
           H         -0.860887873174     1.163535533362    -0.751748909159     1.007825032070
           C         -1.610944079670     2.577703144872     1.728262542979    12.000000000000
           H         -0.244113732491     1.015223109660     2.455488293176     1.007825032070
           H          0.478730609886     2.274074736204     1.280184352239     1.007825032070
           C         -1.369707940129     3.614397273212     2.977353004516    12.000000000000
           H         -2.521820476956     1.919241627472     1.926430940250     1.007825032070
           H         -1.799810385789     3.176755646330     0.752914124722     1.007825032070
           H         -1.211939967871     3.045886166369     3.976586783774     1.007825032070
           H         -2.224320521548     4.281826486763     3.125651794317     1.007825032070
           H         -0.484231416818     4.313771367464     2.793447252104     1.007825032070
           C          2.696590352495    -2.437096409280    -1.517993416708    12.000000000000
           H          3.155022769141    -1.564546426774    -2.162163465190     1.007825032070
           H          3.000751936259    -3.536000681714    -2.011521514283     1.007825032070
           H          3.158759769847    -2.277700133872    -0.383709909874     1.007825032070

  Nuclear repulsion =  428.151831496674220

  ==> Basis Set <==

  Basis Set: CC-PVTZ
    Number of shells: 174
    Number of basis function: 466
    Number of Cartesian functions: 525
    Spherical Harmonics?: true
    Max angular momentum: 3

  ==> DFJKGrad: Density-Fitted SCF Gradients <==

    Gradient:                    1
    J tasked:                  Yes
    K tasked:                  Yes
    wK tasked:                  No
    OpenMP threads:              4
    Integrals threads:           4
    Memory (MB):              1430
    Schwarz Cutoff:          0E+00
    Fitting Condition:       1E-12

   => Auxiliary Basis Set <=

  Basis Set: 
    Number of shells: 365
    Number of basis function: 1131
    Number of Cartesian functions: 1354
    Spherical Harmonics?: true
    Max angular momentum: 4


  -Total Gradient:
     Atom            X                  Y                   Z
    ------   -----------------  -----------------  -----------------
       1       -0.051417428442    -0.016411892197    -0.046185164445
       2        0.031955175788     0.015218936658     0.027220021730
       3       -0.027921447091     0.019544275905     0.000089337357
       4       -0.057579948134    -0.040033492469    -0.027694227123
       5        0.022899940365    -0.013036339679     0.002840131117
       6        0.002743493385    -0.019713552539     0.038376526502
       7        0.018266829434     0.027823896986    -0.003151609863
       8       -0.019656261018     0.014497818499    -0.000093767449
       9       -0.021962442075    -0.027471761152     0.004479839649
      10       -0.003368358188     0.019940838688    -0.038672443186
      11        0.017348783584    -0.013177317896     0.000228754114
      12        0.003328232096    -0.019720800841     0.038047238061
      13        0.021663424925     0.026932292708    -0.004355155309
      14       -0.015263836857     0.019785048655     0.003688439900
      15       -0.021872694510    -0.027079432045     0.004311583620
      16       -0.003410805773     0.019849609792    -0.038174904700
      17        0.002795378924    -0.019633993434     0.039261846028
      18       -0.002598292682     0.009379382786     0.004210557292
      19        0.023024800737     0.027350690384    -0.004460239363
      20       -0.000718907101     0.009998419652    -0.004182236437
      21        0.028162804034     0.040790661863    -0.024947829288
      22        0.018226587261    -0.070846394707    -0.035254598952
      23        0.035354971335     0.016013104376     0.064417900739


*** tstop() called on cx1-27-3-2 at Sun Sep 11 06:49:13 2016
Module time:
	user time   =      66.82 seconds =       1.11 minutes
	system time =       0.94 seconds =       0.02 minutes
	total time  =         18 seconds =       0.30 minutes
Total time:
	user time   =     268.82 seconds =       4.48 minutes
	system time =       4.27 seconds =       0.07 minutes
	total time  =         74 seconds =       1.23 minutes

			-----------------------------------------
			 OPTKING 2.0: for geometry optimizations 
			  - R.A. King,  Bethel University        
			-----------------------------------------

	Previous internal coordinate definitions found.
	---Fragment 1 Geometry and Gradient---
	 O          -1.4166585146       -2.7497293899       -3.5892471691
	 C           0.5151643445       -2.7010758206       -2.3571368945
	 C           0.9617019865       -0.7157983662       -0.0189399884
	 O           2.1645438360       -4.6611976155       -3.0127827871
	 C          -1.2742149082        1.0859614621        0.4300807982
	 H           1.3295699620       -1.8788323553        1.7992527219
	 H           2.6682447698        0.5316359782       -0.3941275688
	 C          -0.8184789434        3.0482504142        2.7916387018
	 H          -2.9862576565       -0.1682692129        0.7914695210
	 H          -1.6268423114        2.1987635039       -1.4205995590
	 C          -3.0442431260        4.8711529957        3.2659428920
	 H          -0.4613080997        1.9184936410        4.6402003966
	 H           0.9046697441        4.2973784571        2.4191978253
	 C          -2.5883728889        6.8302209818        5.6263817795
	 H          -4.7655500577        3.6268410588        3.6404268910
	 H          -3.4011487203        6.0031981627        1.4228014973
	 H          -2.2902346288        5.7558906864        7.5146599650
	 H          -4.2033566175        8.0914794085        5.9066258780
	 H          -0.9150647627        8.1518464844        5.2788502731
	 C           5.0958172588       -4.6054447730       -2.8685918291
	 H           5.9621289767       -2.9565642688       -4.0858968037
	 H           5.6705993523       -6.6820728941       -3.8012247724
	 H           5.9691908846       -4.3042294659       -0.7251066441
	            -0.0514174284       -0.0164118922       -0.0461851644
	             0.0319551758        0.0152189367        0.0272200217
	            -0.0279214471        0.0195442759        0.0000893374
	            -0.0575799481       -0.0400334925       -0.0276942271
	             0.0228999404       -0.0130363397        0.0028401311
	             0.0027434934       -0.0197135525        0.0383765265
	             0.0182668294        0.0278238970       -0.0031516099
	            -0.0196562610        0.0144978185       -0.0000937674
	            -0.0219624421       -0.0274717612        0.0044798396
	            -0.0033683582        0.0199408387       -0.0386724432
	             0.0173487836       -0.0131773179        0.0002287541
	             0.0033282321       -0.0197208008        0.0380472381
	             0.0216634249        0.0269322927       -0.0043551553
	            -0.0152638369        0.0197850487        0.0036884399
	            -0.0218726945       -0.0270794320        0.0043115836
	            -0.0034108058        0.0198496098       -0.0381749047
	             0.0027953789       -0.0196339934        0.0392618460
	            -0.0025982927        0.0093793828        0.0042105573
	             0.0230248007        0.0273506904       -0.0044602394
	            -0.0007189071        0.0099984197       -0.0041822364
	             0.0281628040        0.0407906619       -0.0249478293
	             0.0182265873       -0.0708463947       -0.0352545990
	             0.0353549713        0.0160131044        0.0644179007

	---Fragment 1 Intrafragment Coordinates---
	 - Coordinate -           - BOHR/RAD -       - ANG/DEG -
	 R(1,2)           =         2.291812	       1.212775
	 R(2,3)           =         3.099659	       1.640269
	 R(2,4)           =         2.644315	       1.399311
	 R(3,5)           =         2.906421	       1.538012
	 R(3,6)           =         2.189475	       1.158620
	 R(3,7)           =         2.146892	       1.136086
	 R(4,20)          =         2.935347	       1.553319
	 R(5,8)           =         3.104067	       1.642601
	 R(5,9)           =         2.152855	       1.139242
	 R(5,10)          =         2.188080	       1.157882
	 R(8,11)          =         2.915813	       1.542982
	 R(8,12)          =         2.195701	       1.161915
	 R(8,13)          =         2.160619	       1.143350
	 R(11,14)         =         3.101199	       1.641084
	 R(11,15)         =         2.156722	       1.141288
	 R(11,16)         =         2.192277	       1.160103
	 R(14,17)         =         2.192867	       1.160415
	 R(14,18)         =         2.068207	       1.094448
	 R(14,19)         =         2.160424	       1.143247
	 R(20,21)         =         2.225114	       1.177480
	 R(20,22)         =         2.347885	       1.242447
	 R(20,23)         =         2.334104	       1.235155
	 B(1,2,3)         =         2.141914	     122.722623
	 B(1,2,4)         =         1.957065	     112.131558
	 B(2,3,5)         =         1.985332	     113.751117
	 B(2,3,6)         =         1.886417	     108.083744
	 B(2,3,7)         =         1.933531	     110.783141
	 B(2,4,20)        =         2.210080	     126.628275
	 B(3,2,4)         =         2.179667	     124.885727
[...]
	 D(6,3,5,9)       =        -1.110122	     -63.605296
	 D(6,3,5,10)      =        -3.126581	    -179.139893
	 D(7,3,5,8)       =        -1.019753	     -58.427521
	 D(7,3,5,9)       =         3.130640	     179.372478
	 D(7,3,5,10)      =         1.114181	      63.837881
	 D(8,11,14,17)    =        -1.046596	     -59.965547
	 D(8,11,14,18)    =        -3.141473	    -179.993128
	 D(8,11,14,19)    =         1.046836	      59.979261
	 D(9,5,8,11)      =        -1.014406	     -58.121198
	 D(9,5,8,12)      =         1.114122	      63.834508
	 D(9,5,8,13)      =         3.140510	     179.937982
	 D(10,5,8,11)     =         1.018356	      58.347487
	 D(10,5,8,12)     =        -3.136301	    -179.696808
	 D(10,5,8,13)     =        -1.109913	     -63.593334
	 D(12,8,11,14)    =         1.009256	      57.826135
	 D(12,8,11,15)    =        -1.121741	     -64.271008
	 D(12,8,11,16)    =         3.140409	     179.932158
	 D(13,8,11,14)    =        -1.009168	     -57.821040
	 D(13,8,11,15)    =        -3.140165	    -179.918184
	 D(13,8,11,16)    =         1.121985	      64.284983
	 D(15,11,14,17)   =         1.082624	      62.029773
	 D(15,11,14,18)   =        -1.012253	     -57.997809
	 D(15,11,14,19)   =        -3.107130	    -178.025420
	 D(16,11,14,17)   =         3.107238	     178.031650
	 D(16,11,14,18)   =         1.012362	      58.004069
	 D(16,11,14,19)   =        -1.082515	     -62.023542

	Current energy   :      -423.1152535279

	Energy change for the previous step:
		Projected    :        -0.0000013126
		Actual       :        -0.0000005421

	Performing BFGS update.
	Previous computed or guess Hessian on step 1.
	Steps to be used in Hessian update: 8 7
	Taking RFO optimization step.
	Going to follow RFO solution 1.
	Using RFO vector 1.

	Determining step-restricting scale parameter for RS-RFO.
	Maximum step size allowed    0.25000

	 Iter      |step|        alpha        rfo_root  
	------------------------------------------------
	    0   101.50163       1.00000           1
	    1    50.81475       1.99759           1
	    2    25.47138       3.98557           1
	    3    12.79985       7.93286           1
	    4     6.46437      15.71408           1
	    5     3.29722      30.83314           1
	    6     1.71482      59.37536           1
	    7     0.92596     110.25452           1
	    8     0.53618     191.20922           1
	    9     0.35022     294.28032           1
	   10     0.27255     379.76205           1
	   11     0.25175     411.78820           1
	   12     0.25001     414.71502           1
	   13     0.25000     414.73596           1
	------------------------------------------------
	Norm of target step-size    0.25000
	Projected energy change by RFO approximation:        -0.0014542335

	Back-transformation to cartesian coordinates...
	Could not converge backtransformation.
	Using first guess instead.

	Back-transformation to cartesian coordinates to adjust frozen coordinates...
	Successfully converged to displaced geometry.

	--- Internal Coordinate Step in ANG or DEG, aJ/ANG or AJ/DEG ---
	 ---------------------------------------------------------------------------
	   Coordinate                Previous        Force       Change         New 
	   ----------                --------       ------       ------       ------
	    1 R(1,2)          =      1.177964    -0.000554    -0.003029     1.174935
	    2 R(2,3)          =      1.512944     0.000366     0.008791     1.521735
	    3 R(2,4)          =      1.335807     0.000216     0.005547     1.341354
	    4 R(3,5)          =      1.522886     0.000027     0.000423     1.523308
	    5 R(3,6)          =      1.085733    -0.000153     0.008427     1.094160
	    6 R(3,7)          =      1.085526     0.000023     0.013381     1.098906
	    7 R(4,20)         =      1.405744    -0.000667    -0.008813     1.396931
	    8 R(5,8)          =      1.525826     0.000121     0.012899     1.538725
	    9 R(5,9)          =      1.083721    -0.000074     0.009771     1.093492
	   10 R(5,10)         =      1.083293    -0.000109     0.009108     1.092401
	   11 R(8,11)         =      1.525982    -0.000056     0.001998     1.527980
	   12 R(8,12)         =      1.087893    -0.000013     0.009844     1.097737
	   13 R(8,13)         =      1.088013    -0.000088     0.007673     1.095686
	   14 R(11,14)        =      1.524870     0.000045     0.014425     1.539295
	   15 R(11,15)        =      1.086247    -0.000080     0.007574     1.093821
	   16 R(11,16)        =      1.086254    -0.000037     0.009855     1.096109
	   17 R(14,17)        =      1.085027    -0.000062     0.009931     1.094959
	   18 R(14,18)        =      1.083768     0.000019     0.002669     1.086436
	   19 R(14,19)        =      1.085042    -0.000052     0.007196     1.092238
	   20 R(20,21)        =      1.082774    -0.000004     0.013982     1.096756
	   21 R(20,22)        =      1.077789    -0.000085     0.013317     1.091107
	   22 R(20,23)        =      1.082005     0.000047     0.017694     1.099699
	   23 B(1,2,3)        =    123.617245     0.000007     2.074106   125.691351
	   24 B(1,2,4)        =    119.309216    -0.000008    -0.029579   119.279637
	   25 B(2,3,5)        =    113.188547     0.000001     1.245242   114.433789
	   26 B(2,3,6)        =    107.881518     0.000001     0.042370   107.923888
	   27 B(2,3,7)        =    108.471738    -0.000001    -1.721232   106.750505
	   28 B(2,4,20)       =    122.059482    -0.000003    -6.371118   115.688363
	   29 B(3,2,4)        =    117.059695     0.000001    -2.120028   114.939667
	   30 B(3,5,8)        =    112.332595     0.000000     0.762629   113.095224
	   31 B(3,5,9)        =    109.153269    -0.000000    -0.309276   108.843993
	   32 B(3,5,10)       =    109.134833    -0.000000    -0.589182   108.545650
	   33 B(4,20,21)      =    111.178217     0.000001     0.036279   111.214496
	   34 B(4,20,22)      =    106.042032    -0.000004    -1.660858   104.381174
	   35 B(4,20,23)      =    112.153186     0.000001    -0.144248   112.008938
	   36 B(5,3,6)        =    110.783969    -0.000001     0.153313   110.937282
	   37 B(5,3,7)        =    110.192093    -0.000000     1.221677   111.413771
	   38 B(5,8,11)       =    113.065059     0.000000     0.523036   113.588095
	   39 B(5,8,12)       =    109.550133     0.000000     0.075269   109.625402
	   40 B(5,8,13)       =    109.531479    -0.000000    -0.290204   109.241275
	   41 B(6,3,7)        =    106.032499     0.000000    -1.196895   104.835604
	   42 B(8,5,9)        =    109.934834    -0.000000    -0.218287   109.716547
	   43 B(8,5,10)       =    109.996483     0.000000     0.055773   110.052255
	   44 B(8,11,14)      =    113.124487     0.000000     0.497700   113.622187
	   45 B(8,11,15)      =    109.217993    -0.000000    -0.349377   108.868616
	   46 B(8,11,16)      =    109.220816     0.000000    -0.402210   108.818606
	   47 B(9,5,10)       =    106.090156    -0.000000     0.263219   106.353376
	   48 B(11,8,12)      =    109.134113    -0.000000    -0.394135   108.739978
	   49 B(11,8,13)      =    109.133027    -0.000000    -0.285306   108.847721
	   50 B(11,14,17)     =    111.170708     0.000000     0.177073   111.347781
	   51 B(11,14,18)     =    111.203894    -0.000000     0.352660   111.556554
	   52 B(11,14,19)     =    111.174226    -0.000000    -0.166343   111.007883
	   53 B(12,8,13)      =    106.194175    -0.000000     0.362553   106.556727
	   54 B(14,11,15)     =    109.399918     0.000000    -0.181195   109.218722
	   55 B(14,11,16)     =    109.405252     0.000000     0.064703   109.469955
	   56 B(15,11,16)     =    106.239898    -0.000000     0.363755   106.603653
	   57 B(17,14,18)     =    107.723758    -0.000000    -0.363880   107.359878
	   58 B(17,14,19)     =    107.674058    -0.000000     0.356450   108.030508
	   59 B(18,14,19)     =    107.721913     0.000000    -0.378253   107.343660
	   60 B(21,20,22)     =    108.878163     0.000001     0.858835   109.736998
	   61 B(21,20,23)     =    109.565597     0.000000     0.513934   110.079530
	   62 B(22,20,23)     =    108.898119     0.000001     0.355751   109.253869
	   63 D(1,2,3,5)      =      5.060124    -0.000000     3.430170     8.490295
	   64 D(1,2,3,6)      =    128.004929    -0.000000     4.504749   132.509679
	   65 D(1,2,3,7)      =   -117.555098    -0.000000     2.298325  -115.256774
	   66 *D(1,2,4,20)    =    149.999991    -0.000000    -0.000000   149.999991
	   67 D(2,3,5,8)      =    179.918129     0.000000     0.284669   180.202797
	   68 D(2,3,5,9)      =     57.718128     0.000000     0.271594    57.989721
	   69 D(2,3,5,10)     =    -57.816469     0.000000     0.446663   -57.369806
	   70 D(2,4,20,21)    =    -56.348434    -0.000000     0.945938   -55.402497
	   71 D(2,4,20,22)    =   -174.542232     0.000000     0.878097  -173.664135
	   72 D(2,4,20,23)    =     66.710967     0.000000     1.537297    68.248264
	   73 D(3,2,4,20)     =    -31.304288    -0.000000    -1.937689   -33.241977
	   74 D(3,5,8,11)     =   -179.876809    -0.000000    -0.115511  -179.992320
	   75 D(3,5,8,12)     =    -57.921104     0.000000    -0.208547   -58.129651
	   76 D(3,5,8,13)     =     58.182371     0.000000     0.105118    58.287489
	   77 D(4,2,3,5)      =   -173.574134     0.000000     5.546471  -168.027663
	   78 D(4,2,3,6)      =    -50.629329     0.000000     6.621050   -44.008279
	   79 D(4,2,3,7)      =     63.810643     0.000000     4.414625    68.225269
	   80 D(5,8,11,14)    =   -179.985114     0.000000    -0.001951  -179.987065
	   81 D(5,8,11,15)    =     57.917743     0.000000     0.146862    58.064605
	   82 D(5,8,11,16)    =    -57.879091     0.000000     0.126525   -57.752566
	   83 D(6,3,5,8)      =     58.594705    -0.000000    -0.787053    57.807651
	   84 D(6,3,5,9)      =    -63.605296    -0.000000    -0.800128   -64.405425
	   85 D(6,3,5,10)     =   -179.139893    -0.000000    -0.625059  -179.764952
	   86 D(7,3,5,8)      =    -58.427521    -0.000000    -0.157775   -58.585296
	   87 D(7,3,5,9)      =    179.372478    -0.000000    -0.170850   179.201628
	   88 D(7,3,5,10)     =     63.837881     0.000000     0.004219    63.842101
	   89 D(8,11,14,17)   =    -59.965547     0.000000    -0.133150   -60.098697
	   90 D(8,11,14,18)   =   -179.993128     0.000000    -0.029398  -180.022526
	   91 D(8,11,14,19)   =     59.979261     0.000000     0.325102    60.304363
	   92 D(9,5,8,11)     =    -58.121198    -0.000000    -0.147116   -58.268313
	   93 D(9,5,8,12)     =     63.834508    -0.000000    -0.240152    63.594356
	   94 D(9,5,8,13)     =    179.937982     0.000000     0.073513   180.011495
	   95 D(10,5,8,11)    =     58.347487    -0.000000     0.076952    58.424438
	   96 D(10,5,8,12)    =   -179.696808    -0.000000    -0.016085  -179.712893
	   97 D(10,5,8,13)    =    -63.593334     0.000000     0.297581   -63.295753
	   98 D(12,8,11,14)   =     57.826135    -0.000000    -0.166775    57.659361
	   99 D(12,8,11,15)   =    -64.271008    -0.000000    -0.017962   -64.288970
	  100 D(12,8,11,16)   =    179.932158    -0.000000    -0.038299   179.893859
	  101 D(13,8,11,14)   =    -57.821040     0.000000    -0.226975   -58.048016
	  102 D(13,8,11,15)   =   -179.918184     0.000000    -0.078163  -179.996347
	  103 D(13,8,11,16)   =     64.284983     0.000000    -0.098500    64.186483
	  104 D(15,11,14,17)  =     62.029773    -0.000000    -0.374663    61.655110
	  105 D(15,11,14,18)  =    -57.997809    -0.000000    -0.270910   -58.268719
	  106 D(15,11,14,19)  =   -178.025420    -0.000000     0.083590  -177.941830
	  107 D(16,11,14,17)  =    178.031650     0.000000    -0.003743   178.027907
	  108 D(16,11,14,18)  =     58.004069    -0.000000     0.100009    58.104078
	  109 D(16,11,14,19)  =    -62.023542    -0.000000     0.454509   -61.569033
	 ---------------------------------------------------------------------------
	Successfully symmetrized geometry.

  ==> Convergence Check <==

  Measures of convergence in internal coordinates in au.
  Criteria marked as inactive (o), active & met (*), and active & unmet ( ).
  ---------------------------------------------------------------------------------------------
   Step     Total Energy     Delta E     MAX Force     RMS Force      MAX Disp      RMS Disp   
  ---------------------------------------------------------------------------------------------
    Convergence Criteria    1.00e-06 *    3.00e-04 *             o    1.20e-03 *             o
  ---------------------------------------------------------------------------------------------
      9    -423.11525353   -5.42e-07 *    1.05e-04 *    1.93e-05 o    1.16e-01      2.54e-02 o  ~
  ---------------------------------------------------------------------------------------------


  **** Optimization is complete! (in 9 steps) ****

  ==> Optimization Summary <==

  Measures of convergence in internal coordinates in au.
  --------------------------------------------------------------------------------------------------------------- ~
   Step         Total Energy             Delta E       MAX Force       RMS Force        MAX Disp        RMS Disp  ~
  --------------------------------------------------------------------------------------------------------------- ~
      1    -423.106817303733   -423.106817303733      0.06920340      0.01101114      0.31096773      0.09035902  ~
      2    -423.003261992386      0.103555311347      0.08112729      0.02372739      0.18512111      0.04785374  ~
      3    -423.092828986847     -0.089566994461      0.04241143      0.01125746      0.13461193      0.03413188  ~
      4    -423.113282335786     -0.020453348939      0.01945248      0.00310778      0.22873795      0.03695396  ~
      5    -423.113614280526     -0.000331944740      0.00708789      0.00146178      0.14706448      0.02397406  ~
      6    -423.114948374358     -0.001334093832      0.01100143      0.00162739      0.03241167      0.00547356  ~
      7    -423.115236998044     -0.000288623686      0.00245476      0.00035061      0.00614662      0.00122648  ~
      8    -423.115252985778     -0.000015987735      0.00026829      0.00005419      0.00258918      0.00056622  ~
      9    -423.115253527909     -0.000000542131      0.00010487      0.00001929      0.11555912      0.02543070  ~
  --------------------------------------------------------------------------------------------------------------- ~

	Writing optimization data to binary file.
	Final energy is   -423.1152535279088
	Final (previous) structure:
	Cartesian Geometry (in Angstrom)
	    O    -0.7737693224  -1.4910285724  -1.7718339412
	    C     0.2215476018  -1.4550539127  -1.1428268144
	    C     0.5035976449  -0.4160006185  -0.0798994640
	    O     1.1557624666  -2.3886022049  -1.3431036762
	    C    -0.6777974216   0.5081034015   0.1837627547
	    H     0.7948627290  -0.9372673318   0.8268875879
	    H     1.3704087505   0.1617723721  -0.3851578787
	    C    -0.3729959626   1.5462784293   1.2596038003
	    H    -1.5356595181  -0.0860692515   0.4761354303
	    H    -0.9552879755   1.0019869336  -0.7396019179
	    C    -1.5472760531   2.4797732645   1.5393814762
	    H    -0.0901462839   1.0428407510   2.1815896687
	    H     0.4894865552   2.1380462111   0.9600931163
	    C    -1.2440016760   3.5181200697   2.6141325308
	    H    -2.4088103208   1.8904176564   1.8399648223
	    H    -1.8301143116   2.9841517191   0.6198421707
	    H    -0.9910546371   3.0440296739   3.5567568078
	    H    -2.0973498531   4.1632433245   2.7878139516
	    H    -0.4076964913   4.1468686299   2.3267565136
	    C     2.5240809133  -2.1274963467  -1.1543056167
	    H     2.8496952447  -1.2905174559  -1.7591530680
	    H     3.0439445371  -3.0145317040  -1.4776323701
	    H     2.7641164645  -1.9394163299  -0.1161608562
	Saving final (previous) structure.
			--------------------------
			 OPTKING Finished Execution 
			--------------------------

    Final optimized geometry and variables:
    Molecular point group: c1
    Full point group: C1

    Geometry (in Angstrom), charge = 0, multiplicity = 1:

    O           -0.773769322379    -1.491028572384    -1.771833941234
    C            0.221547601751    -1.455053912749    -1.142826814362
    C            0.503597644905    -0.416000618479    -0.079899464022
    O            1.155762466608    -2.388602204939    -1.343103676229
    C           -0.677797421570     0.508103401455     0.183762754656
    H            0.794862729030    -0.937267331766     0.826887587900
    H            1.370408750519     0.161772372118    -0.385157878678
    C           -0.372995962591     1.546278429339     1.259603800318
    H           -1.535659518112    -0.086069251466     0.476135430262
    H           -0.955287975537     1.001986933595    -0.739601917861
    C           -1.547276053110     2.479773264452     1.539381476236
    H           -0.090146283853     1.042840751000     2.181589668695
    H            0.489486555224     2.138046211055     0.960093116287
    C           -1.244001675954     3.518120069672     2.614132530843
    H           -2.408810320841     1.890417656409     1.839964822337
    H           -1.830114311624     2.984151719142     0.619842170746
    H           -0.991054637128     3.044029673859     3.556756807842
    H           -2.097349853138     4.163243324503     2.787813951555
    H           -0.407696491346     4.146868629862     2.326756513589
    C            2.524080913346    -2.127496346692    -1.154305616683
    H            2.849695244684    -1.290517455868    -1.759153067974
    H            3.043944537118    -3.014531703997    -1.477632370085
    H            2.764116464511    -1.939416329867    -0.116160856192

	Cleaning optimization helper files.


Properties will be evaluated at   0.000000,   0.000000,   0.000000 Bohr

Properties computed using the  density matrix

  Nuclear Dipole Moment: (a.u.)
     X:     0.9359      Y:    12.4549      Z:    10.3892

  Electronic Dipole Moment: (a.u.)
     X:     0.3932      Y:   -11.8733      Z:    -9.5063

  Dipole Moment: (a.u.)
     X:     1.3291      Y:     0.5816      Z:     0.8829     Total:     1.6983

  Dipole Moment: (Debye)
     X:     3.3782      Y:     1.4783      Z:     2.2441     Total:     4.3167

  Quadrupole Moment: (Debye Ang)
    XX:   -52.0151     YY:   -60.6991     ZZ:   -62.1087
    XY:    -5.9746     XZ:    -5.7512     YZ:    -5.7470

  Traceless Quadrupole Moment: (Debye Ang)
    XX:     6.2592     YY:    -2.4248     ZZ:    -3.8344
    XY:    -5.9746     XZ:    -5.7512     YZ:    -5.7470

  Mulliken Charges: (a.u.)
   Center  Symbol    Alpha    Beta     Spin     Total
       1     O     4.17643  4.17643  0.00000 -0.35286
       2     C     2.80172  2.80172  0.00000  0.39655
       3     C     3.13724  3.13724  0.00000 -0.27449
       4     O     4.13536  4.13536  0.00000 -0.27073
       5     C     3.08313  3.08313  0.00000 -0.16627
       6     H     0.43802  0.43802  0.00000  0.12396
       7     H     0.44216  0.44216  0.00000  0.11568
       8     C     3.08775  3.08775  0.00000 -0.17549
       9     H     0.44411  0.44411  0.00000  0.11178
      10     H     0.44316  0.44316  0.00000  0.11369
      11     C     3.08518  3.08518  0.00000 -0.17037
      12     H     0.45617  0.45617  0.00000  0.08765
      13     H     0.45663  0.45663  0.00000  0.08673
      14     C     3.15020  3.15020  0.00000 -0.30039
      15     H     0.45241  0.45241  0.00000  0.09518
      16     H     0.45254  0.45254  0.00000  0.09493
      17     H     0.45536  0.45536  0.00000  0.08929
      18     H     0.44715  0.44715  0.00000  0.10569
      19     H     0.45551  0.45551  0.00000  0.08898
      20     C     3.04674  3.04674  0.00000 -0.09348
      21     H     0.45839  0.45839  0.00000  0.08322
      22     H     0.43380  0.43380  0.00000  0.13239
      23     H     0.46083  0.46083  0.00000  0.07834

   Total alpha = 36.00000, Total beta = 36.00000, Total charge =  0.00000


*** Psi4 exiting successfully. Buy a developer a beer!
