    -----------------------------------------------------------------------
          Psi4: An Open-Source Ab Initio Electronic Structure Package
                              Psi4 (no tag) Driver

                          Git: Rev {detached?}  

    J. M. Turney, A. C. Simmonett, R. M. Parrish, E. G. Hohenstein,
    F. A. Evangelista, J. T. Fermann, B. J. Mintz, L. A. Burns, J. J. Wilke,
    M. L. Abrams, N. J. Russ, M. L. Leininger, C. L. Janssen, E. T. Seidl,
    W. D. Allen, H. F. Schaefer, R. A. King, E. F. Valeev, C. D. Sherrill,
    and T. D. Crawford, WIREs Comput. Mol. Sci. 2, 556-565 (2012)
    (doi: 10.1002/wcms.93)

                         Additional Contributions by
    A. E. DePrince, M. Saitow, U. Bozkaya, A. Yu. Sokolov
    -----------------------------------------------------------------------


    Psi4 started on: Fri Sep  9 20:28:21 2016

    Process ID:  42068
    PSI4DATADIR: /export131/home/mjharvey/miniconda3/share
    Memory level set to 256.000 MB

  ==> Input File <==

--------------------------------------------------------------------------
set {
	reference rhf
	basis cc-pvtz
}


set_num_threads( 4 )
memory 2 gb

molecule MOL {
0 1

H	 -2.498963	 -0.741158	 -0.729149
O	 -2.346257	 -0.289210	 0.080372
C	 -1.183935	 0.486039	 -0.009831
C	 0.062853	 -0.375310	 0.027457
H	 -1.178881	 1.094526	 -0.908634
H	 -1.184406	 1.155156	 0.838676
O	 1.016632	 0.200509	 -0.803319
H	 -0.173787	 -1.387211	 -0.305640
H	 0.425903	 -0.445185	 1.050632
C	 2.232110	 -0.471984	 -0.843155
H	 2.111805	 -1.488959	 -1.209984
H	 2.885754	 0.065052	 -1.514741
H	 2.695734	 -0.513190	 0.139634

	symmetry c1
}
set optking {
	frozen_dihedral = ("
		8 4 3 5
	")
}

ee = optimize('scf')
oeprop('DIPOLE', 'QUADRUPOLE', 'MULLIKEN_CHARGES')
f=open( 'psi4out.xyz', 'w' )
f.write( "13  " )
f.write( str(ee) + "\n" )
f.write( MOL.save_string_xyz() )
f.close()
--------------------------------------------------------------------------

  Memory set to   2.000 GiB by Python script.
gradient() will perform analytic gradient computation.

*** tstart() called on cx1-27-3-1
*** at Fri Sep  9 20:28:21 2016


         ---------------------------------------------------------
                                   SCF
            by Justin Turney, Rob Parrish, and Andy Simmonett
                              RHF Reference
                        4 Threads,   2000 MiB Core
         ---------------------------------------------------------

  ==> Geometry <==

    Molecular point group: c1
    Full point group: C1

    Geometry (in Angstrom), charge = 0, multiplicity = 1:

       Center              X                  Y                   Z               Mass       
    ------------   -----------------  -----------------  -----------------  -----------------
           H         -2.435485507368    -0.635540255375    -0.411872069190     1.007825032070
           O         -2.282779507368    -0.183592255375     0.397648930810    15.994914619560
           C         -1.120457507368     0.591656744625     0.307445930810    12.000000000000
           C          0.126330492632    -0.269692255375     0.344733930810    12.000000000000
           H         -1.115403507368     1.200143744625    -0.591357069190     1.007825032070
           H         -1.120928507368     1.260773744625     1.155952930810     1.007825032070
           O          1.080109492632     0.306126744625    -0.486042069190    15.994914619560
           H         -0.110309507368    -1.281593255375     0.011636930810     1.007825032070
           H          0.489380492632    -0.339567255375     1.367908930810     1.007825032070
           C          2.295587492632    -0.366366255375    -0.525878069190    12.000000000000
           H          2.175282492632    -1.383341255375    -0.892707069190     1.007825032070
           H          2.949231492632     0.170669744625    -1.197464069190     1.007825032070
           H          2.759211492632    -0.407572255375     0.456910930810     1.007825032070

  Running in c1 symmetry.

  Rotational constants: A =      0.69773  B =      0.07353  C =      0.07129 [cm^-1]
  Rotational constants: A =  20917.51540  B =   2204.25773  C =   2137.30815 [MHz]
  Nuclear repulsion =  190.919400417195220

  Charge       = 0
  Multiplicity = 1
  Electrons    = 42
  Nalpha       = 21
  Nbeta        = 21

  ==> Algorithm <==

  SCF Algorithm Type is DF.
  DIIS enabled.
  MOM disabled.
  Fractional occupation disabled.
  Guess Type is CORE.
  Energy threshold   = 1.00e-08
  Density threshold  = 1.00e-08
  Integral threshold = 0.00e+00

  ==> Primary Basis <==

  Basis Set: CC-PVTZ
    Number of shells: 98
    Number of basis function: 262
    Number of Cartesian functions: 295
    Spherical Harmonics?: true
    Max angular momentum: 3

  ==> Pre-Iterations <==

   -------------------------------------------------------
    Irrep   Nso     Nmo     Nalpha   Nbeta   Ndocc  Nsocc
   -------------------------------------------------------
     A        262     262       0       0       0       0
   -------------------------------------------------------
    Total     262     262      21      21      21       0
   -------------------------------------------------------

 OEINTS: Overlap, kinetic, potential, dipole, and quadrupole integrals
         stored in file 35.

  ==> Integral Setup <==

  ==> DFJK: Density-Fitted J/K Matrices <==

    J tasked:                  Yes
    K tasked:                  Yes
    wK tasked:                  No
    OpenMP threads:              4
    Integrals threads:           4
    Memory (MB):              1430
    Algorithm:                Core
    Integral Cache:           NONE
    Schwarz Cutoff:          1E-12
    Fitting Condition:       1E-12

   => Auxiliary Basis Set <=

  Basis Set: 
    Number of shells: 205
    Number of basis function: 635
    Number of Cartesian functions: 760
    Spherical Harmonics?: true
    Max angular momentum: 4

  Minimum eigenvalue in the overlap matrix is 6.6461002357E-04.
  Using Symmetric Orthogonalization.
  SCF Guess: Core (One-Electron) Hamiltonian.

  ==> Iterations <==

                           Total Energy        Delta E     RMS |[F,P]|

   @DF-RHF iter   1:  -202.37703133729417   -2.02377e+02   5.23268e-02 
   @DF-RHF iter   2:  -137.50342607096519    6.48736e+01   3.51031e-02 DIIS
   @DF-RHF iter   3:  -202.96851883996510   -6.54651e+01   3.28173e-02 DIIS
   @DF-RHF iter   4:  -243.43523092258363   -4.04667e+01   2.55471e-02 DIIS
   @DF-RHF iter   5:  -266.62597244053734   -2.31907e+01   7.21477e-03 DIIS
   @DF-RHF iter   6:  -267.86714959257847   -1.24118e+00   2.72964e-03 DIIS
   @DF-RHF iter   7:  -268.05204705801759   -1.84897e-01   3.87026e-04 DIIS
   @DF-RHF iter   8:  -268.05750375239228   -5.45669e-03   1.21398e-04 DIIS
   @DF-RHF iter   9:  -268.05815615890089   -6.52407e-04   3.47901e-05 DIIS
   @DF-RHF iter  10:  -268.05820961696651   -5.34581e-05   9.17239e-06 DIIS
   @DF-RHF iter  11:  -268.05821399878397   -4.38182e-06   2.96590e-06 DIIS
   @DF-RHF iter  12:  -268.05821451530977   -5.16526e-07   1.14443e-06 DIIS
   @DF-RHF iter  13:  -268.05821458484240   -6.95326e-08   2.45196e-07 DIIS
   @DF-RHF iter  14:  -268.05821458892228   -4.07988e-09   5.92106e-08 DIIS
   @DF-RHF iter  15:  -268.05821458922765   -3.05363e-10   1.49421e-08 DIIS
   @DF-RHF iter  16:  -268.05821458924618   -1.85310e-11   3.44788e-09 DIIS

  ==> Post-Iterations <==

    Orbital Energies (a.u.)
    -----------------------

    Doubly Occupied:                                                      

       1A    -20.555962     2A    -20.549886     3A    -11.268295  
       4A    -11.267639     5A    -11.266238     6A     -1.392407  
       7A     -1.367160     8A     -1.019697     9A     -0.914838  
      10A     -0.841941    11A     -0.708958    12A     -0.680781  
      13A     -0.660636    14A     -0.632908    15A     -0.610632  
      16A     -0.566334    17A     -0.541236    18A     -0.492495  
      19A     -0.483305    20A     -0.442049    21A     -0.422341  

    Virtual:                                                              

      22A      0.140445    23A      0.156073    24A      0.178147  
      25A      0.189409    26A      0.211413    27A      0.225387  
      28A      0.238032    29A      0.255822    30A      0.270618  
      31A      0.323939    32A      0.358070    33A      0.360820  
      34A      0.389194    35A      0.396450    36A      0.478601  
      37A      0.507848    38A      0.511478    39A      0.528358  
      40A      0.554219    41A      0.577844    42A      0.591439  
      43A      0.600674    44A      0.622058    45A      0.634471  
      46A      0.644441    47A      0.649163    48A      0.660631  
      49A      0.674152    50A      0.687331    51A      0.696144  
      52A      0.705466    53A      0.746687    54A      0.767595  
      55A      0.817168    56A      0.836368    57A      0.859463  
      58A      0.890971    59A      0.907362    60A      0.917084  
      61A      0.948619    62A      0.975522    63A      0.992395  
      64A      1.047257    65A      1.096403    66A      1.130621  
      67A      1.134603    68A      1.159836    69A      1.180345  
      70A      1.188873    71A      1.192168    72A      1.226229  
      73A      1.240866    74A      1.255408    75A      1.278373  
      76A      1.287054    77A      1.309544    78A      1.348858  
      79A      1.356205    80A      1.374643    81A      1.408742  
      82A      1.424889    83A      1.435014    84A      1.474416  
      85A      1.492570    86A      1.511329    87A      1.524896  
      88A      1.533890    89A      1.552522    90A      1.570747  
      91A      1.597355    92A      1.607785    93A      1.620923  
      94A      1.651386    95A      1.699829    96A      1.720295  
      97A      1.760184    98A      1.809693    99A      1.884544  
     100A      1.899598   101A      2.104497   102A      2.182025  
     103A      2.218845   104A      2.268115   105A      2.283677  
     106A      2.310193   107A      2.357963   108A      2.384179  
     109A      2.441267   110A      2.476812   111A      2.495518  
     112A      2.580746   113A      2.596703   114A      2.633286  
     115A      2.673791   116A      2.719033   117A      2.755888  
     118A      2.791634   119A      2.835305   120A      2.889006  
     121A      2.925656   122A      2.941121   123A      3.052614  
     124A      3.059989   125A      3.076522   126A      3.105054  
     127A      3.113904   128A      3.151055   129A      3.160067  
     130A      3.208752   131A      3.223432   132A      3.239607  
     133A      3.240299   134A      3.264023   135A      3.287713  
     136A      3.312381   137A      3.325144   138A      3.334689  
     139A      3.353609   140A      3.381192   141A      3.391077  
     142A      3.430054   143A      3.450398   144A      3.457106  
     145A      3.475530   146A      3.513160   147A      3.569543  
     148A      3.586111   149A      3.600605   150A      3.611424  
     151A      3.650261   152A      3.653100   153A      3.686517  
     154A      3.701605   155A      3.730985   156A      3.741328  
     157A      3.768834   158A      3.780315   159A      3.791215  
     160A      3.820959   161A      3.838863   162A      3.863238  
     163A      3.884308   164A      3.914190   165A      3.922951  
     166A      3.935778   167A      3.974860   168A      3.998783  
     169A      4.031522   170A      4.073357   171A      4.087666  
     172A      4.110397   173A      4.148937   174A      4.159044  
     175A      4.174814   176A      4.222343   177A      4.230019  
     178A      4.247736   179A      4.274363   180A      4.307568  
     181A      4.329241   182A      4.348802   183A      4.362833  
     184A      4.370636   185A      4.399322   186A      4.422459  
     187A      4.427436   188A      4.431732   189A      4.479007  
     190A      4.512798   191A      4.545336   192A      4.566285  
     193A      4.589542   194A      4.608154   195A      4.632146  
     196A      4.685367   197A      4.711903   198A      4.755092  
     199A      4.770048   200A      4.844019   201A      4.886258  
     202A      4.925252   203A      5.021885   204A      5.047245  
     205A      5.070542   206A      5.113946   207A      5.166377  
     208A      5.188561   209A      5.214577   210A      5.239966  
     211A      5.268925   212A      5.299285   213A      5.326421  
     214A      5.369314   215A      5.427768   216A      5.435653  
     217A      5.463702   218A      5.487172   219A      5.501743  
     220A      5.531232   221A      5.567926   222A      5.597745  
     223A      5.643089   224A      5.690034   225A      5.717054  
     226A      5.792824   227A      5.805637   228A      5.916665  
     229A      5.928984   230A      5.966616   231A      6.034140  
     232A      6.130423   233A      6.201712   234A      6.220034  
     235A      6.246423   236A      6.278061   237A      6.324709  
     238A      6.399051   239A      6.531298   240A      6.612211  
     241A      6.717262   242A      6.734779   243A      6.881743  
     244A      6.958390   245A      7.071067   246A      7.167613  
     247A      7.246006   248A      7.290209   249A      7.315464  
     250A      7.358618   251A      7.413671   252A      7.495662  
     253A      7.552248   254A      7.699366   255A      7.874653  
     256A      7.898451   257A      8.026272   258A     11.206815  
     259A     12.432013   260A     13.012250   261A     13.969605  
     262A     14.233752  

    Final Occupation by Irrep:
              A 
    DOCC [    21 ]

  Energy converged.

  @DF-RHF Final Energy:  -268.05821458924618

   => Energetics <=

    Nuclear Repulsion Energy =            190.9194004171952201
    One-Electron Energy =                -744.5837556658495942
    Two-Electron Energy =                 285.6061406594081973
    DFT Exchange-Correlation Energy =       0.0000000000000000
    Empirical Dispersion Energy =           0.0000000000000000
    PCM Polarization Energy =               0.0000000000000000
    EFP Energy =                            0.0000000000000000
    Total Energy =                       -268.0582145892461767

    Alert: EFP and PCM quantities not currently incorporated into SCF psivars.

Properties will be evaluated at   0.000000,   0.000000,   0.000000 Bohr
  ==> Properties <==


Properties computed using the SCF density matrix

  Nuclear Dipole Moment: (a.u.)
     X:     3.3607      Y:    -1.3269      Z:    -0.0951

  Electronic Dipole Moment: (a.u.)
     X:    -2.8573      Y:     0.9491      Z:    -0.1830

  Dipole Moment: (a.u.)
     X:     0.5033      Y:    -0.3778      Z:    -0.2781     Total:     0.6880

  Dipole Moment: (Debye)
     X:     1.2793      Y:    -0.9601      Z:    -0.7069     Total:     1.7488


  Saving occupied orbitals to File 180.

*** tstop() called on cx1-27-3-1 at Fri Sep  9 20:28:28 2016
Module time:
	user time   =      21.11 seconds =       0.35 minutes
	system time =       0.26 seconds =       0.00 minutes
	total time  =          7 seconds =       0.12 minutes
Total time:
	user time   =      21.11 seconds =       0.35 minutes
	system time =       0.26 seconds =       0.00 minutes
	total time  =          7 seconds =       0.12 minutes

*** tstart() called on cx1-27-3-1
*** at Fri Sep  9 20:28:28 2016


         ------------------------------------------------------------
                                   SCF GRAD                          
                          Rob Parrish, Justin Turney,                
                       Andy Simmonett, and Alex Sokolov              
         ------------------------------------------------------------

  ==> Geometry <==

    Molecular point group: c1
    Full point group: C1

    Geometry (in Angstrom), charge = 0, multiplicity = 1:

       Center              X                  Y                   Z               Mass       
    ------------   -----------------  -----------------  -----------------  -----------------
           H         -2.435485507368    -0.635540255375    -0.411872069190     1.007825032070
           O         -2.282779507368    -0.183592255375     0.397648930810    15.994914619560
           C         -1.120457507368     0.591656744625     0.307445930810    12.000000000000
           C          0.126330492632    -0.269692255375     0.344733930810    12.000000000000
           H         -1.115403507368     1.200143744625    -0.591357069190     1.007825032070
           H         -1.120928507368     1.260773744625     1.155952930810     1.007825032070
           O          1.080109492632     0.306126744625    -0.486042069190    15.994914619560
           H         -0.110309507368    -1.281593255375     0.011636930810     1.007825032070
           H          0.489380492632    -0.339567255375     1.367908930810     1.007825032070
           C          2.295587492632    -0.366366255375    -0.525878069190    12.000000000000
           H          2.175282492632    -1.383341255375    -0.892707069190     1.007825032070
           H          2.949231492632     0.170669744625    -1.197464069190     1.007825032070
           H          2.759211492632    -0.407572255375     0.456910930810     1.007825032070

  Nuclear repulsion =  190.919400417195220

  ==> Basis Set <==

  Basis Set: CC-PVTZ
    Number of shells: 98
    Number of basis function: 262
    Number of Cartesian functions: 295
    Spherical Harmonics?: true
    Max angular momentum: 3

  ==> DFJKGrad: Density-Fitted SCF Gradients <==

    Gradient:                    1
    J tasked:                  Yes
    K tasked:                  Yes
    wK tasked:                  No
    OpenMP threads:              4
    Integrals threads:           4
    Memory (MB):              1430
    Schwarz Cutoff:          0E+00
    Fitting Condition:       1E-12

   => Auxiliary Basis Set <=

  Basis Set: 
    Number of shells: 205
    Number of basis function: 635
    Number of Cartesian functions: 760
    Spherical Harmonics?: true
    Max angular momentum: 4


  -Total Gradient:
     Atom            X                  Y                   Z
    ------   -----------------  -----------------  -----------------
       1       -0.000827559028    -0.000278535832     0.000173800207
       2        0.003596261229    -0.002328345519    -0.003505090499
       3        0.004655440998    -0.000137783404     0.001005964513
       4       -0.002745828450     0.002260169647     0.001986631982
       5       -0.000682548706     0.002037878472    -0.000064578480
       6        0.002809306154    -0.000940619713     0.000654933245
       7       -0.004228785594    -0.000413686939    -0.000730759383
       8        0.000111846009    -0.002026199344     0.000151637678
       9       -0.002458868163     0.002108833837     0.000831951027
      10       -0.000079847353    -0.000476531154    -0.000482062682
      11        0.000114062858     0.000079341810    -0.000091293209
      12       -0.000066403688     0.000000943470     0.000019787801
      13       -0.000197076261     0.000114534669     0.000049077800


*** tstop() called on cx1-27-3-1 at Fri Sep  9 20:28:40 2016
Module time:
	user time   =      43.58 seconds =       0.73 minutes
	system time =       0.39 seconds =       0.01 minutes
	total time  =         12 seconds =       0.20 minutes
Total time:
	user time   =      64.73 seconds =       1.08 minutes
	system time =       0.65 seconds =       0.01 minutes
	total time  =         19 seconds =       0.32 minutes
CURRENT ENERGY: -268.0582145892

			-----------------------------------------
			 OPTKING 2.0: for geometry optimizations 
			  - R.A. King,  Bethel University        
			-----------------------------------------

	Internal coordinates to be generated automatically.
	Detected frag with atoms:  1 2 3 4 5 6 7 8 9 10 11 12 13
	---Fragment 1 Bond Connectivity---
	 1 : 2
	 2 : 1 3
	 3 : 2 4 5 6
	 4 : 3 7 8 9
	 5 : 3
	 6 : 3
	 7 : 4 10
	 8 : 4
	 9 : 4
	 10 : 7 11 12 13
	 11 : 10
	 12 : 10
	 13 : 10

	Assuming in current code that numbering for constraints corresponds to unified fragment.
	Frozen dihedral atom list: 
	     8     4     3     5
	---Fragment 1 Geometry and Gradient---
	 H          -4.6024006095       -1.2009970291       -0.7783254126
	 O          -4.3138280907       -0.3469390828        0.7514475763
	 C          -2.1173578325        1.1180692120        0.5809886099
	 C           0.2387300333       -0.5096445028        0.6514527179
	 H          -2.1078071566        2.2679429974       -1.1175029075
	 H          -2.1182478935        2.3825170929        2.1844344617
	 O           2.0411111346        0.5784957093       -0.9184863998
	 H          -0.2084547588       -2.4218602664        0.0219906123
	 H           0.9247951059       -0.6416891164        2.5849732540
	 C           4.3380316752       -0.6923318870       -0.9937655301
	 H           4.1106881727       -2.6141361210       -1.6869718777
	 H           5.5732398236        0.3225190765       -2.2628791447
	 H           5.2141540638       -0.7701999420        0.8634365264
	            -0.0008275590       -0.0002785358        0.0001738002
	             0.0035962612       -0.0023283455       -0.0035050905
	             0.0046554410       -0.0001377834        0.0010059645
	            -0.0027458285        0.0022601696        0.0019866320
	            -0.0006825487        0.0020378785       -0.0000645785
	             0.0028093062       -0.0009406197        0.0006549332
	            -0.0042287856       -0.0004136869       -0.0007307594
	             0.0001118460       -0.0020261993        0.0001516377
	            -0.0024588682        0.0021088338        0.0008319510
	            -0.0000798474       -0.0004765312       -0.0004820627
	             0.0001140629        0.0000793418       -0.0000912932
	            -0.0000664037        0.0000009435        0.0000197878
	            -0.0001970763        0.0001145347        0.0000490778

	Previous optimization step data not found.  Starting new optimization.

	---Fragment 1 Intrafragment Coordinates---
	 - Coordinate -           - BOHR/RAD -       - ANG/DEG -
	 R(1,2)           =         1.775639	       0.939628
	 R(2,3)           =         2.645711	       1.400050
	 R(3,4)           =         2.864536	       1.515847
	 R(3,5)           =         2.051140	       1.085417
	 R(3,6)           =         2.042025	       1.080593
	 R(4,7)           =         2.626278	       1.389767
	 R(4,8)           =         2.062224	       1.091282
	 R(4,9)           =         2.055875	       1.087922
	 R(7,10)          =         2.626121	       1.389684
	 R(10,11)         =         2.055615	       1.087785
	 R(10,12)         =         2.041154	       1.080132
	 R(10,13)         =         2.054958	       1.087437
	 B(1,2,3)         =         1.923835	     110.227654
	 B(2,3,4)         =         1.946161	     111.506792
	 B(2,3,5)         =         1.947265	     111.570086
	 B(2,3,6)         =         1.867034	     106.973163
	 B(3,4,7)         =         1.890552	     108.320670
	 B(3,4,8)         =         1.918810	     109.939717
	 B(3,4,9)         =         1.911455	     109.518297
	 B(4,3,5)         =         1.912498	     109.578043
	 B(4,3,6)         =         1.910171	     109.444754
	 B(4,7,10)        =         2.000819	     114.638508
	 B(5,3,6)         =         1.878731	     107.643376
	 B(7,4,8)         =         1.928949	     110.520621
	 B(7,4,9)         =         1.938845	     111.087617
	 B(7,10,11)       =         1.944807	     111.429230
	 B(7,10,12)       =         1.882325	     107.849265
	 B(7,10,13)       =         1.944784	     111.427927
	 B(8,4,9)         =         1.875359	     107.450176
	 B(11,10,12)      =         1.898725	     108.788933
	 B(11,10,13)      =         1.892833	     108.451360
	 B(12,10,13)      =         1.899445	     108.830191
	 D(1,2,3,4)       =        -1.286090	     -73.687512
	 D(1,2,3,5)       =         0.858791	      49.205120
	 D(1,2,3,6)       =         2.909182	     166.683828
	 D(2,3,4,7)       =         2.528695	     144.883568
	 D(2,3,4,8)       =         0.419301	      24.024196
	 D(2,3,4,9)       =        -1.637442	     -93.818520
	 D(3,4,7,10)      =         3.117098	     178.596562
	 D(4,7,10,11)     =         1.059541	      60.707228
	 D(4,7,10,12)     =        -3.140891	    -179.959815
	 D(4,7,10,13)     =        -1.057269	     -60.577056
	 D(5,3,4,7)       =         0.364065	      20.859377
	*D(5,3,4,8)       =        -1.745329	     -99.999994
	 D(5,3,4,9)       =         2.481113	     142.157290
	 D(6,3,4,7)       =        -1.692293	     -96.961240
	 D(6,3,4,8)       =         2.481498	     142.179388
	 D(6,3,4,9)       =         0.424755	      24.336672
	 D(8,4,7,10)      =        -1.062991	     -60.904920
	 D(9,4,7,10)      =         1.017042	      58.272225

	Current energy   :      -268.0582145892

	Generating empirical Hessian (Schlegel '84) for each fragment.
	Taking RFO optimization step.
	Going to follow RFO solution 1.
	Using RFO vector 1.
	Norm of target step-size    0.18833
	Projected energy change by RFO approximation:        -0.0035123775

	Back-transformation to cartesian coordinates...
	Successfully converged to displaced geometry.

	Back-transformation to cartesian coordinates to adjust frozen coordinates...
	Successfully converged to displaced geometry.

	--- Internal Coordinate Step in ANG or DEG, aJ/ANG or AJ/DEG ---
	 ---------------------------------------------------------------------------
	   Coordinate                Previous        Force       Change         New 
	   ----------                --------       ------       ------       ------
	    1 R(1,2)          =      0.939628    -0.000978    -0.000104     0.939524
	    2 R(2,3)          =      1.400050     0.008813     0.001237     1.401287
	    3 R(3,4)          =      1.515847     0.072081     0.014970     1.530818
	    4 R(3,5)          =      1.085417    -0.009827    -0.001778     1.083639
	    5 R(3,6)          =      1.080593     0.000572     0.000102     1.080695
	    6 R(4,7)          =      1.389767     0.021497     0.002906     1.392672
	    7 R(4,8)          =      1.091282    -0.014898    -0.002748     1.088534
	    8 R(4,9)          =      1.087922     0.001430     0.000261     1.088183
	    9 R(7,10)         =      1.389684     0.000410     0.000055     1.389739
	   10 R(10,11)        =      1.087785     0.000461     0.000084     1.087869
	   11 R(10,12)        =      1.080132     0.000429     0.000076     1.080209
	   12 R(10,13)        =      1.087437     0.000363     0.000066     1.087503
	   13 B(1,2,3)        =    110.227654    -0.000117    -0.544543   109.683111
	   14 B(2,3,4)        =    111.506792     0.000430     1.826379   113.333171
	   15 B(2,3,5)        =    111.570086    -0.000025     1.123944   112.694030
	   16 B(2,3,6)        =    106.973163    -0.000346    -1.730449   105.242714
	   17 B(3,4,7)        =    108.320670     0.000305     1.453397   109.774067
	   18 B(3,4,8)        =    109.939717    -0.000163    -0.500909   109.438807
	   19 B(3,4,9)        =    109.518297     0.000186     0.778508   110.296805
	   20 B(4,3,5)        =    109.578043    -0.000268    -1.005386   108.572656
	   21 B(4,3,6)        =    109.444754     0.000177     0.758964   110.203718
	   22 B(4,7,10)       =    114.638508    -0.000013    -0.039527   114.598981
	   23 B(5,3,6)        =    107.643376     0.000026    -1.105095   106.538280
	   24 B(7,4,8)        =    110.520621    -0.000002     1.246312   111.766933
	   25 B(7,4,9)        =    111.087617    -0.000301    -1.626246   109.461371
	   26 B(7,10,11)      =    111.429230    -0.000017    -0.088866   111.340363
	   27 B(7,10,12)      =    107.849265     0.000005     0.028805   107.878070
	   28 B(7,10,13)      =    111.427927     0.000026     0.124199   111.552126
	   29 B(8,4,9)        =    107.450176    -0.000029    -1.405125   106.045051
	   30 B(11,10,12)     =    108.788933     0.000004     0.016793   108.805726
	   31 B(11,10,13)     =    108.451360    -0.000010    -0.056573   108.394787
	   32 B(12,10,13)     =    108.830191    -0.000008    -0.024577   108.805614
	   33 D(1,2,3,4)      =    -73.687512     0.000025     0.840984   -72.846527
	   34 D(1,2,3,5)      =     49.205120     0.000012     1.753584    50.958704
	   35 D(1,2,3,6)      =    166.683828    -0.000032    -0.019494   166.664334
	   36 D(2,3,4,7)      =    144.883568     0.000037     4.154206   149.037774
	   37 D(2,3,4,8)      =     24.024196     0.000017     2.004843    26.029040
	   38 D(2,3,4,9)      =    -93.818520     0.000022     3.550183   -90.268336
	   39 D(3,4,7,10)     =    178.596562     0.000013    -2.756269   175.840293
	   40 D(4,7,10,11)    =     60.707228    -0.000002    -0.588567    60.118661
	   41 D(4,7,10,12)    =   -179.959815    -0.000002    -0.602239  -180.562054
	   42 D(4,7,10,13)    =    -60.577056    -0.000000    -0.540621   -61.117677
	   43 D(5,3,4,7)      =     20.859377     0.000020     2.149363    23.008740
	   44 *D(5,3,4,8)     =    -99.999994    -0.000000     0.000000   -99.999994
	   45 D(5,3,4,9)      =    142.157290     0.000005     1.545340   143.702629
	   46 D(6,3,4,7)      =    -96.961240     0.000025     3.633981   -93.327259
	   47 D(6,3,4,8)      =    142.179388     0.000005     1.484618   143.664006
	   48 D(6,3,4,9)      =     24.336672     0.000010     3.029958    27.366630
	   49 D(8,4,7,10)     =    -60.904920     0.000011    -1.629731   -62.534651
	   50 D(9,4,7,10)     =     58.272225    -0.000043    -3.629648    54.642577
	 ---------------------------------------------------------------------------

  ==> Convergence Check <==

  Measures of convergence in internal coordinates in au.
  Criteria marked as inactive (o), active & met (*), and active & unmet ( ).
  --------------------------------------------------------------------------------------------- ~
   Step     Total Energy     Delta E     MAX Force     RMS Force      MAX Disp      RMS Disp    ~
  --------------------------------------------------------------------------------------------- ~
    Convergence Criteria    1.00e-06 *    3.00e-04 *             o    1.20e-03 *             o  ~
  --------------------------------------------------------------------------------------------- ~
      1    -268.05821459   -2.68e+02      8.75e-03      2.14e-03 o    7.25e-02      2.66e-02 o  ~
  ---------------------------------------------------------------------------------------------

	Writing optimization data to binary file.
	Structure for next step:
	Cartesian Geometry (in Angstrom)
	    H    -2.5028765220  -0.6229905198  -0.3395755550
	    O    -2.3172085893  -0.1525068688   0.4521801546
	    C    -1.1357599845   0.5848615316   0.2970285264
	    C     0.1251047310  -0.2832530565   0.2963551947
	    H    -1.1369401817   1.1924685161  -0.6002369381
	    H    -1.1166910463   1.2700530388   1.1325230289
	    O     1.0995178930   0.3017944962  -0.5084893200
	    H    -0.1266547229  -1.2874618076  -0.0399298963
	    H     0.5087499643  -0.3924538634   1.3087949275
	    C     2.3222873521  -0.3586667505  -0.5092080195
	    H     2.2198963358  -1.3808587748  -0.8671154561
	    H     2.9879786944   0.1767208095  -1.1703175760
	    H     2.7623657620  -0.3856011728   0.4849090246
			--------------------------
			 OPTKING Finished Execution 
			--------------------------

    Structure for next step:
    Molecular point group: c1
    Full point group: C1

    Geometry (in Angstrom), charge = 0, multiplicity = 1:

    H           -2.501386466924    -0.626433215482    -0.339809420477
    O           -2.315718548424    -0.155949600397     0.451946228628
    C           -1.134270033775     0.581418743611     0.296794612262
    C            0.126594585408    -0.286695778135     0.296121280688
    H           -1.135450230912     1.189025681709    -0.600470783647
    H           -1.115201097052     1.266610198502     1.132289050989
    O            1.101007672969     0.298351729885    -0.508723172545
    H           -0.125164849322    -1.290904452525    -0.040163784708
    H            0.510239789448    -0.395896576689     1.308560936112
    C            2.323777038723    -0.362109466442    -0.509441872006
    H            2.221386030236    -1.384301412673    -0.867349281267
    H            2.989468330204     0.173278052763    -1.170551378060
    H            2.763855415034    -0.389043886667     0.484675096113

gradient() will perform analytic gradient computation.

*** tstart() called on cx1-27-3-1
*** at Fri Sep  9 20:28:40 2016


         ---------------------------------------------------------
                                   SCF
            by Justin Turney, Rob Parrish, and Andy Simmonett
                              RHF Reference
                        4 Threads,   2000 MiB Core
         ---------------------------------------------------------

  ==> Geometry <==

    Molecular point group: c1
    Full point group: C1

    Geometry (in Angstrom), charge = 0, multiplicity = 1:

       Center              X                  Y                   Z               Mass       
    ------------   -----------------  -----------------  -----------------  -----------------
           H         -2.501386466924    -0.626433215482    -0.339809420477     1.007825032070
           O         -2.315718548424    -0.155949600397     0.451946228628    15.994914619560
           C         -1.134270033775     0.581418743611     0.296794612262    12.000000000000
           C          0.126594585408    -0.286695778135     0.296121280688    12.000000000000
           H         -1.135450230912     1.189025681709    -0.600470783647     1.007825032070
           H         -1.115201097052     1.266610198502     1.132289050989     1.007825032070
           O          1.101007672969     0.298351729885    -0.508723172545    15.994914619560
           H         -0.125164849322    -1.290904452525    -0.040163784708     1.007825032070
           H          0.510239789448    -0.395896576689     1.308560936112     1.007825032070
           C          2.323777038723    -0.362109466442    -0.509441872006    12.000000000000
           H          2.221386030236    -1.384301412673    -0.867349281267     1.007825032070
           H          2.989468330204     0.173278052763    -1.170551378060     1.007825032070
           H          2.763855415034    -0.389043886667     0.484675096113     1.007825032070

  Running in c1 symmetry.

  Rotational constants: A =      0.72775  B =      0.07167  C =      0.06935 [cm^-1]
  Rotational constants: A =  21817.28586  B =   2148.48274  C =   2079.11847 [MHz]
  Nuclear repulsion =  189.901480107943314

  Charge       = 0
  Multiplicity = 1
  Electrons    = 42
  Nalpha       = 21
  Nbeta        = 21

  ==> Algorithm <==

  SCF Algorithm Type is DF.
  DIIS enabled.
  MOM disabled.
  Fractional occupation disabled.
  Guess Type is READ.
  Energy threshold   = 1.00e-08
  Density threshold  = 1.00e-08
  Integral threshold = 0.00e+00

  ==> Primary Basis <==

  Basis Set: CC-PVTZ
    Number of shells: 98
    Number of basis function: 262
    Number of Cartesian functions: 295
    Spherical Harmonics?: true
    Max angular momentum: 3

  ==> Pre-Iterations <==

   -------------------------------------------------------
    Irrep   Nso     Nmo     Nalpha   Nbeta   Ndocc  Nsocc
   -------------------------------------------------------
     A        262     262       0       0       0       0
   -------------------------------------------------------
    Total     262     262      21      21      21       0
   -------------------------------------------------------

 OEINTS: Overlap, kinetic, potential, dipole, and quadrupole integrals
         stored in file 35.

  ==> Integral Setup <==

  ==> DFJK: Density-Fitted J/K Matrices <==

    J tasked:                  Yes
    K tasked:                  Yes
    wK tasked:                  No
    OpenMP threads:              4
    Integrals threads:           4
    Memory (MB):              1430
    Algorithm:                Core
    Integral Cache:           NONE
    Schwarz Cutoff:          1E-12
    Fitting Condition:       1E-12

   => Auxiliary Basis Set <=

  Basis Set: 
    Number of shells: 205
    Number of basis function: 635
    Number of Cartesian functions: 760
    Spherical Harmonics?: true
    Max angular momentum: 4

  Minimum eigenvalue in the overlap matrix is 6.9810195840E-04.
  Using Symmetric Orthogonalization.
  SCF Guess: Reading in previously saved MOs, projecting if necessary.

  Using orbitals from previous SCF, no projection.
  Recomputing DOCC and SOCC from number of alpha and beta electrons from previous calculation.
              A 
    DOCC [    21 ]

  ==> Iterations <==

                           Total Energy        Delta E     RMS |[F,P]|

   @DF-RHF iter   0:  -268.04717122592388   -2.68047e+02   4.08315e-04 
   @DF-RHF iter   1:  -268.05839128458348   -1.12201e-02   6.19896e-05 
   @DF-RHF iter   2:  -268.05860990588957   -2.18621e-04   2.23274e-05 DIIS
   @DF-RHF iter   3:  -268.05864195415063   -3.20483e-05   1.04324e-05 DIIS
   @DF-RHF iter   4:  -268.05864589419207   -3.94004e-06   2.02249e-06 DIIS
   @DF-RHF iter   5:  -268.05864618657199   -2.92380e-07   7.22430e-07 DIIS
   @DF-RHF iter   6:  -268.05864622315090   -3.65789e-08   2.52586e-07 DIIS
   @DF-RHF iter   7:  -268.05864622736959   -4.21869e-09   5.72521e-08 DIIS
   @DF-RHF iter   8:  -268.05864622761572   -2.46132e-10   1.84275e-08 DIIS
   @DF-RHF iter   9:  -268.05864622763249   -1.67688e-11   5.87697e-09 DIIS

  ==> Post-Iterations <==

    Orbital Energies (a.u.)
    -----------------------

    Doubly Occupied:                                                      

       1A    -20.556820     2A    -20.552876     3A    -11.270585  
       4A    -11.268463     5A    -11.268295     6A     -1.391321  
       7A     -1.368506     8A     -1.017110     9A     -0.915481  
      10A     -0.843919    11A     -0.709408    12A     -0.679028  
      13A     -0.660571    14A     -0.633466    15A     -0.608065  
      16A     -0.567291    17A     -0.542116    18A     -0.492737  
      19A     -0.485758    20A     -0.441487    21A     -0.423029  

    Virtual:                                                              

      22A      0.140189    23A      0.155276    24A      0.179483  
      25A      0.189817    26A      0.210513    27A      0.225316  
      28A      0.237825    29A      0.256464    30A      0.269295  
      31A      0.325621    32A      0.355742    33A      0.365855  
      34A      0.388945    35A      0.397411    36A      0.475474  
      37A      0.504853    38A      0.510433    39A      0.526884  
      40A      0.555178    41A      0.577832    42A      0.592455  
      43A      0.599347    44A      0.620528    45A      0.633135  
      46A      0.643480    47A      0.648894    48A      0.659469  
      49A      0.669340    50A      0.686020    51A      0.696280  
      52A      0.701325    53A      0.745855    54A      0.763748  
      55A      0.810677    56A      0.838201    57A      0.853476  
      58A      0.892500    59A      0.909534    60A      0.918751  
      61A      0.942048    62A      0.977705    63A      0.993638  
      64A      1.040376    65A      1.092699    66A      1.128039  
      67A      1.132002    68A      1.145674    69A      1.181438  
      70A      1.188049    71A      1.193489    72A      1.224281  
      73A      1.242936    74A      1.258096    75A      1.275223  
      76A      1.287010    77A      1.308320    78A      1.349230  
      79A      1.354749    80A      1.379934    81A      1.405060  
      82A      1.423276    83A      1.434144    84A      1.474823  
      85A      1.492689    86A      1.509851    87A      1.517328  
      88A      1.537011    89A      1.552479    90A      1.573478  
      91A      1.597977    92A      1.608318    93A      1.618059  
      94A      1.654991    95A      1.696360    96A      1.721126  
      97A      1.756567    98A      1.813524    99A      1.882098  
     100A      1.896651   101A      2.102672   102A      2.181287  
     103A      2.224115   104A      2.256524   105A      2.291156  
     106A      2.311868   107A      2.355935   108A      2.376386  
     109A      2.436769   110A      2.472622   111A      2.493325  
     112A      2.588204   113A      2.596434   114A      2.629474  
     115A      2.668886   116A      2.713733   117A      2.749818  
     118A      2.776295   119A      2.834382   120A      2.887646  
     121A      2.918295   122A      2.935615   123A      3.046483  
     124A      3.060375   125A      3.070118   126A      3.104147  
     127A      3.115875   128A      3.145363   129A      3.155107  
     130A      3.207056   131A      3.222344   132A      3.236037  
     133A      3.238912   134A      3.265585   135A      3.287248  
     136A      3.307663   137A      3.313366   138A      3.324176  
     139A      3.351215   140A      3.379471   141A      3.388925  
     142A      3.426161   143A      3.449231   144A      3.455191  
     145A      3.470412   146A      3.513078   147A      3.565136  
     148A      3.586425   149A      3.601220   150A      3.614488  
     151A      3.646970   152A      3.652604   153A      3.683395  
     154A      3.698875   155A      3.732384   156A      3.740422  
     157A      3.765410   158A      3.771872   159A      3.794597  
     160A      3.817617   161A      3.837695   162A      3.857353  
     163A      3.879674   164A      3.908772   165A      3.917888  
     166A      3.933281   167A      3.966132   168A      3.993331  
     169A      4.029841   170A      4.067661   171A      4.090770  
     172A      4.103354   173A      4.142136   174A      4.158580  
     175A      4.172586   176A      4.213009   177A      4.223319  
     178A      4.255437   179A      4.273914   180A      4.303366  
     181A      4.328830   182A      4.346701   183A      4.358335  
     184A      4.374142   185A      4.404741   186A      4.416245  
     187A      4.424948   188A      4.432516   189A      4.489579  
     190A      4.506527   191A      4.546682   192A      4.562270  
     193A      4.595801   194A      4.612951   195A      4.621251  
     196A      4.666236   197A      4.699649   198A      4.750075  
     199A      4.762148   200A      4.834186   201A      4.876833  
     202A      4.938161   203A      5.019170   204A      5.044163  
     205A      5.073643   206A      5.113826   207A      5.156464  
     208A      5.184169   209A      5.206539   210A      5.238614  
     211A      5.251874   212A      5.298005   213A      5.325441  
     214A      5.369636   215A      5.426145   216A      5.439008  
     217A      5.468813   218A      5.478844   219A      5.502170  
     220A      5.538577   221A      5.573006   222A      5.593849  
     223A      5.641896   224A      5.691736   225A      5.715147  
     226A      5.790772   227A      5.803056   228A      5.902890  
     229A      5.920417   230A      5.959809   231A      6.030411  
     232A      6.124104   233A      6.190641   234A      6.217620  
     235A      6.248372   236A      6.285190   237A      6.325260  
     238A      6.404140   239A      6.527923   240A      6.603202  
     241A      6.701444   242A      6.733464   243A      6.879441  
     244A      6.949681   245A      7.065688   246A      7.165853  
     247A      7.241831   248A      7.288329   249A      7.315673  
     250A      7.358170   251A      7.410683   252A      7.496288  
     253A      7.544867   254A      7.687364   255A      7.874551  
     256A      7.897004   257A      8.023104   258A     11.161905  
     259A     12.431463   260A     12.965342   261A     13.841303  
     262A     14.196786  

    Final Occupation by Irrep:
              A 
    DOCC [    21 ]

  Energy converged.

  @DF-RHF Final Energy:  -268.05864622763249

   => Energetics <=

    Nuclear Repulsion Energy =            189.9014801079433141
    One-Electron Energy =                -742.5275870377004139
    Two-Electron Energy =                 284.5674607021246061
    DFT Exchange-Correlation Energy =       0.0000000000000000
    Empirical Dispersion Energy =           0.0000000000000000
    PCM Polarization Energy =               0.0000000000000000
    EFP Energy =                            0.0000000000000000
    Total Energy =                       -268.0586462276324369

    Alert: EFP and PCM quantities not currently incorporated into SCF psivars.

Properties will be evaluated at   0.000000,   0.000000,   0.000000 Bohr
  ==> Properties <==


Properties computed using the SCF density matrix

  Nuclear Dipole Moment: (a.u.)
     X:     3.3763      Y:    -1.3658      Z:    -0.0873

  Electronic Dipole Moment: (a.u.)
     X:    -2.8954      Y:     0.9578      Z:    -0.2002

  Dipole Moment: (a.u.)
     X:     0.4809      Y:    -0.4080      Z:    -0.2875     Total:     0.6931

  Dipole Moment: (Debye)
     X:     1.2222      Y:    -1.0371      Z:    -0.7307     Total:     1.7617


  Saving occupied orbitals to File 180.

*** tstop() called on cx1-27-3-1 at Fri Sep  9 20:28:47 2016
Module time:
	user time   =      18.68 seconds =       0.31 minutes
	system time =       0.22 seconds =       0.00 minutes
	total time  =          7 seconds =       0.12 minutes
Total time:
	user time   =      84.72 seconds =       1.41 minutes
	system time =       0.93 seconds =       0.02 minutes
	total time  =         26 seconds =       0.43 minutes

*** tstart() called on cx1-27-3-1
*** at Fri Sep  9 20:28:47 2016


         ------------------------------------------------------------
                                   SCF GRAD                          
                          Rob Parrish, Justin Turney,                
                       Andy Simmonett, and Alex Sokolov              
         ------------------------------------------------------------

  ==> Geometry <==

    Molecular point group: c1
    Full point group: C1

    Geometry (in Angstrom), charge = 0, multiplicity = 1:

       Center              X                  Y                   Z               Mass       
    ------------   -----------------  -----------------  -----------------  -----------------
           H         -2.501386466924    -0.626433215482    -0.339809420477     1.007825032070
           O         -2.315718548424    -0.155949600397     0.451946228628    15.994914619560
           C         -1.134270033775     0.581418743611     0.296794612262    12.000000000000
           C          0.126594585408    -0.286695778135     0.296121280688    12.000000000000
           H         -1.135450230912     1.189025681709    -0.600470783647     1.007825032070
           H         -1.115201097052     1.266610198502     1.132289050989     1.007825032070
           O          1.101007672969     0.298351729885    -0.508723172545    15.994914619560
           H         -0.125164849322    -1.290904452525    -0.040163784708     1.007825032070
           H          0.510239789448    -0.395896576689     1.308560936112     1.007825032070
           C          2.323777038723    -0.362109466442    -0.509441872006    12.000000000000
           H          2.221386030236    -1.384301412673    -0.867349281267     1.007825032070
           H          2.989468330204     0.173278052763    -1.170551378060     1.007825032070
           H          2.763855415034    -0.389043886667     0.484675096113     1.007825032070

  Nuclear repulsion =  189.901480107943314

  ==> Basis Set <==

  Basis Set: CC-PVTZ
    Number of shells: 98
    Number of basis function: 262
    Number of Cartesian functions: 295
    Spherical Harmonics?: true
    Max angular momentum: 3

  ==> DFJKGrad: Density-Fitted SCF Gradients <==

    Gradient:                    1
    J tasked:                  Yes
    K tasked:                  Yes
    wK tasked:                  No
    OpenMP threads:              4
    Integrals threads:           4
    Memory (MB):              1430
    Schwarz Cutoff:          0E+00
    Fitting Condition:       1E-12

   => Auxiliary Basis Set <=

  Basis Set: 
    Number of shells: 205
    Number of basis function: 635
    Number of Cartesian functions: 760
    Spherical Harmonics?: true
    Max angular momentum: 4


  -Total Gradient:
     Atom            X                  Y                   Z
    ------   -----------------  -----------------  -----------------
       1        0.000630831578     0.000852096343     0.000134739266
       2       -0.003613698041     0.000185164504     0.002018604350
       3       -0.002718707436    -0.004357781771    -0.003427901917
       4        0.000623411643     0.001611184214    -0.005558303430
       5        0.002115441150     0.002826607249     0.002820658225
       6       -0.001708043971    -0.000451240072     0.000007220723
       7        0.003331805156    -0.000776499529     0.000563963995
       8       -0.000473339897    -0.000550324723     0.004465050366
       9        0.001203344563     0.000303925522    -0.000784493020
      10        0.000426517606     0.000578934462    -0.000142775692
      11       -0.000196672152    -0.000025371836    -0.000004949309
      12        0.000203469750    -0.000091076479    -0.000011474812
      13        0.000175640050    -0.000105617884    -0.000080338747


*** tstop() called on cx1-27-3-1 at Fri Sep  9 20:28:58 2016
Module time:
	user time   =      43.68 seconds =       0.73 minutes
	system time =       0.37 seconds =       0.01 minutes
	total time  =         11 seconds =       0.18 minutes
Total time:
	user time   =     128.41 seconds =       2.14 minutes
	system time =       1.30 seconds =       0.02 minutes
	total time  =         37 seconds =       0.62 minutes
CURRENT ENERGY: -268.0586462276

			-----------------------------------------
			 OPTKING 2.0: for geometry optimizations 
			  - R.A. King,  Bethel University        
			-----------------------------------------

	Previous internal coordinate definitions found.
	---Fragment 1 Geometry and Gradient---
	 H          -4.7269353750       -1.1837872178       -0.6421467421
	 O          -4.3760738574       -0.2947020353        0.8540545989
	 C          -2.1434597246        1.0987221940        0.5608605349
	 C           0.2392290963       -0.5417765041        0.5595881226
	 H          -2.1456899739        2.2469329034       -1.1347253319
	 H          -2.1074246565        2.3935463923        2.1397162096
	 O           2.0806029721        0.5638030608       -0.9613474736
	 H          -0.2365272867       -2.4394558790       -0.0758985536
	 H           0.9642134642       -0.7481361069        2.4728217974
	 C           4.3913021971       -0.6842877217       -0.9627056187
	 H           4.1978112326       -2.6159505553       -1.6390526031
	 H           5.6492764270        0.3274480646       -2.2120215290
	 H           5.2229298053       -0.7351863995        0.9159031951
	             0.0006308316        0.0008520963        0.0001347393
	            -0.0036136980        0.0001851645        0.0020186044
	            -0.0027187074       -0.0043577818       -0.0034279019
	             0.0006234116        0.0016111842       -0.0055583034
	             0.0021154412        0.0028266072        0.0028206582
	            -0.0017080440       -0.0004512401        0.0000072207
	             0.0033318052       -0.0007764995        0.0005639640
	            -0.0004733399       -0.0005503247        0.0044650504
	             0.0012033446        0.0003039255       -0.0007844930
	             0.0004265176        0.0005789345       -0.0001427757
	            -0.0001966722       -0.0000253718       -0.0000049493
	             0.0002034698       -0.0000910765       -0.0000114748
	             0.0001756401       -0.0001056179       -0.0000803387

	---Fragment 1 Intrafragment Coordinates---
	 - Coordinate -           - BOHR/RAD -       - ANG/DEG -
	 R(1,2)           =         1.775442	       0.939524
	 R(2,3)           =         2.648048	       1.401287
	 R(3,4)           =         2.892826	       1.530818
	 R(3,5)           =         2.047780	       1.083639
	 R(3,6)           =         2.042218	       1.080695
	 R(4,7)           =         2.631769	       1.392672
	 R(4,8)           =         2.057030	       1.088534
	 R(4,9)           =         2.056368	       1.088183
	 R(7,10)          =         2.626226	       1.389739
	 R(10,11)         =         2.055774	       1.087869
	 R(10,12)         =         2.041298	       1.080209
	 R(10,13)         =         2.055083	       1.087503
	 B(1,2,3)         =         1.914331	     109.683111
	 B(2,3,4)         =         1.978037	     113.333171
	 B(2,3,5)         =         1.966882	     112.694030
	 B(2,3,6)         =         1.836832	     105.242714
	 B(3,4,7)         =         1.915919	     109.774067
	 B(3,4,8)         =         1.910068	     109.438807
	 B(3,4,9)         =         1.925042	     110.296805
	 B(4,3,5)         =         1.894950	     108.572656
	 B(4,3,6)         =         1.923418	     110.203718
	 B(4,7,10)        =         2.000130	     114.598981
	 B(5,3,6)         =         1.859444	     106.538280
	 B(7,4,8)         =         1.950701	     111.766933
	 B(7,4,9)         =         1.910461	     109.461371
	 B(7,10,11)       =         1.943256	     111.340363
	 B(7,10,12)       =         1.882828	     107.878070
	 B(7,10,13)       =         1.946952	     111.552126
	 B(8,4,9)         =         1.850835	     106.045051
	 B(11,10,12)      =         1.899018	     108.805726
	 B(11,10,13)      =         1.891846	     108.394787
	 B(12,10,13)      =         1.899016	     108.805614
	 D(1,2,3,4)       =        -1.271412	     -72.846527
	 D(1,2,3,5)       =         0.889397	      50.958704
	 D(1,2,3,6)       =         2.908841	     166.664334
	 D(2,3,4,7)       =         2.601200	     149.037774
	 D(2,3,4,8)       =         0.454292	      26.029040
	 D(2,3,4,9)       =        -1.575480	     -90.268336
	 D(3,4,7,10)      =         3.068992	     175.840293
	 D(4,7,10,11)     =         1.049269	      60.118661
	 D(4,7,10,12)     =         3.131783	     179.437946
	 D(4,7,10,13)     =        -1.066705	     -61.117677
	 D(5,3,4,7)       =         0.401578	      23.008740
	*D(5,3,4,8)       =        -1.745329	     -99.999994
	 D(5,3,4,9)       =         2.508084	     143.702629
	 D(6,3,4,7)       =        -1.628868	     -93.327259
	 D(6,3,4,8)       =         2.507410	     143.664006
	 D(6,3,4,9)       =         0.477638	      27.366630
	 D(8,4,7,10)      =        -1.091436	     -62.534651
	 D(9,4,7,10)      =         0.953693	      54.642577

	Current energy   :      -268.0586462276

	Energy change for the previous step:
		Projected    :        -0.0035123775
		Actual       :        -0.0004316384
	Energy ratio indicates iffy step: Trust radius decreased to 1.250e-01.


	Performing BFGS update.
	Previous computed or guess Hessian on step 1.
	Steps to be used in Hessian update: 1
	Taking RFO optimization step.
	Going to follow RFO solution 1.
	Using RFO vector 1.
	Norm of target step-size    0.06019
	Projected energy change by RFO approximation:        -0.0003841278

	Back-transformation to cartesian coordinates...
	Successfully converged to displaced geometry.

	Back-transformation to cartesian coordinates to adjust frozen coordinates...
	Successfully converged to displaced geometry.

	--- Internal Coordinate Step in ANG or DEG, aJ/ANG or AJ/DEG ---
	 ---------------------------------------------------------------------------
	   Coordinate                Previous        Force       Change         New 
	   ----------                --------       ------       ------       ------
	    1 R(1,2)          =      0.939524     0.005478     0.000403     0.939927
	    2 R(2,3)          =      1.401287    -0.018187    -0.001729     1.399558
	    3 R(3,4)          =      1.530818    -0.031515    -0.003900     1.526917
	    4 R(3,5)          =      1.083639     0.006203     0.000705     1.084343
	    5 R(3,6)          =      1.080695     0.002559     0.000324     1.081019
	    6 R(4,7)          =      1.392672    -0.019719    -0.001733     1.390939
	    7 R(4,8)          =      1.088534     0.006280     0.000686     1.089220
	    8 R(4,9)          =      1.088183     0.002769     0.000365     1.088549
	    9 R(7,10)         =      1.389739    -0.003018    -0.000283     1.389456
	   10 R(10,11)        =      1.087869    -0.000362    -0.000042     1.087826
	   11 R(10,12)        =      1.080209    -0.000719    -0.000086     1.080123
	   12 R(10,13)        =      1.087503    -0.000002     0.000003     1.087506
	   13 B(1,2,3)        =    109.683111     0.000106     0.322902   110.006013
	   14 B(2,3,4)        =    113.333171    -0.000271    -0.619890   112.713281
	   15 B(2,3,5)        =    112.694030     0.000079    -0.063492   112.630539
	   16 B(2,3,6)        =    105.242714     0.000208     0.822005   106.064719
	   17 B(3,4,7)        =    109.774067    -0.000289    -0.687213   109.086854
	   18 B(3,4,8)        =    109.438807     0.000063    -0.051944   109.386864
	   19 B(3,4,9)        =    110.296805    -0.000011    -0.006956   110.289849
	   20 B(4,3,5)        =    108.572656     0.000064    -0.105424   108.467233
	   21 B(4,3,6)        =    110.203718    -0.000040    -0.064158   110.139560
	   22 B(4,7,10)       =    114.598981    -0.000092    -0.194633   114.404348
	   23 B(5,3,6)        =    106.538280    -0.000026     0.090405   106.628685
	   24 B(7,4,8)        =    111.766933     0.000083    -0.024259   111.742674
	   25 B(7,4,9)        =    109.461371     0.000197     0.730439   110.191810
	   26 B(7,10,11)      =    111.340363     0.000033     0.112470   111.452833
	   27 B(7,10,12)      =    107.878070    -0.000025    -0.085826   107.792244
	   28 B(7,10,13)      =    111.552126    -0.000026    -0.082344   111.469782
	   29 B(8,4,9)        =    106.045051    -0.000032     0.067960   106.113011
	   30 B(11,10,12)     =    108.805726     0.000001     0.012101   108.817827
	   31 B(11,10,13)     =    108.394787     0.000004     0.022694   108.417481
	   32 B(12,10,13)     =    108.805614     0.000013     0.021068   108.826683
	   33 D(1,2,3,4)      =    -72.846527     0.000003     1.580398   -71.266129
	   34 D(1,2,3,5)      =     50.958704    -0.000012     0.905013    51.863717
	   35 D(1,2,3,6)      =    166.664334     0.000018     1.474919   168.139253
	   36 D(2,3,4,7)      =    149.037774    -0.000020    -1.116149   147.921625
	   37 D(2,3,4,8)      =     26.029040    -0.000010    -0.608532    25.420507
	   38 D(2,3,4,9)      =    -90.268336    -0.000008    -0.656399   -90.924735
	   39 D(3,4,7,10)     =    175.840293    -0.000001    -0.406290   175.434003
	   40 D(4,7,10,11)    =     60.118661     0.000001     0.095169    60.213830
	   41 D(4,7,10,12)    =    179.437946     0.000002     0.122172   179.560118
	   42 D(4,7,10,13)    =    -61.117677    -0.000001     0.044925   -61.072752
	   43 D(5,3,4,7)      =     23.008740    -0.000010    -0.507617    22.501123
	   44 *D(5,3,4,8)     =    -99.999994    -0.000000    -0.000000   -99.999994
	   45 D(5,3,4,9)      =    143.702629     0.000002    -0.047867   143.654763
	   46 D(6,3,4,7)      =    -93.327259    -0.000006    -0.519888   -93.847147
	   47 D(6,3,4,8)      =    143.664006     0.000004    -0.012272   143.651735
	   48 D(6,3,4,9)      =     27.366630     0.000006    -0.060138    27.306492
	   49 D(8,4,7,10)     =    -62.534651    -0.000016    -0.956509   -63.491159
	   50 D(9,4,7,10)     =     54.642577     0.000015    -0.421943    54.220634
	 ---------------------------------------------------------------------------

  ==> Convergence Check <==

  Measures of convergence in internal coordinates in au.
  Criteria marked as inactive (o), active & met (*), and active & unmet ( ).
  ---------------------------------------------------------------------------------------------
   Step     Total Energy     Delta E     MAX Force     RMS Force      MAX Disp      RMS Disp   
  ---------------------------------------------------------------------------------------------
    Convergence Criteria    1.00e-06 *    3.00e-04 *             o    1.20e-03 *             o
  ---------------------------------------------------------------------------------------------
      2    -268.05864623   -4.32e-04      3.83e-03      1.28e-03 o    2.76e-02      8.51e-03 o  ~
  ---------------------------------------------------------------------------------------------

	Writing optimization data to binary file.
	Structure for next step:
	Cartesian Geometry (in Angstrom)
	    H    -2.4756577928  -0.6394625451  -0.3490841867
	    O    -2.3059867238  -0.1557506993   0.4387593208
	    C    -1.1272696302   0.5860875874   0.3006874272
	    C     0.1238380916  -0.2892431644   0.3021831840
	    H    -1.1198233114   1.1943578598  -0.5969497624
	    H    -1.1042518930   1.2696847813   1.1378054129
	    O     1.0890113840   0.2954710168  -0.5109972647
	    H    -0.1356895681  -1.2914665541  -0.0363327260
	    H     0.5045372824  -0.4018429868   1.3157549014
	    C     2.3137909589  -0.3606570498  -0.5110496212
	    H     2.2160018908  -1.3856942410  -0.8619085036
	    H     2.9746658320   0.1741043540  -1.1773374876
	    H     2.7559713986  -0.3782384471   0.4823468129
			--------------------------
			 OPTKING Finished Execution 
			--------------------------

    Structure for next step:
    Molecular point group: c1
    Full point group: C1

    Geometry (in Angstrom), charge = 0, multiplicity = 1:

    H           -2.474381426566    -0.639450556947    -0.347243797474
    O           -2.304710370491    -0.155738748097     0.440599649803
    C           -1.125993366977     0.586099481959     0.302527766746
    C            0.125114259312    -0.289231203007     0.304023523523
    H           -1.118547048743     1.194369707922    -0.595109354254
    H           -1.102975631502     1.269696623576     1.139645688598
    O            1.090287478053     0.295482933522    -0.509156863161
    H           -0.134413380522    -1.291454516171    -0.034492360654
    H            0.505813421046    -0.401831016790     1.317595163441
    C            2.315066959351    -0.360645082958    -0.509209219637
    H            2.217277898711    -1.385682195925    -0.860068075212
    H            2.975941782022     0.174116280000    -1.175497035091
    H            2.757247365304    -0.378226478939     0.484187138651

gradient() will perform analytic gradient computation.

*** tstart() called on cx1-27-3-1
*** at Fri Sep  9 20:28:58 2016


         ---------------------------------------------------------
                                   SCF
            by Justin Turney, Rob Parrish, and Andy Simmonett
                              RHF Reference
                        4 Threads,   2000 MiB Core
         ---------------------------------------------------------

  ==> Geometry <==

    Molecular point group: c1
    Full point group: C1

    Geometry (in Angstrom), charge = 0, multiplicity = 1:

       Center              X                  Y                   Z               Mass       
    ------------   -----------------  -----------------  -----------------  -----------------
           H         -2.474381426566    -0.639450556947    -0.347243797474     1.007825032070
           O         -2.304710370491    -0.155738748097     0.440599649803    15.994914619560
           C         -1.125993366977     0.586099481959     0.302527766746    12.000000000000
           C          0.125114259312    -0.289231203007     0.304023523523    12.000000000000
           H         -1.118547048743     1.194369707922    -0.595109354254     1.007825032070
           H         -1.102975631502     1.269696623576     1.139645688598     1.007825032070
           O          1.090287478053     0.295482933522    -0.509156863161    15.994914619560
           H         -0.134413380522    -1.291454516171    -0.034492360654     1.007825032070
           H          0.505813421046    -0.401831016790     1.317595163441     1.007825032070
           C          2.315066959351    -0.360645082958    -0.509209219637    12.000000000000
           H          2.217277898711    -1.385682195925    -0.860068075212     1.007825032070
           H          2.975941782022     0.174116280000    -1.175497035091     1.007825032070
           H          2.757247365304    -0.378226478939     0.484187138651     1.007825032070

  Running in c1 symmetry.

  Rotational constants: A =      0.72133  B =      0.07235  C =      0.07003 [cm^-1]
  Rotational constants: A =  21624.86195  B =   2169.04420  C =   2099.35648 [MHz]
  Nuclear repulsion =  190.315444338981393

  Charge       = 0
  Multiplicity = 1
  Electrons    = 42
  Nalpha       = 21
  Nbeta        = 21

  ==> Algorithm <==

  SCF Algorithm Type is DF.
  DIIS enabled.
  MOM disabled.
  Fractional occupation disabled.
  Guess Type is READ.
  Energy threshold   = 1.00e-08
  Density threshold  = 1.00e-08
  Integral threshold = 0.00e+00

  ==> Primary Basis <==

  Basis Set: CC-PVTZ
    Number of shells: 98
    Number of basis function: 262
    Number of Cartesian functions: 295
    Spherical Harmonics?: true
    Max angular momentum: 3

  ==> Pre-Iterations <==

   -------------------------------------------------------
    Irrep   Nso     Nmo     Nalpha   Nbeta   Ndocc  Nsocc
   -------------------------------------------------------
     A        262     262       0       0       0       0
   -------------------------------------------------------
    Total     262     262      21      21      21       0
   -------------------------------------------------------

 OEINTS: Overlap, kinetic, potential, dipole, and quadrupole integrals
         stored in file 35.

  ==> Integral Setup <==

  ==> DFJK: Density-Fitted J/K Matrices <==

    J tasked:                  Yes
    K tasked:                  Yes
    wK tasked:                  No
    OpenMP threads:              4
    Integrals threads:           4
    Memory (MB):              1430
    Algorithm:                Core
    Integral Cache:           NONE
    Schwarz Cutoff:          1E-12
    Fitting Condition:       1E-12

   => Auxiliary Basis Set <=

  Basis Set: 
    Number of shells: 205
    Number of basis function: 635
    Number of Cartesian functions: 760
    Spherical Harmonics?: true
    Max angular momentum: 4

  Minimum eigenvalue in the overlap matrix is 6.9291789984E-04.
  Using Symmetric Orthogonalization.
  SCF Guess: Reading in previously saved MOs, projecting if necessary.

  Using orbitals from previous SCF, no projection.
  Recomputing DOCC and SOCC from number of alpha and beta electrons from previous calculation.
              A 
    DOCC [    21 ]

  ==> Iterations <==

                           Total Energy        Delta E     RMS |[F,P]|

   @DF-RHF iter   0:  -268.06205379696246   -2.68062e+02   1.13694e-04 
   @DF-RHF iter   1:  -268.05876823303640    3.28556e-03   1.81266e-05 
   @DF-RHF iter   2:  -268.05878613669324   -1.79037e-05   6.28822e-06 DIIS
   @DF-RHF iter   3:  -268.05878919092072   -3.05423e-06   2.24807e-06 DIIS
   @DF-RHF iter   4:  -268.05878945506868   -2.64148e-07   7.38530e-07 DIIS
   @DF-RHF iter   5:  -268.05878949436226   -3.92936e-08   2.40080e-07 DIIS
   @DF-RHF iter   6:  -268.05878949915018   -4.78792e-09   7.73620e-08 DIIS
   @DF-RHF iter   7:  -268.05878949956104   -4.10864e-10   2.21654e-08 DIIS
   @DF-RHF iter   8:  -268.05878949959731   -3.62661e-11   5.20934e-09 DIIS

  ==> Post-Iterations <==

    Orbital Energies (a.u.)
    -----------------------

    Doubly Occupied:                                                      

       1A    -20.557112     2A    -20.552011     3A    -11.269958  
       4A    -11.268148     5A    -11.267607     6A     -1.392442  
       7A     -1.368360     8A     -1.017795     9A     -0.915202  
      10A     -0.843963    11A     -0.709320    12A     -0.679678  
      13A     -0.661312    14A     -0.632894    15A     -0.609030  
      16A     -0.567577    17A     -0.541524    18A     -0.493214  
      19A     -0.485003    20A     -0.441036    21A     -0.423286  

    Virtual:                                                              

      22A      0.140174    23A      0.155772    24A      0.179075  
      25A      0.189588    26A      0.210917    27A      0.225272  
      28A      0.238215    29A      0.255775    30A      0.269819  
      31A      0.325366    32A      0.356387    33A      0.365231  
      34A      0.388833    35A      0.396963    36A      0.476185  
      37A      0.505742    38A      0.510447    39A      0.527684  
      40A      0.555545    41A      0.577237    42A      0.591615  
      43A      0.599208    44A      0.620765    45A      0.632958  
      46A      0.643283    47A      0.649238    48A      0.659602  
      49A      0.670317    50A      0.687197    51A      0.697057  
      52A      0.701412    53A      0.746973    54A      0.764740  
      55A      0.811813    56A      0.837759    57A      0.854360  
      58A      0.892760    59A      0.909483    60A      0.919063  
      61A      0.942787    62A      0.976653    63A      0.994212  
      64A      1.042710    65A      1.093901    66A      1.128786  
      67A      1.133081    68A      1.148801    69A      1.181803  
      70A      1.187609    71A      1.193554    72A      1.225274  
      73A      1.243768    74A      1.258209    75A      1.276661  
      76A      1.286995    77A      1.308861    78A      1.348593  
      79A      1.356223    80A      1.381755    81A      1.406395  
      82A      1.422824    83A      1.434164    84A      1.474289  
      85A      1.493590    86A      1.509580    87A      1.516813  
      88A      1.536723    89A      1.551775    90A      1.572864  
      91A      1.597247    92A      1.607111    93A      1.616668  
      94A      1.652146    95A      1.698960    96A      1.720987  
      97A      1.758304    98A      1.814050    99A      1.884496  
     100A      1.898857   101A      2.104775   102A      2.182595  
     103A      2.224201   104A      2.258023   105A      2.290167  
     106A      2.310883   107A      2.357135   108A      2.376740  
     109A      2.440232   110A      2.475380   111A      2.493120  
     112A      2.589110   113A      2.595437   114A      2.629339  
     115A      2.668454   116A      2.714664   117A      2.750729  
     118A      2.779605   119A      2.834707   120A      2.887159  
     121A      2.921079   122A      2.938463   123A      3.049331  
     124A      3.059935   125A      3.072481   126A      3.103317  
     127A      3.114525   128A      3.147776   129A      3.157311  
     130A      3.209827   131A      3.224199   132A      3.237439  
     133A      3.240612   134A      3.267751   135A      3.288407  
     136A      3.309780   137A      3.317066   138A      3.326270  
     139A      3.350527   140A      3.380866   141A      3.389124  
     142A      3.426557   143A      3.450487   144A      3.454877  
     145A      3.471876   146A      3.511788   147A      3.567625  
     148A      3.586436   149A      3.602516   150A      3.615454  
     151A      3.648294   152A      3.654411   153A      3.685610  
     154A      3.698136   155A      3.732223   156A      3.741257  
     157A      3.766189   158A      3.773798   159A      3.795478  
     160A      3.819685   161A      3.837671   162A      3.860765  
     163A      3.881185   164A      3.906900   165A      3.916509  
     166A      3.934325   167A      3.968974   168A      3.993522  
     169A      4.032380   170A      4.069355   171A      4.089699  
     172A      4.103704   173A      4.143531   174A      4.158727  
     175A      4.169950   176A      4.213618   177A      4.224733  
     178A      4.254818   179A      4.275510   180A      4.303029  
     181A      4.328084   182A      4.348113   183A      4.360067  
     184A      4.374763   185A      4.405156   186A      4.417681  
     187A      4.426922   188A      4.431652   189A      4.489729  
     190A      4.509610   191A      4.545183   192A      4.563966  
     193A      4.594512   194A      4.612862   195A      4.627922  
     196A      4.673160   197A      4.701713   198A      4.750766  
     199A      4.764908   200A      4.835384   201A      4.877601  
     202A      4.936721   203A      5.020774   204A      5.043389  
     205A      5.073097   206A      5.114472   207A      5.159024  
     208A      5.185876   209A      5.206591   210A      5.239966  
     211A      5.255240   212A      5.300026   213A      5.325558  
     214A      5.368909   215A      5.425559   216A      5.440221  
     217A      5.467835   218A      5.483857   219A      5.496683  
     220A      5.535628   221A      5.571610   222A      5.594127  
     223A      5.642783   224A      5.691442   225A      5.714710  
     226A      5.790596   227A      5.806527   228A      5.909133  
     229A      5.920139   230A      5.962836   231A      6.028111  
     232A      6.126992   233A      6.197395   234A      6.218207  
     235A      6.248506   236A      6.284869   237A      6.325319  
     238A      6.405723   239A      6.532525   240A      6.606351  
     241A      6.708843   242A      6.732666   243A      6.881083  
     244A      6.952352   245A      7.065932   246A      7.165880  
     247A      7.242615   248A      7.289932   249A      7.315718  
     250A      7.359085   251A      7.412516   252A      7.494340  
     253A      7.545398   254A      7.692720   255A      7.874190  
     256A      7.896363   257A      8.026196   258A     11.188005  
     259A     12.436642   260A     12.995741   261A     13.872128  
     262A     14.201911  

    Final Occupation by Irrep:
              A 
    DOCC [    21 ]

  Energy converged.

  @DF-RHF Final Energy:  -268.05878949959731

   => Energetics <=

    Nuclear Repulsion Energy =            190.3154443389813935
    One-Electron Energy =                -743.3555236599034970
    Two-Electron Energy =                 284.9812898213248218
    DFT Exchange-Correlation Energy =       0.0000000000000000
    Empirical Dispersion Energy =           0.0000000000000000
    PCM Polarization Energy =               0.0000000000000000
    EFP Energy =                            0.0000000000000000
    Total Energy =                       -268.0587894995973102

    Alert: EFP and PCM quantities not currently incorporated into SCF psivars.

Properties will be evaluated at   0.000000,   0.000000,   0.000000 Bohr
  ==> Properties <==


Properties computed using the SCF density matrix

  Nuclear Dipole Moment: (a.u.)
     X:     3.3934      Y:    -1.3666      Z:    -0.0669

  Electronic Dipole Moment: (a.u.)
     X:    -2.8953      Y:     0.9554      Z:    -0.2080

  Dipole Moment: (a.u.)
     X:     0.4981      Y:    -0.4112      Z:    -0.2749     Total:     0.7020

  Dipole Moment: (Debye)
     X:     1.2661      Y:    -1.0452      Z:    -0.6987     Total:     1.7843


  Saving occupied orbitals to File 180.

*** tstop() called on cx1-27-3-1 at Fri Sep  9 20:29:04 2016
Module time:
	user time   =      17.88 seconds =       0.30 minutes
	system time =       0.23 seconds =       0.00 minutes
	total time  =          6 seconds =       0.10 minutes
Total time:
	user time   =     146.95 seconds =       2.45 minutes
	system time =       1.55 seconds =       0.03 minutes
	total time  =         43 seconds =       0.72 minutes

*** tstart() called on cx1-27-3-1
*** at Fri Sep  9 20:29:04 2016


         ------------------------------------------------------------
                                   SCF GRAD                          
                          Rob Parrish, Justin Turney,                
                       Andy Simmonett, and Alex Sokolov              
         ------------------------------------------------------------

  ==> Geometry <==

    Molecular point group: c1
    Full point group: C1

    Geometry (in Angstrom), charge = 0, multiplicity = 1:

       Center              X                  Y                   Z               Mass       
    ------------   -----------------  -----------------  -----------------  -----------------
           H         -2.474381426566    -0.639450556947    -0.347243797474     1.007825032070
           O         -2.304710370491    -0.155738748097     0.440599649803    15.994914619560
           C         -1.125993366977     0.586099481959     0.302527766746    12.000000000000
           C          0.125114259312    -0.289231203007     0.304023523523    12.000000000000
           H         -1.118547048743     1.194369707922    -0.595109354254     1.007825032070
           H         -1.102975631502     1.269696623576     1.139645688598     1.007825032070
           O          1.090287478053     0.295482933522    -0.509156863161    15.994914619560
           H         -0.134413380522    -1.291454516171    -0.034492360654     1.007825032070
           H          0.505813421046    -0.401831016790     1.317595163441     1.007825032070
           C          2.315066959351    -0.360645082958    -0.509209219637    12.000000000000
           H          2.217277898711    -1.385682195925    -0.860068075212     1.007825032070
           H          2.975941782022     0.174116280000    -1.175497035091     1.007825032070
           H          2.757247365304    -0.378226478939     0.484187138651     1.007825032070

  Nuclear repulsion =  190.315444338981393

  ==> Basis Set <==

  Basis Set: CC-PVTZ
    Number of shells: 98
    Number of basis function: 262
    Number of Cartesian functions: 295
    Spherical Harmonics?: true
    Max angular momentum: 3

  ==> DFJKGrad: Density-Fitted SCF Gradients <==

    Gradient:                    1
    J tasked:                  Yes
    K tasked:                  Yes
    wK tasked:                  No
    OpenMP threads:              4
    Integrals threads:           4
    Memory (MB):              1430
    Schwarz Cutoff:          0E+00
    Fitting Condition:       1E-12

   => Auxiliary Basis Set <=

  Basis Set: 
    Number of shells: 205
    Number of basis function: 635
    Number of Cartesian functions: 760
    Spherical Harmonics?: true
    Max angular momentum: 4


  -Total Gradient:
     Atom            X                  Y                   Z
    ------   -----------------  -----------------  -----------------
       1       -0.000075003025     0.000010575589    -0.000017096717
       2       -0.000692527230    -0.000646818391     0.000006870650
       3       -0.002157137103    -0.002967320979    -0.001493570104
       4        0.001430215312     0.001095985602    -0.004220739738
       5        0.002096027560     0.002740640057     0.002132134473
       6       -0.000003679272     0.000129576483    -0.000080505650
       7        0.000669495453     0.000508290564    -0.000492895915
       8       -0.000850848885    -0.000840231278     0.004008884170
       9       -0.000002156131     0.000007903375    -0.000029622057
      10       -0.000372249872    -0.000065306175     0.000130977304
      11        0.000008592349    -0.000038347695     0.000008043996
      12       -0.000093587509     0.000070057812     0.000024190800
      13        0.000042858353    -0.000005004965     0.000023328788


*** tstop() called on cx1-27-3-1 at Fri Sep  9 20:29:16 2016
Module time:
	user time   =      45.13 seconds =       0.75 minutes
	system time =       0.39 seconds =       0.01 minutes
	total time  =         12 seconds =       0.20 minutes
Total time:
	user time   =     192.10 seconds =       3.20 minutes
	system time =       1.94 seconds =       0.03 minutes
	total time  =         55 seconds =       0.92 minutes
CURRENT ENERGY: -268.0587894996

			-----------------------------------------
			 OPTKING 2.0: for geometry optimizations 
			  - R.A. King,  Bethel University        
			-----------------------------------------

	Previous internal coordinate definitions found.
	---Fragment 1 Geometry and Gradient---
[...]
                                   SCF GRAD                          
                          Rob Parrish, Justin Turney,                
                       Andy Simmonett, and Alex Sokolov              
         ------------------------------------------------------------

  ==> Geometry <==

    Molecular point group: c1
    Full point group: C1

    Geometry (in Angstrom), charge = 0, multiplicity = 1:

       Center              X                  Y                   Z               Mass       
    ------------   -----------------  -----------------  -----------------  -----------------
           H         -2.470936878276    -0.643435748182    -0.343680149707     1.007825032070
           O         -2.304755012103    -0.152564607125     0.440482749243    15.994914619560
           C         -1.125764691656     0.586080385142     0.301964588609    12.000000000000
           C          0.124225605524    -0.290039398139     0.303339129562    12.000000000000
           H         -1.117856037789     1.195702657754    -0.595211169089     1.007825032070
           H         -1.100847443388     1.268611797999     1.139963322955     1.007825032070
           O          1.089829286307     0.293587984629    -0.508653574445    15.994914619560
           H         -0.135054371231    -1.292564423844    -0.036359468064     1.007825032070
           H          0.503994775566    -0.403805176706     1.317211587636     1.007825032070
           C          2.315852718604    -0.360954425773    -0.508724944099    12.000000000000
           H          2.219120837453    -1.386106180171    -0.859411172946     1.007825032070
           H          2.976249560572     0.174116173713    -1.175258750515     1.007825032070
           H          2.757775216849    -0.377749244996     0.484719348678     1.007825032070

  Nuclear repulsion =  190.350266335771011

  ==> Basis Set <==

  Basis Set: CC-PVTZ
    Number of shells: 98
    Number of basis function: 262
    Number of Cartesian functions: 295
    Spherical Harmonics?: true
    Max angular momentum: 3

  ==> DFJKGrad: Density-Fitted SCF Gradients <==

    Gradient:                    1
    J tasked:                  Yes
    K tasked:                  Yes
    wK tasked:                  No
    OpenMP threads:              4
    Integrals threads:           4
    Memory (MB):              1430
    Schwarz Cutoff:          0E+00
    Fitting Condition:       1E-12

   => Auxiliary Basis Set <=

  Basis Set: 
    Number of shells: 205
    Number of basis function: 635
    Number of Cartesian functions: 760
    Spherical Harmonics?: true
    Max angular momentum: 4


  -Total Gradient:
     Atom            X                  Y                   Z
    ------   -----------------  -----------------  -----------------
       1       -0.000012040311    -0.000003642660    -0.000001579732
       2        0.000016322486     0.000004837368    -0.000022141394
       3       -0.002657749010    -0.003831774290    -0.001481181335
       4        0.001352769324     0.002047423563    -0.004280376160
       5        0.002026544669     0.002885084863     0.001976738190
       6        0.000010401367     0.000001467421     0.000003294239
       7        0.000012831178    -0.000013009821     0.000004133772
       8       -0.000774381301    -0.001106941355     0.003817543237
       9        0.000006527032     0.000017540014    -0.000014391486
      10        0.000010266602    -0.000003156049     0.000007579010
      11        0.000003698346     0.000000395740    -0.000007077167
      12       -0.000002533994    -0.000000294273    -0.000003505729
      13        0.000007343613     0.000002069481     0.000000964554


*** tstop() called on cx1-27-3-1 at Fri Sep  9 20:29:52 2016
Module time:
	user time   =      43.69 seconds =       0.73 minutes
	system time =       0.38 seconds =       0.01 minutes
	total time  =         12 seconds =       0.20 minutes
Total time:
	user time   =     316.15 seconds =       5.27 minutes
	system time =       3.21 seconds =       0.05 minutes
	total time  =         91 seconds =       1.52 minutes
CURRENT ENERGY: -268.0587934773

			-----------------------------------------
			 OPTKING 2.0: for geometry optimizations 
			  - R.A. King,  Bethel University        
			-----------------------------------------

	Previous internal coordinate definitions found.
	---Fragment 1 Geometry and Gradient---
	 H          -4.6693939916       -1.2159173482       -0.6494613603
	 O          -4.3553557763       -0.2883053250        0.8323917623
	 C          -2.1273869573        1.1075314198        0.5706303743
	 C           0.2347523731       -0.5480950302        0.5732278803
	 H          -2.1124417674        2.2595505595       -1.1247861008
	 H          -2.0803001821        2.3973288672        2.1542184819
	 O           2.0594788827        0.5548008869       -0.9612159522
	 H          -0.2552157747       -2.4425927702       -0.0687094370
	 H           0.9524120982       -0.7630811950        2.4891691597
	 C           4.3763274023       -0.6821050112       -0.9613508213
	 H           4.1935306386       -2.6193610716       -1.6240517524
	 H           5.6242965726        0.3290318836       -2.2209171738
	 H           5.2114398959       -0.7138426199        0.9159868203
	            -0.0000120403       -0.0000036427       -0.0000015797
	             0.0000163225        0.0000048374       -0.0000221414
	            -0.0026577490       -0.0038317743       -0.0014811813
	             0.0013527693        0.0020474236       -0.0042803762
	             0.0020265447        0.0028850849        0.0019767382
	             0.0000104014        0.0000014674        0.0000032942
	             0.0000128312       -0.0000130098        0.0000041338
	            -0.0007743813       -0.0011069414        0.0038175432
	             0.0000065270        0.0000175400       -0.0000143915
	             0.0000102666       -0.0000031560        0.0000075790
	             0.0000036983        0.0000003957       -0.0000070772
	            -0.0000025340       -0.0000002943       -0.0000035057
	             0.0000073436        0.0000020695        0.0000009646

	---Fragment 1 Intrafragment Coordinates---
	 - Coordinate -           - BOHR/RAD -       - ANG/DEG -
	 R(1,2)           =         1.776224	       0.939937
	 R(2,3)           =         2.642106	       1.398142
	 R(3,4)           =         2.884581	       1.526455
	 R(3,5)           =         2.049831	       1.084724
	 R(3,6)           =         2.042926	       1.081070
	 R(4,7)           =         2.626885	       1.390088
	 R(4,8)           =         2.059435	       1.089806
	 R(4,9)           =         2.057203	       1.088625
	 R(7,10)          =         2.626352	       1.389806
	 R(10,11)         =         2.055614	       1.087784
	 R(10,12)         =         2.041160	       1.080135
	 R(10,13)         =         2.054949	       1.087432
	 B(1,2,3)         =         1.920198	     110.019218
	 B(2,3,4)         =         1.968405	     112.781321
	 B(2,3,5)         =         1.966007	     112.643878
	 B(2,3,6)         =         1.850617	     106.032521
	 B(3,4,7)         =         1.904267	     109.106462
	 B(3,4,8)         =         1.910158	     109.443985
	 B(3,4,9)         =         1.924622	     110.272728
	 B(4,3,5)         =         1.893722	     108.502273
	 B(4,3,6)         =         1.920687	     110.047232
	 B(4,7,10)        =         1.998820	     114.523946
	 B(5,3,6)         =         1.860995	     106.627163
	 B(7,4,8)         =         1.949171	     111.679280
	 B(7,4,9)         =         1.923644	     110.216663
	 B(7,10,11)       =         1.944873	     111.433019
	 B(7,10,12)       =         1.881871	     107.823260
	 B(7,10,13)       =         1.945209	     111.452291
	 B(8,4,9)         =         1.851637	     106.091007
	 B(11,10,12)      =         1.898935	     108.800953
	 B(11,10,13)      =         1.892418	     108.427538
	 B(12,10,13)      =         1.899621	     108.840277
	 D(1,2,3,4)       =        -1.233397	     -70.668419
	 D(1,2,3,5)       =         0.917536	      52.570960
	 D(1,2,3,6)       =         2.946677	     168.832143
	 D(2,3,4,7)       =         2.582808	     147.983978
	 D(2,3,4,8)       =         0.445276	      25.512425
	 D(2,3,4,9)       =        -1.585279	     -90.829809
	 D(3,4,7,10)      =         3.060293	     175.341899
	 D(4,7,10,11)     =         1.050782	      60.205391
	 D(4,7,10,12)     =         3.133545	     179.538902
	 D(4,7,10,13)     =        -1.065838	     -61.068022
	 D(5,3,4,7)       =         0.392203	      22.471558
	*D(5,3,4,8)       =        -1.745329	     -99.999994
	 D(5,3,4,9)       =         2.507301	     143.657771
	 D(6,3,4,7)       =        -1.637884	     -93.843831
	 D(6,3,4,8)       =         2.507770	     143.684616
	 D(6,3,4,9)       =         0.477215	      27.342382
	 D(8,4,7,10)      =        -1.108969	     -63.539247
	 D(9,4,7,10)      =         0.944599	      54.121548

	Current energy   :      -268.0587934773

	Energy change for the previous step:
		Projected    :         0.0000044698
		Actual       :        -0.0000004313

	Performing BFGS update.
	Previous computed or guess Hessian on step 1.
	Steps to be used in Hessian update: 4 3
	Taking RFO optimization step.
	Going to follow RFO solution 1.
	Rejecting RFO root 1 because normalization gives large value.
	Rejecting RFO root 2 because normalization gives large value.
	Rejecting RFO root 3 because normalization gives large value.
	Using RFO vector 4.
	Norm of target step-size    0.00112
	Projected energy change by RFO approximation:        -0.0000000324

	Back-transformation to cartesian coordinates...
	Successfully converged to displaced geometry.

	Back-transformation to cartesian coordinates to adjust frozen coordinates...
	Successfully converged to displaced geometry.

	--- Internal Coordinate Step in ANG or DEG, aJ/ANG or AJ/DEG ---
	 ---------------------------------------------------------------------------
	   Coordinate                Previous        Force       Change         New 
	   ----------                --------       ------       ------       ------
	    1 R(1,2)          =      0.939937    -0.000044    -0.000004     0.939933
	    2 R(2,3)          =      1.398142     0.000054     0.000029     1.398171
	    3 R(3,4)          =      1.526455     0.000308     0.000031     1.526485
	    4 R(3,5)          =      1.084724    -0.000010     0.000012     1.084736
	    5 R(3,6)          =      1.081070    -0.000031    -0.000003     1.081067
	    6 R(4,7)          =      1.390088    -0.000122    -0.000057     1.390030
	    7 R(4,8)          =      1.089806    -0.000104     0.000005     1.089811
	    8 R(4,9)          =      1.088625     0.000107     0.000018     1.088643
	    9 R(7,10)         =      1.389806    -0.000140    -0.000004     1.389801
	   10 R(10,11)        =      1.087784    -0.000013    -0.000003     1.087781
	   11 R(10,12)        =      1.080135    -0.000004    -0.000000     1.080135
	   12 R(10,13)        =      1.087432    -0.000032    -0.000007     1.087425
	   13 B(1,2,3)        =    110.019218    -0.000001    -0.005173   110.014045
	   14 B(2,3,4)        =    112.781321    -0.000001    -0.003869   112.777451
	   15 B(2,3,5)        =    112.643878     0.000001     0.001245   112.645123
	   16 B(2,3,6)        =    106.032521    -0.000001    -0.013602   106.018919
	   17 B(3,4,7)        =    109.106462    -0.000002    -0.004153   109.102309
	   18 B(3,4,8)        =    109.443985     0.000000     0.002621   109.446605
	   19 B(3,4,9)        =    110.272728     0.000001    -0.006635   110.266094
	   20 B(4,3,5)        =    108.502273     0.000001     0.009280   108.511552
	   21 B(4,3,6)        =    110.047232     0.000001    -0.000630   110.046602
	   22 B(4,7,10)       =    114.523946    -0.000003    -0.000990   114.522955
	   23 B(5,3,6)        =    106.627163    -0.000000     0.007651   106.634815
	   24 B(7,4,8)        =    111.679280     0.000001     0.004690   111.683970
	   25 B(7,4,9)        =    110.216663     0.000001     0.001362   110.218026
	   26 B(7,10,11)      =    111.433019    -0.000000    -0.002125   111.430894
	   27 B(7,10,12)      =    107.823260     0.000001     0.004558   107.827818
	   28 B(7,10,13)      =    111.452291    -0.000001    -0.004099   111.448192
	   29 B(8,4,9)        =    106.091007    -0.000001     0.002167   106.093175
	   30 B(11,10,12)     =    108.800953     0.000000     0.002513   108.803466
	   31 B(11,10,13)     =    108.427538    -0.000000    -0.001922   108.425616
	   32 B(12,10,13)     =    108.840277     0.000000     0.001340   108.841617
	   33 D(1,2,3,4)      =    -70.668419     0.000000    -0.029212   -70.697630
	   34 D(1,2,3,5)      =     52.570960     0.000000    -0.018876    52.552084
	   35 D(1,2,3,6)      =    168.832143    -0.000000    -0.017260   168.814882
	   36 D(2,3,4,7)      =    147.983978     0.000000     0.010677   147.994655
	   37 D(2,3,4,8)      =     25.512425     0.000000     0.005868    25.518293
	   38 D(2,3,4,9)      =    -90.829809     0.000000     0.005530   -90.824279
	   39 D(3,4,7,10)     =    175.341899     0.000000     0.014896   175.356795
	   40 D(4,7,10,11)    =     60.205391    -0.000000     0.002440    60.207831
	   41 D(4,7,10,12)    =    179.538902     0.000000     0.007143   179.546045
	   42 D(4,7,10,13)    =    -61.068022     0.000000     0.009247   -61.058775
	   43 D(5,3,4,7)      =     22.471558    -0.000000     0.004809    22.476367
	   44 *D(5,3,4,8)     =    -99.999994     0.000000     0.000000   -99.999994
	   45 D(5,3,4,9)      =    143.657771     0.000000    -0.000338   143.657433
	   46 D(6,3,4,7)      =    -93.843831    -0.000000    -0.009338   -93.853170
	   47 D(6,3,4,8)      =    143.684616    -0.000000    -0.014147   143.670468
	   48 D(6,3,4,9)      =     27.342382     0.000000    -0.014485    27.327896
	   49 D(8,4,7,10)     =    -63.539247    -0.000000     0.018410   -63.520837
	   50 D(9,4,7,10)     =     54.121548     0.000000     0.024908    54.146456
	 ---------------------------------------------------------------------------

  ==> Convergence Check <==

  Measures of convergence in internal coordinates in au.
  Criteria marked as inactive (o), active & met (*), and active & unmet ( ).
  ---------------------------------------------------------------------------------------------
   Step     Total Energy     Delta E     MAX Force     RMS Force      MAX Disp      RMS Disp   
  ---------------------------------------------------------------------------------------------
    Convergence Criteria    1.00e-06 *    3.00e-04 *             o    1.20e-03 *             o
  ---------------------------------------------------------------------------------------------
      5    -268.05879348   -4.31e-07 *    3.95e-05 *    1.16e-05 o    5.10e-04 *    1.58e-04 o  ~
  ---------------------------------------------------------------------------------------------


  **** Optimization is complete! (in 5 steps) ****

  ==> Optimization Summary <==

  Measures of convergence in internal coordinates in au.
  --------------------------------------------------------------------------------------------------------------- ~
   Step         Total Energy             Delta E       MAX Force       RMS Force        MAX Disp        RMS Disp  ~
  --------------------------------------------------------------------------------------------------------------- ~
      1    -268.058214589246   -268.058214589246      0.00874907      0.00213954      0.07250457      0.02663341  ~
      2    -268.058646227632     -0.000431638386      0.00382526      0.00128312      0.02758315      0.00851247  ~
      3    -268.058789499597     -0.000143271965      0.00098265      0.00020291      0.00761547      0.00188400  ~
      4    -268.058793046056     -0.000003546459      0.00013120      0.00004550      0.00487821      0.00124332  ~
      5    -268.058793477321     -0.000000431264      0.00003947      0.00001155      0.00050984      0.00015847  ~
  --------------------------------------------------------------------------------------------------------------- ~

	Writing optimization data to binary file.
	Final energy is   -268.0587934773207
	Final (previous) structure:
	Cartesian Geometry (in Angstrom)
	    H    -2.4709370670  -0.6434357973  -0.3436801760
	    O    -2.3047551881  -0.1525646188   0.4404827829
	    C    -1.1257647776   0.5860804299   0.3019646117
	    C     0.1242256150  -0.2900394203   0.3033391527
	    H    -1.1178561232   1.1957027491  -0.5952112145
	    H    -1.1008475275   1.2686118949   1.1399634100
	    O     1.0898293695   0.2935880070  -0.5086536133
	    H    -0.1350543815  -1.2925645225  -0.0363594708
	    H     0.5039948141  -0.4038052075   1.3172116882
	    C     2.3158528955  -0.3609544533  -0.5087249829
	    H     2.2191210069  -1.3861062860  -0.8594112386
	    H     2.9762497878   0.1741161870  -1.1752588403
	    H     2.7577754274  -0.3777492738   0.4847193857
	Saving final (previous) structure.
			--------------------------
			 OPTKING Finished Execution 
			--------------------------

    Final optimized geometry and variables:
    Molecular point group: c1
    Full point group: C1

    Geometry (in Angstrom), charge = 0, multiplicity = 1:

    H           -2.470936878276    -0.643435748182    -0.343680149707
    O           -2.304755012103    -0.152564607125     0.440482749243
    C           -1.125764691656     0.586080385142     0.301964588609
    C            0.124225605524    -0.290039398139     0.303339129562
    H           -1.117856037789     1.195702657754    -0.595211169089
    H           -1.100847443388     1.268611797999     1.139963322955
    O            1.089829286307     0.293587984629    -0.508653574445
    H           -0.135054371231    -1.292564423844    -0.036359468064
    H            0.503994775566    -0.403805176706     1.317211587636
    C            2.315852718604    -0.360954425773    -0.508724944099
    H            2.219120837453    -1.386106180171    -0.859411172946
    H            2.976249560572     0.174116173713    -1.175258750515
    H            2.757775216849    -0.377749244996     0.484719348678

	Cleaning optimization helper files.


Properties will be evaluated at   0.000000,   0.000000,   0.000000 Bohr

Properties computed using the  density matrix

  Nuclear Dipole Moment: (a.u.)
     X:     3.3995      Y:    -1.3729      Z:    -0.0641

  Electronic Dipole Moment: (a.u.)
     X:    -2.8979      Y:     0.9566      Z:    -0.2088

  Dipole Moment: (a.u.)
     X:     0.5016      Y:    -0.4164      Z:    -0.2729     Total:     0.7067

  Dipole Moment: (Debye)
     X:     1.2749      Y:    -1.0583      Z:    -0.6937     Total:     1.7963

  Quadrupole Moment: (Debye Ang)
    XX:   -32.2074     YY:   -30.9908     ZZ:   -31.6128
    XY:    -0.3001     XZ:     3.9504     YZ:     1.7970

  Traceless Quadrupole Moment: (Debye Ang)
    XX:    -0.6037     YY:     0.6129     ZZ:    -0.0092
    XY:    -0.3001     XZ:     3.9504     YZ:     1.7970

  Mulliken Charges: (a.u.)
   Center  Symbol    Alpha    Beta     Spin     Total
       1     H     0.39335  0.39335  0.00000  0.21331
       2     O     4.20266  4.20266  0.00000 -0.40532
       3     C     2.97088  2.97088  0.00000  0.05825
       4     C     2.96596  2.96596  0.00000  0.06808
       5     H     0.46528  0.46528  0.00000  0.06944
       6     H     0.45710  0.45710  0.00000  0.08580
       7     O     4.17418  4.17418  0.00000 -0.34836
       8     H     0.47893  0.47893  0.00000  0.04213
       9     H     0.47449  0.47449  0.00000  0.05103
      10     C     3.02987  3.02987  0.00000 -0.05974
      11     H     0.47125  0.47125  0.00000  0.05749
      12     H     0.44611  0.44611  0.00000  0.10778
      13     H     0.46995  0.46995  0.00000  0.06011

   Total alpha = 21.00000, Total beta = 21.00000, Total charge = -0.00000


*** PSI4 exiting successfully. Buy a developer a beer!
