    -----------------------------------------------------------------------
          Psi4: An Open-Source Ab Initio Electronic Structure Package
                              Psi4 (no tag) Driver

                          Git: Rev {detached?}  

    J. M. Turney, A. C. Simmonett, R. M. Parrish, E. G. Hohenstein,
    F. A. Evangelista, J. T. Fermann, B. J. Mintz, L. A. Burns, J. J. Wilke,
    M. L. Abrams, N. J. Russ, M. L. Leininger, C. L. Janssen, E. T. Seidl,
    W. D. Allen, H. F. Schaefer, R. A. King, E. F. Valeev, C. D. Sherrill,
    and T. D. Crawford, WIREs Comput. Mol. Sci. 2, 556-565 (2012)
    (doi: 10.1002/wcms.93)

                         Additional Contributions by
    A. E. DePrince, M. Saitow, U. Bozkaya, A. Yu. Sokolov
    -----------------------------------------------------------------------


    Psi4 started on: Fri Sep  9 22:10:44 2016

    Process ID:  25973
    PSI4DATADIR: /export131/home/mjharvey/miniconda3/share
    Memory level set to 256.000 MB

  ==> Input File <==

--------------------------------------------------------------------------
set {
	reference rhf
	basis cc-pvtz
}


set_num_threads( 4 )
memory 2 gb

molecule MOL {
0 1

O	 1.847685	 1.294399	 -0.000190
C	 1.704209	 0.119472	 -0.000093
C	 0.380337	 -0.600947	 -0.000234
O	 2.715427	 -0.733672	 0.000025
C	 -0.824290	 0.329213	 -0.000115
H	 0.371455	 -1.255476	 -0.865660
H	 0.371410	 -1.255787	 0.864952
C	 -2.146151	 -0.432825	 -0.000068
H	 -0.773936	 0.979158	 -0.866319
H	 -0.773838	 0.979034	 0.866186
C	 -3.366283	 0.483552	 0.000557
H	 -2.189286	 -1.084450	 -0.869996
H	 -2.188867	 -1.085083	 0.869399
C	 -4.683260	 -0.272347	 -0.139448
H	 -3.274842	 1.201764	 -0.809361
H	 -3.378641	 1.062390	 0.919770
H	 -4.715600	 -0.834498	 -1.066904
H	 -5.527841	 0.406919	 -0.135600
H	 -4.820413	 -0.974692	 0.676110
C	 4.020999	 -0.192556	 0.000019
H	 4.182809	 0.412891	 -0.879449
H	 4.692590	 -1.035653	 0.000152
H	 4.182726	 0.413087	 0.879368

	symmetry c1
}
set optking {
	frozen_dihedral = ("
		15 11 8 12
	")
}

ee = optimize('scf')
oeprop('DIPOLE', 'QUADRUPOLE', 'MULLIKEN_CHARGES')
f=open( 'psi4out.xyz', 'w' )
f.write( "23  " )
f.write( str(ee) + "\n" )
f.write( MOL.save_string_xyz() )
f.close()
--------------------------------------------------------------------------

  Memory set to   2.000 GiB by Python script.
gradient() will perform analytic gradient computation.

*** tstart() called on cx1-27-2-3
*** at Fri Sep  9 22:10:44 2016


         ---------------------------------------------------------
                                   SCF
            by Justin Turney, Rob Parrish, and Andy Simmonett
                              RHF Reference
                        4 Threads,   2000 MiB Core
         ---------------------------------------------------------

  ==> Geometry <==

    Molecular point group: c1
    Full point group: C1

    Geometry (in Angstrom), charge = 0, multiplicity = 1:

       Center              X                  Y                   Z               Mass       
    ------------   -----------------  -----------------  -----------------  -----------------
           O          1.847202840887     1.293746209994     0.015919538406    15.994914619560
           C          1.703726840887     0.118819209994     0.016016538406    12.000000000000
           C          0.379854840887    -0.601599790006     0.015875538406    12.000000000000
           O          2.714944840887    -0.734324790006     0.016134538406    15.994914619560
           C         -0.824772159113     0.328560209994     0.015994538406    12.000000000000
           H          0.370972840887    -1.256128790006    -0.849550461594     1.007825032070
           H          0.370927840887    -1.256439790006     0.881061538406     1.007825032070
           C         -2.146633159113    -0.433477790006     0.016041538406    12.000000000000
           H         -0.774418159113     0.978505209994    -0.850209461594     1.007825032070
           H         -0.774320159113     0.978381209994     0.882295538406     1.007825032070
           C         -3.366765159113     0.482899209994     0.016666538406    12.000000000000
           H         -2.189768159113    -1.085102790006    -0.853886461594     1.007825032070
           H         -2.189349159113    -1.085735790006     0.885508538406     1.007825032070
           C         -4.683742159113    -0.272999790006    -0.123338461594    12.000000000000
           H         -3.275324159113     1.201111209994    -0.793251461594     1.007825032070
           H         -3.379123159113     1.061737209994     0.935879538406     1.007825032070
           H         -4.716082159113    -0.835150790006    -1.050794461594     1.007825032070
           H         -5.528323159113     0.406266209994    -0.119490461594     1.007825032070
           H         -4.820895159113    -0.975344790006     0.692219538406     1.007825032070
           C          4.020516840887    -0.193208790006     0.016128538406    12.000000000000
           H          4.182326840887     0.412238209994    -0.863339461594     1.007825032070
           H          4.692107840887    -1.036305790006     0.016261538406     1.007825032070
           H          4.182243840887     0.412434209994     0.895477538406     1.007825032070

  Running in c1 symmetry.

  Rotational constants: A =      0.23987  B =      0.01617  C =      0.01540 [cm^-1]
  Rotational constants: A =   7191.21161  B =    484.66785  C =    461.81631 [MHz]
  Nuclear repulsion =  452.908324966995337

  Charge       = 0
  Multiplicity = 1
  Electrons    = 72
  Nalpha       = 36
  Nbeta        = 36

  ==> Algorithm <==

  SCF Algorithm Type is DF.
  DIIS enabled.
  MOM disabled.
  Fractional occupation disabled.
  Guess Type is CORE.
  Energy threshold   = 1.00e-08
  Density threshold  = 1.00e-08
  Integral threshold = 0.00e+00

  ==> Primary Basis <==

  Basis Set: CC-PVTZ
    Number of shells: 174
    Number of basis function: 466
    Number of Cartesian functions: 525
    Spherical Harmonics?: true
    Max angular momentum: 3

  ==> Pre-Iterations <==

   -------------------------------------------------------
    Irrep   Nso     Nmo     Nalpha   Nbeta   Ndocc  Nsocc
   -------------------------------------------------------
     A        466     466       0       0       0       0
   -------------------------------------------------------
    Total     466     466      36      36      36       0
   -------------------------------------------------------

 OEINTS: Overlap, kinetic, potential, dipole, and quadrupole integrals
         stored in file 35.

  ==> Integral Setup <==

  ==> DFJK: Density-Fitted J/K Matrices <==

    J tasked:                  Yes
    K tasked:                  Yes
    wK tasked:                  No
    OpenMP threads:              4
    Integrals threads:           4
    Memory (MB):              1430
    Algorithm:                Core
    Integral Cache:           NONE
    Schwarz Cutoff:          1E-12
    Fitting Condition:       1E-12

   => Auxiliary Basis Set <=

  Basis Set: 
    Number of shells: 365
    Number of basis function: 1131
    Number of Cartesian functions: 1354
    Spherical Harmonics?: true
    Max angular momentum: 4

  Minimum eigenvalue in the overlap matrix is 1.9994675645E-04.
  Using Symmetric Orthogonalization.
  SCF Guess: Core (One-Electron) Hamiltonian.

  ==> Iterations <==

                           Total Energy        Delta E     RMS |[F,P]|

   @DF-RHF iter   1:  -239.23197884556100   -2.39232e+02   3.95987e-02 
   @DF-RHF iter   2:    56.56336494311222    2.95795e+02   4.78102e-02 DIIS
   @DF-RHF iter   3:   -89.84125298690685   -1.46405e+02   4.39731e-02 DIIS
   @DF-RHF iter   4:  -298.83005087747154   -2.08989e+02   2.35852e-02 DIIS
   @DF-RHF iter   5:  -236.58502189328317    6.22450e+01   2.84279e-02 DIIS
   @DF-RHF iter   6:  -353.85503492379769   -1.17270e+02   1.92977e-02 DIIS
   @DF-RHF iter   7:  -384.83966951687478   -3.09846e+01   1.14890e-02 DIIS
   @DF-RHF iter   8:  -329.45239656946057    5.53873e+01   2.06023e-02 DIIS
   @DF-RHF iter   9:  -398.30195778122084   -6.88496e+01   9.82567e-03 DIIS
   @DF-RHF iter  10:  -422.93450615308791   -2.46325e+01   1.19938e-03 DIIS
   @DF-RHF iter  11:  -423.11401579977121   -1.79510e-01   3.78225e-04 DIIS
   @DF-RHF iter  12:  -423.12905257149168   -1.50368e-02   9.65152e-05 DIIS
   @DF-RHF iter  13:  -423.13065671863581   -1.60415e-03   4.08835e-05 DIIS
   @DF-RHF iter  14:  -423.13091696110803   -2.60242e-04   1.43784e-05 DIIS
   @DF-RHF iter  15:  -423.13096146003124   -4.44989e-05   7.33292e-06 DIIS
   @DF-RHF iter  16:  -423.13097090712051   -9.44709e-06   2.12858e-06 DIIS
   @DF-RHF iter  17:  -423.13097234732118   -1.44020e-06   7.29708e-07 DIIS
   @DF-RHF iter  18:  -423.13097245601296   -1.08692e-07   2.34235e-07 DIIS
   @DF-RHF iter  19:  -423.13097246852374   -1.25108e-08   7.43988e-08 DIIS
   @DF-RHF iter  20:  -423.13097246977543   -1.25169e-09   2.06226e-08 DIIS
   @DF-RHF iter  21:  -423.13097246987070   -9.52696e-11   5.93781e-09 DIIS

  ==> Post-Iterations <==

    Orbital Energies (a.u.)
    -----------------------

    Doubly Occupied:                                                      

       1A    -20.596284     2A    -20.534091     3A    -11.364531  
       4A    -11.278473     5A    -11.233756     6A    -11.217176  
       7A    -11.215785     8A    -11.214470     9A    -11.207766  
      10A     -1.472179    11A     -1.365750    12A     -1.094512  
      13A     -1.044785    14A     -0.988047    15A     -0.932712  
      16A     -0.844118    17A     -0.795564    18A     -0.769284  
      19A     -0.699097    20A     -0.686903    21A     -0.675355  
      22A     -0.652795    23A     -0.609783    24A     -0.601001  
      25A     -0.573667    26A     -0.560445    27A     -0.557209  
      28A     -0.525285    29A     -0.522207    30A     -0.508226  
      31A     -0.485061    32A     -0.470077    33A     -0.467107  
      34A     -0.463302    35A     -0.459044    36A     -0.438386  

    Virtual:                                                              

      37A      0.137781    38A      0.148808    39A      0.162603  
      40A      0.166721    41A      0.171452    42A      0.192560  
      43A      0.201375    44A      0.211104    45A      0.217137  
      46A      0.226261    47A      0.229135    48A      0.239736  
      49A      0.241515    50A      0.261091    51A      0.269970  
      52A      0.281575    53A      0.311607    54A      0.315667  
      55A      0.353070    56A      0.374246    57A      0.376489  
      58A      0.380730    59A      0.394076    60A      0.403319  
      61A      0.415352    62A      0.437297    63A      0.437710  
      64A      0.461910    65A      0.474531    66A      0.489102  
      67A      0.499608    68A      0.509471    69A      0.518106  
      70A      0.548768    71A      0.552700    72A      0.562766  
      73A      0.563422    74A      0.565864    75A      0.599227  
      76A      0.611204    77A      0.619808    78A      0.626915  
      79A      0.628070    80A      0.634838    81A      0.645993  
      82A      0.648520    83A      0.651710    84A      0.656186  
      85A      0.661503    86A      0.668458    87A      0.673789  
      88A      0.684304    89A      0.688079    90A      0.693390  
      91A      0.703929    92A      0.716472    93A      0.739062  
      94A      0.744502    95A      0.766217    96A      0.780172  
      97A      0.810628    98A      0.823969    99A      0.828797  
     100A      0.837762   101A      0.877005   102A      0.878579  
     103A      0.884520   104A      0.895593   105A      0.914998  
     106A      0.926360   107A      0.958513   108A      0.962930  
     109A      0.976022   110A      0.994411   111A      0.995007  
     112A      1.003487   113A      1.017677   114A      1.036841  
     115A      1.057166   116A      1.068545   117A      1.075669  
     118A      1.106236   119A      1.116317   120A      1.118684  
     121A      1.143112   122A      1.164751   123A      1.166618  
     124A      1.176571   125A      1.187032   126A      1.222872  
     127A      1.224917   128A      1.244163   129A      1.248667  
     130A      1.257241   131A      1.268869   132A      1.276939  
     133A      1.280310   134A      1.284885   135A      1.317011  
     136A      1.319472   137A      1.331513   138A      1.336174  
     139A      1.342924   140A      1.359734   141A      1.364380  
     142A      1.377161   143A      1.393096   144A      1.403571  
     145A      1.414171   146A      1.432576   147A      1.436256  
     148A      1.448328   149A      1.473012   150A      1.478638  
     151A      1.483033   152A      1.489044   153A      1.501052  
     154A      1.517011   155A      1.524382   156A      1.529637  
     157A      1.537636   158A      1.548812   159A      1.566355  
     160A      1.572298   161A      1.577281   162A      1.605262  
     163A      1.609277   164A      1.611550   165A      1.621576  
     166A      1.643734   167A      1.648309   168A      1.695357  
     169A      1.702847   170A      1.728999   171A      1.742134  
     172A      1.750586   173A      1.767263   174A      1.794717  
     175A      1.800085   176A      1.810798   177A      1.822247  
     178A      1.840577   179A      1.849875   180A      1.869091  
     181A      1.881318   182A      1.889009   183A      1.924171  
     184A      1.946124   185A      1.949879   186A      2.019170  
     187A      2.062559   188A      2.071931   189A      2.148647  
     190A      2.251299   191A      2.303886   192A      2.329039  
     193A      2.342630   194A      2.448382   195A      2.468696  
     196A      2.496304   197A      2.518179   198A      2.526656  
     199A      2.574100   200A      2.607784   201A      2.621727  
     202A      2.628913   203A      2.657157   204A      2.685716  
     205A      2.710330   206A      2.720957   207A      2.722936  
     208A      2.740206   209A      2.767578   210A      2.787350  
     211A      2.801615   212A      2.804218   213A      2.828226  
     214A      2.834880   215A      2.867979   216A      2.885271  
     217A      2.922868   218A      2.925311   219A      2.929109  
     220A      2.944729   221A      2.951016   222A      2.969973  
     223A      2.985289   224A      2.988721   225A      2.998523  
     226A      3.018423   227A      3.032613   228A      3.038483  
     229A      3.058368   230A      3.066969   231A      3.098881  
     232A      3.110726   233A      3.113755   234A      3.122212  
     235A      3.138438   236A      3.144964   237A      3.160537  
     238A      3.169161   239A      3.188612   240A      3.226631  
     241A      3.248732   242A      3.255199   243A      3.273127  
     244A      3.279064   245A      3.286274   246A      3.310446  
     247A      3.314009   248A      3.332789   249A      3.341547  
     250A      3.345357   251A      3.350665   252A      3.364980  
     253A      3.369835   254A      3.391862   255A      3.395172  
     256A      3.402169   257A      3.419098   258A      3.423119  
     259A      3.425195   260A      3.445052   261A      3.447637  
     262A      3.458039   263A      3.471493   264A      3.471833  
     265A      3.480270   266A      3.485478   267A      3.489516  
     268A      3.507475   269A      3.528227   270A      3.545086  
     271A      3.556275   272A      3.560096   273A      3.573982  
     274A      3.581285   275A      3.587520   276A      3.600273  
     277A      3.617483   278A      3.630126   279A      3.652103  
     280A      3.667374   281A      3.683883   282A      3.691148  
     283A      3.723049   284A      3.737409   285A      3.739907  
     286A      3.755105   287A      3.764544   288A      3.770033  
     289A      3.779273   290A      3.803507   291A      3.825010  
     292A      3.844849   293A      3.851481   294A      3.859899  
     295A      3.869295   296A      3.873059   297A      3.884534  
     298A      3.893569   299A      3.920991   300A      3.923096  
     301A      3.947586   302A      3.959234   303A      3.969178  
     304A      3.976885   305A      3.998372   306A      4.007865  
     307A      4.060956   308A      4.066389   309A      4.081757  
     310A      4.094450   311A      4.103003   312A      4.118144  
     313A      4.128823   314A      4.137400   315A      4.156462  
     316A      4.161777   317A      4.172453   318A      4.180246  
     319A      4.187187   320A      4.204926   321A      4.208006  
     322A      4.209692   323A      4.213224   324A      4.231297  
     325A      4.242084   326A      4.271203   327A      4.276961  
     328A      4.289492   329A      4.316743   330A      4.330612  
     331A      4.342060   332A      4.352840   333A      4.361159  
     334A      4.369819   335A      4.382638   336A      4.390412  
     337A      4.404288   338A      4.411623   339A      4.421165  
     340A      4.423121   341A      4.439722   342A      4.445112  
     343A      4.461688   344A      4.476704   345A      4.517586  
     346A      4.524249   347A      4.551124   348A      4.566709  
     349A      4.580907   350A      4.590151   351A      4.591071  
     352A      4.609137   353A      4.610954   354A      4.648265  
     355A      4.653452   356A      4.660072   357A      4.678364  
     358A      4.679585   359A      4.687540   360A      4.716206  
     361A      4.723242   362A      4.750040   363A      4.764926  
     364A      4.780739   365A      4.788049   366A      4.829247  
     367A      4.844598   368A      4.883504   369A      4.913498  
     370A      4.943863   371A      4.981803   372A      5.000406  
     373A      5.025990   374A      5.045427   375A      5.061410  
     376A      5.078770   377A      5.087785   378A      5.107616  
     379A      5.137549   380A      5.157496   381A      5.169695  
     382A      5.213162   383A      5.230849   384A      5.239394  
     385A      5.255911   386A      5.265458   387A      5.279464  
     388A      5.297662   389A      5.309822   390A      5.318636  
     391A      5.333143   392A      5.338074   393A      5.366073  
     394A      5.395672   395A      5.397422   396A      5.422508  
     397A      5.457378   398A      5.462417   399A      5.495091  
     400A      5.506823   401A      5.534374   402A      5.552103  
     403A      5.590094   404A      5.597344   405A      5.608975  
     406A      5.626728   407A      5.634961   408A      5.664828  
     409A      5.668887   410A      5.702939   411A      5.744674  
     412A      5.751377   413A      5.766742   414A      5.775520  
     415A      5.814525   416A      5.830427   417A      5.848769  
     418A      5.874099   419A      5.882164   420A      5.905979  
     421A      5.917547   422A      5.923921   423A      5.932848  
     424A      5.945436   425A      5.957482   426A      5.982708  
     427A      6.034580   428A      6.039951   429A      6.082161  
     430A      6.090932   431A      6.182347   432A      6.187268  
     433A      6.245939   434A      6.276431   435A      6.323215  
     436A      6.331610   437A      6.352375   438A      6.394659  
     439A      6.422305   440A      6.500767   441A      6.596344  
     442A      6.611429   443A      6.691267   444A      6.841393  
     445A      6.869390   446A      6.896408   447A      6.914304  
     448A      7.048676   449A      7.248720   450A      7.261860  
     451A      7.373529   452A      7.484941   453A      7.505410  
     454A      7.577490   455A      7.690359   456A      7.898215  
     457A      7.983126   458A      9.974774   459A     12.099646  
     460A     13.322432   461A     13.505575   462A     13.700801  
     463A     14.053225   464A     14.159963   465A     14.272430  
     466A     14.692091  

    Final Occupation by Irrep:
              A 
    DOCC [    36 ]

  Energy converged.

  @DF-RHF Final Energy:  -423.13097246987070

   => Energetics <=

    Nuclear Repulsion Energy =            452.9083249669953375
    One-Electron Energy =               -1473.8301293543884185
    Two-Electron Energy =                 597.7908319175228371
    DFT Exchange-Correlation Energy =       0.0000000000000000
    Empirical Dispersion Energy =           0.0000000000000000
    PCM Polarization Energy =               0.0000000000000000
    EFP Energy =                            0.0000000000000000
    Total Energy =                       -423.1309724698702439

    Alert: EFP and PCM quantities not currently incorporated into SCF psivars.

Properties will be evaluated at   0.000000,   0.000000,   0.000000 Bohr
  ==> Properties <==


Properties computed using the SCF density matrix

  Nuclear Dipole Moment: (a.u.)
     X:   -12.9611      Y:    -1.9468      Z:    -0.1797

  Electronic Dipole Moment: (a.u.)
     X:    13.0380      Y:     1.2536      Z:     0.1828

  Dipole Moment: (a.u.)
     X:     0.0769      Y:    -0.6932      Z:     0.0032     Total:     0.6975

  Dipole Moment: (Debye)
     X:     0.1954      Y:    -1.7621      Z:     0.0081     Total:     1.7729


  Saving occupied orbitals to File 180.

*** tstop() called on cx1-27-2-3 at Fri Sep  9 22:11:22 2016
Module time:
	user time   =     132.45 seconds =       2.21 minutes
	system time =       1.94 seconds =       0.03 minutes
	total time  =         38 seconds =       0.63 minutes
Total time:
	user time   =     132.45 seconds =       2.21 minutes
	system time =       1.94 seconds =       0.03 minutes
	total time  =         38 seconds =       0.63 minutes

*** tstart() called on cx1-27-2-3
*** at Fri Sep  9 22:11:22 2016


         ------------------------------------------------------------
                                   SCF GRAD                          
                          Rob Parrish, Justin Turney,                
                       Andy Simmonett, and Alex Sokolov              
         ------------------------------------------------------------

  ==> Geometry <==

    Molecular point group: c1
    Full point group: C1

    Geometry (in Angstrom), charge = 0, multiplicity = 1:

       Center              X                  Y                   Z               Mass       
    ------------   -----------------  -----------------  -----------------  -----------------
           O          1.847202840887     1.293746209994     0.015919538406    15.994914619560
           C          1.703726840887     0.118819209994     0.016016538406    12.000000000000
           C          0.379854840887    -0.601599790006     0.015875538406    12.000000000000
           O          2.714944840887    -0.734324790006     0.016134538406    15.994914619560
           C         -0.824772159113     0.328560209994     0.015994538406    12.000000000000
           H          0.370972840887    -1.256128790006    -0.849550461594     1.007825032070
           H          0.370927840887    -1.256439790006     0.881061538406     1.007825032070
           C         -2.146633159113    -0.433477790006     0.016041538406    12.000000000000
           H         -0.774418159113     0.978505209994    -0.850209461594     1.007825032070
           H         -0.774320159113     0.978381209994     0.882295538406     1.007825032070
           C         -3.366765159113     0.482899209994     0.016666538406    12.000000000000
           H         -2.189768159113    -1.085102790006    -0.853886461594     1.007825032070
           H         -2.189349159113    -1.085735790006     0.885508538406     1.007825032070
           C         -4.683742159113    -0.272999790006    -0.123338461594    12.000000000000
           H         -3.275324159113     1.201111209994    -0.793251461594     1.007825032070
           H         -3.379123159113     1.061737209994     0.935879538406     1.007825032070
           H         -4.716082159113    -0.835150790006    -1.050794461594     1.007825032070
           H         -5.528323159113     0.406266209994    -0.119490461594     1.007825032070
           H         -4.820895159113    -0.975344790006     0.692219538406     1.007825032070
           C          4.020516840887    -0.193208790006     0.016128538406    12.000000000000
           H          4.182326840887     0.412238209994    -0.863339461594     1.007825032070
           H          4.692107840887    -1.036305790006     0.016261538406     1.007825032070
           H          4.182243840887     0.412434209994     0.895477538406     1.007825032070

  Nuclear repulsion =  452.908324966995337

  ==> Basis Set <==

  Basis Set: CC-PVTZ
    Number of shells: 174
    Number of basis function: 466
    Number of Cartesian functions: 525
    Spherical Harmonics?: true
    Max angular momentum: 3

  ==> DFJKGrad: Density-Fitted SCF Gradients <==

    Gradient:                    1
    J tasked:                  Yes
    K tasked:                  Yes
    wK tasked:                  No
    OpenMP threads:              4
    Integrals threads:           4
    Memory (MB):              1430
    Schwarz Cutoff:          0E+00
    Fitting Condition:       1E-12

   => Auxiliary Basis Set <=

  Basis Set: 
    Number of shells: 365
    Number of basis function: 1131
    Number of Cartesian functions: 1354
    Spherical Harmonics?: true
    Max angular momentum: 4


  -Total Gradient:
     Atom            X                  Y                   Z
    ------   -----------------  -----------------  -----------------
       1       -0.000003458367    -0.000023879668    -0.000001609353
       2        0.000053416323     0.000025132328     0.000011082441
       3        0.000011749330    -0.000000256096    -0.000115981808
       4       -0.000070707415     0.000001287340    -0.000001031891
       5       -0.000045567959     0.000036442829    -0.000387835620
       6        0.000010672123    -0.000010235199     0.000009985159
       7       -0.000029208403    -0.000003096612     0.000001811364
       8       -0.000078540348     0.000115735070     0.000141946129
       9        0.000050414009     0.000105633043    -0.000020769565
      10       -0.000036923265    -0.000108200980    -0.000034378967
      11        0.000069799241    -0.000124426434     0.000181704661
      12       -0.000235205678    -0.000245907088     0.000174127455
      13        0.000153687715     0.000251489346     0.000228342384
      14        0.000052339670    -0.000013133504    -0.000408993161
      15        0.000215987320     0.000229178837     0.000188251982
      16       -0.000160493652    -0.000260958712     0.000180148402
      17       -0.000063215586    -0.000091933480    -0.000030710973
      18        0.000019127176     0.000003150995    -0.000097548564
      19        0.000049087246     0.000101005233    -0.000017762498
      20        0.000069582054     0.000019147115    -0.000002769951
      21       -0.000010205799    -0.000004089134     0.000004175503
      22       -0.000011585812     0.000002449506     0.000000912885
      23       -0.000010749912    -0.000004534734    -0.000003096013


*** tstop() called on cx1-27-2-3 at Fri Sep  9 22:12:20 2016
Module time:
	user time   =     223.18 seconds =       3.72 minutes
	system time =       1.03 seconds =       0.02 minutes
	total time  =         58 seconds =       0.97 minutes
Total time:
	user time   =     355.64 seconds =       5.93 minutes
	system time =       2.97 seconds =       0.05 minutes
	total time  =         96 seconds =       1.60 minutes
CURRENT ENERGY: -423.1309724699

			-----------------------------------------
			 OPTKING 2.0: for geometry optimizations 
			  - R.A. King,  Bethel University        
			-----------------------------------------

	Internal coordinates to be generated automatically.
	Detected frag with atoms:  1 2 3 4 5 6 7 8 9 10 11 12 13 14 15 16 17 18 19 20
	 21 22 23
	---Fragment 1 Bond Connectivity---
	 1 : 2
	 2 : 1 3 4
	 3 : 2 5 6 7
	 4 : 2 20
	 5 : 3 8 9 10
	 6 : 3
	 7 : 3
	 8 : 5 11 12 13
	 9 : 5
	 10 : 5
	 11 : 8 14 15 16
	 12 : 8
	 13 : 8
	 14 : 11 17 18 19
	 15 : 11
	 16 : 11
	 17 : 14
	 18 : 14
	 19 : 14
	 20 : 4 21 22 23
	 21 : 20
	 22 : 20
	 23 : 20

	Assuming in current code that numbering for constraints corresponds to unified fragment.
	Frozen dihedral atom list: 
	    15    11     8    12
	---Fragment 1 Geometry and Gradient---
	 O           3.4907074812        2.4448260223        0.0300835677
	 C           3.2195771345        0.2245357662        0.0302668712
	 C           0.7178216195       -1.1368588447        0.0300004198
	 O           5.1305022152       -1.3876727457        0.0304898589
	 C          -1.5585935028        0.6208888151        0.0302252972
	 H           0.7010370720       -2.3737394007       -1.6054177085
	 H           0.7009520343       -2.3743271056        1.6649650138
	 C          -4.0565487785       -0.8191543078        0.0303141143
	 H          -1.4634382331        1.8491068665       -1.6066630380
	 H          -1.4632530399        1.8488725405        1.6672969359
	 C          -6.3622641045        0.9125472567        0.0314951932
	 H          -4.1380621152       -2.0505470991       -1.6136115610
	 H          -4.1372703200       -2.0517432958        1.6733686259
	 C          -8.8509899578       -0.5158948374       -0.2330759141
	 H          -6.1894656571        2.2697712420       -1.4990280169
	 H          -6.3856173400        2.0063925520        1.7685560210
	 H          -8.9121037009       -1.5782062728       -1.9857137544
	 H         -10.4470167448        0.7677318739       -0.2258042479
	 H          -9.1101715661       -1.8431345382        1.3081053514
	 C           7.5976757419       -0.3651116996        0.0304785205
	 H           7.9034523275        0.7790173184       -1.6314751421
	 H           8.8667988052       -1.9583341330        0.0307298541
	 H           7.9032954802        0.7793877047        1.6922073057
	            -0.0000034584       -0.0000238797       -0.0000016094
	             0.0000534163        0.0000251323        0.0000110824
	             0.0000117493       -0.0000002561       -0.0001159818
	            -0.0000707074        0.0000012873       -0.0000010319
	            -0.0000455680        0.0000364428       -0.0003878356
	             0.0000106721       -0.0000102352        0.0000099852
	            -0.0000292084       -0.0000030966        0.0000018114
	            -0.0000785403        0.0001157351        0.0001419461
	             0.0000504140        0.0001056330       -0.0000207696
	            -0.0000369233       -0.0001082010       -0.0000343790
	             0.0000697992       -0.0001244264        0.0001817047
	            -0.0002352057       -0.0002459071        0.0001741275
	             0.0001536877        0.0002514893        0.0002283424
	             0.0000523397       -0.0000131335       -0.0004089932
	             0.0002159873        0.0002291788        0.0001882520
	            -0.0001604937       -0.0002609587        0.0001801484
	            -0.0000632156       -0.0000919335       -0.0000307110
	             0.0000191272        0.0000031510       -0.0000975486
	             0.0000490872        0.0001010052       -0.0000177625
	             0.0000695821        0.0000191471       -0.0000027700
	            -0.0000102058       -0.0000040891        0.0000041755
	            -0.0000115858        0.0000024495        0.0000009129
	            -0.0000107499       -0.0000045347       -0.0000030960

	Previous optimization step data not found.  Starting new optimization.

	---Fragment 1 Intrafragment Coordinates---
	 - Coordinate -           - BOHR/RAD -       - ANG/DEG -
	 R(1,2)           =         2.236784	       1.183655
	 R(2,3)           =         2.848188	       1.507196
	 R(2,4)           =         2.500170	       1.323033
	 R(3,5)           =         2.876064	       1.521948
	 R(3,6)           =         2.050548	       1.085103
	 R(3,7)           =         2.050542	       1.085100
	 R(4,20)          =         2.670688	       1.413268
	 R(5,8)           =         2.883315	       1.525785
	 R(5,9)           =         2.048653	       1.084100
	 R(5,10)          =         2.048667	       1.084108
	 R(8,11)          =         2.883594	       1.525932
	 R(8,12)          =         2.055593	       1.087773
	 R(8,13)          =         2.055583	       1.087768
	 R(11,14)         =         2.881701	       1.524931
	 R(11,15)         =         2.052905	       1.086350
	 R(11,16)         =         2.052906	       1.086351
	 R(14,17)         =         2.050361	       1.085004
	 R(14,18)         =         2.048183	       1.083852
	 R(14,19)         =         2.050361	       1.085004
	 R(20,21)         =         2.040740	       1.079913
	 R(20,22)         =         2.036917	       1.077890
	 R(20,23)         =         2.040741	       1.079914
	 B(1,2,3)         =         2.190670	     125.516152
	 B(1,2,4)         =         2.150096	     123.191450
	 B(2,3,5)         =         1.985701	     113.772299
	 B(2,3,6)         =         1.870862	     107.192519
	 B(2,3,7)         =         1.870889	     107.194026
	 B(2,4,20)        =         2.047864	     117.333982
	 B(3,2,4)         =         1.942419	     111.292398
	 B(3,5,8)         =         1.961109	     112.363293
	 B(3,5,9)         =         1.906657	     109.243417
	 B(3,5,10)        =         1.906637	     109.242273
	 B(4,20,21)       =         1.931660	     110.675982
	 B(4,20,22)       =         1.850531	     106.027618
	 B(4,20,23)       =         1.931651	     110.675454
	 B(5,3,6)         =         1.941461	     111.237514
	 B(5,3,7)         =         1.941481	     111.238668
	 B(5,8,11)        =         1.974469	     113.128747
	 B(5,8,12)        =         1.910828	     109.482380
	 B(5,8,13)        =         1.910836	     109.482863
	 B(6,3,7)         =         1.846089	     105.773109
	 B(8,5,9)         =         1.917385	     109.858066
	 B(8,5,10)        =         1.917353	     109.856210
	 B(8,11,14)       =         1.974512	     113.131179
	 B(8,11,15)       =         1.906484	     109.233506
	 B(8,11,16)       =         1.906491	     109.233861
	 B(9,5,10)        =         1.851424	     106.078800
	 B(11,8,12)       =         1.905371	     109.169745
	 B(11,8,13)       =         1.905376	     109.170003
	 B(11,14,17)      =         1.940184	     111.164375
	 B(11,14,18)      =         1.941199	     111.222536
	 B(11,14,19)      =         1.940170	     111.163563
	 B(12,8,13)       =         1.853002	     106.169187
	 B(14,11,15)      =         1.909178	     109.387819
	 B(14,11,16)      =         1.909199	     109.389031
	 B(15,11,16)      =         1.854100	     106.232118
	 B(17,14,18)      =         1.880226	     107.729015
	 B(17,14,19)      =         1.879021	     107.659979
	 B(18,14,19)      =         1.880225	     107.728955
	 B(21,20,22)      =         1.923317	     110.197939
	 B(21,20,23)      =         1.903156	     109.042804
	 B(22,20,23)      =         1.923305	     110.197249
	 D(1,2,3,5)       =        -0.000294	      -0.016850
	 D(1,2,3,6)       =         2.153607	     123.392616
	 D(1,2,3,7)       =        -2.154241	    -123.428894
	 D(1,2,4,20)      =        -0.000000	      -0.000000
	 D(2,3,5,8)       =        -3.141455	    -179.992104
	 D(2,3,5,9)       =         1.009174	      57.821421
	 D(2,3,5,10)      =        -1.008954	     -57.808799
	 D(2,4,20,21)     =        -1.056013	     -60.505098
	 D(2,4,20,22)     =         3.141566	     179.998453
	 D(2,4,20,23)     =         1.055979	      60.503117
	 D(3,2,4,20)      =         3.141476	     179.993324
	 D(3,5,8,11)      =         3.141232	     179.979353
	 D(3,5,8,12)      =        -1.012721	     -58.024661
	 D(3,5,8,13)      =         1.011989	      57.982687
	 D(4,2,3,5)       =         3.141407	     179.989348
	 D(4,2,3,6)       =        -0.987877	     -56.601185
	 D(4,2,3,7)       =         0.987460	      56.577305
	 D(5,8,11,14)     =         3.041555	     174.268254
	 D(5,8,11,15)     =         0.910553	      52.170861
	 D(5,8,11,16)     =        -1.110597	     -63.632543
	 D(6,3,5,8)       =         1.026772	      58.829697
	 D(6,3,5,9)       =        -1.105784	     -63.356778
	 D(6,3,5,10)      =        -3.123912	    -178.986998
	 D(7,3,5,8)       =        -1.026447	     -58.811066
	 D(7,3,5,9)       =         3.124182	     179.002459
	 D(7,3,5,10)      =         1.106054	      63.372239
	 D(8,11,14,17)    =        -1.046251	     -59.945761
	 D(8,11,14,18)    =        -3.141388	    -179.988260
	 D(8,11,14,19)    =         1.046672	      59.969863
	 D(9,5,8,11)      =        -1.015491	     -58.183320
	 D(9,5,8,12)      =         1.113741	      63.812665
	 D(9,5,8,13)      =         3.138451	     179.820013
	 D(10,5,8,11)     =         1.014818	      58.144803
	 D(10,5,8,12)     =        -3.139135	    -179.859211
	 D(10,5,8,13)     =        -1.114425	     -63.851863
	 D(12,8,11,14)    =         0.909271	      52.097370
	*D(12,8,11,15)    =        -1.221731	     -70.000023
	 D(12,8,11,16)    =         3.040304	     174.196573
	 D(13,8,11,14)    =        -1.109332	     -63.560057
	 D(13,8,11,15)    =         3.042852	     174.342551
	 D(13,8,11,16)    =         1.021701	      58.539146
	 D(15,11,14,17)   =         1.083243	      62.065280
	 D(15,11,14,18)   =        -1.011893	     -57.977219
	 D(15,11,14,19)   =        -3.107019	    -178.019096
	 D(16,11,14,17)   =         3.107417	     178.041865
	 D(16,11,14,18)   =         1.012280	      57.999366
	 D(16,11,14,19)   =        -1.082846	     -62.042511

	Current energy   :      -423.1309724699

	Generating empirical Hessian (Schlegel '84) for each fragment.
	Taking RFO optimization step.
	Going to follow RFO solution 1.
	Using RFO vector 1.
	Norm of target step-size    0.11401
	Projected energy change by RFO approximation:         0.0001112847

	Back-transformation to cartesian coordinates...
	Could not converge backtransformation.
	Using first guess instead.

	Back-transformation to cartesian coordinates to adjust frozen coordinates...
	Successfully converged to displaced geometry.

	--- Internal Coordinate Step in ANG or DEG, aJ/ANG or AJ/DEG ---
	 ---------------------------------------------------------------------------
	   Coordinate                Previous        Force       Change         New 
	   ----------                --------       ------       ------       ------
	    1 R(1,2)          =      1.183655     0.000199     0.000053     1.183708
	    2 R(2,3)          =      1.507196    -0.000179    -0.000033     1.507164
	    3 R(2,4)          =      1.323033     0.000288     0.000126     1.323159
	    4 R(3,5)          =      1.521948    -0.000052     0.000098     1.522046
	    5 R(3,6)          =      1.085103     0.000015     0.000069     1.085172
	    6 R(3,7)          =      1.085100    -0.000029     0.000062     1.085162
	    7 R(4,20)         =      1.413268    -0.000323    -0.000039     1.413229
	    8 R(5,8)          =      1.525785     0.000014     0.000016     1.525801
	    9 R(5,9)          =      1.084100    -0.000678    -0.000063     1.084037
	   10 R(5,10)         =      1.084108     0.000775     0.000198     1.084306
	   11 R(8,11)         =      1.525932     0.001980     0.000640     1.526572
	   12 R(8,12)         =      1.087773    -0.000143     0.000041     1.087814
	   13 R(8,13)         =      1.087768    -0.000212     0.000077     1.087845
	   14 R(11,14)        =      1.524931    -0.000016     0.000262     1.525192
	   15 R(11,15)        =      1.086350    -0.000242     0.000108     1.086458
	   16 R(11,16)        =      1.086351    -0.000125     0.000174     1.086525
	   17 R(14,17)        =      1.085004    -0.000624     0.000561     1.085565
	   18 R(14,18)        =      1.083852     0.000109     0.000917     1.084768
	   19 R(14,19)        =      1.085004     0.000700     0.000730     1.085734
	   20 R(20,21)        =      1.079913     0.000059     0.000074     1.079988
	   21 R(20,22)        =      1.077890     0.000075     0.000094     1.077984
	   22 R(20,23)        =      1.079914     0.000055     0.000072     1.079985
	   23 B(1,2,3)        =    125.516152    -0.000001    -0.004671   125.511481
	   24 B(1,2,4)        =    123.191450    -0.000001     0.000738   123.192188
	   25 B(2,3,5)        =    113.772299    -0.000001    -0.005080   113.767218
	   26 B(2,3,6)        =    107.192519     0.000001    -0.006498   107.186021
	   27 B(2,3,7)        =    107.194026    -0.000001    -0.005005   107.189022
	   28 B(2,4,20)       =    117.333982     0.000000     0.000418   117.334400
	   29 B(3,2,4)        =    111.292398     0.000001     0.003933   111.296331
	   30 B(3,5,8)        =    112.363293     0.000001     0.004777   112.368070
	   31 B(3,5,9)        =    109.243417     0.000004     0.017105   109.260522
	   32 B(3,5,10)       =    109.242273    -0.000004    -0.012638   109.229635
	   33 B(4,20,21)      =    110.675982     0.000001     0.001261   110.677243
	   34 B(4,20,22)      =    106.027618     0.000000     0.003035   106.030653
	   35 B(4,20,23)      =    110.675454     0.000001     0.002183   110.677637
	   36 B(5,3,6)        =    111.237514    -0.000001    -0.010184   111.227330
	   37 B(5,3,7)        =    111.238668     0.000002     0.019638   111.258306
	   38 B(5,8,11)       =    113.128747     0.000004     0.113183   113.241929
	   39 B(5,8,12)       =    109.482380     0.000008     0.408460   109.890841
	   40 B(5,8,13)       =    109.482863    -0.000005    -0.109973   109.372890
	   41 B(6,3,7)        =    105.773109     0.000000     0.007368   105.780476
	   42 B(8,5,9)        =    109.858066    -0.000006    -0.049122   109.808943
	   43 B(8,5,10)       =    109.856210     0.000005     0.036183   109.892393
	   44 B(8,11,14)      =    113.131179     0.000006     0.138366   113.269546
	   45 B(8,11,15)      =    109.233506     0.000002     0.132852   109.366358
	   46 B(8,11,16)      =    109.233861    -0.000005    -0.242604   108.991257
	   47 B(9,5,10)       =    106.078800     0.000000     0.003703   106.082503
	   48 B(11,8,12)      =    109.169745     0.000003     0.134790   109.304535
	   49 B(11,8,13)      =    109.170003    -0.000005    -0.231815   108.938188
	   50 B(11,14,17)     =    111.164375    -0.000010    -0.074561   111.089814
	   51 B(11,14,18)     =    111.222536     0.000001     0.029976   111.252512
	   52 B(11,14,19)     =    111.163563     0.000008     0.007009   111.170572
	   53 B(12,8,13)      =    106.169187    -0.000006    -0.349118   105.820069
	   54 B(14,11,15)     =    109.387819     0.000009     0.404084   109.791903
	   55 B(14,11,16)     =    109.389031    -0.000006    -0.127473   109.261558
	   56 B(15,11,16)     =    106.232118    -0.000005    -0.340170   105.891948
	   57 B(17,14,18)     =    107.729015     0.000005     0.019900   107.748914
	   58 B(17,14,19)     =    107.659979     0.000001     0.035492   107.695471
	   59 B(18,14,19)     =    107.728955    -0.000004    -0.015546   107.713409
	   60 B(21,20,22)     =    110.197939    -0.000001    -0.003774   110.194165
	   61 B(21,20,23)     =    109.042804    -0.000001     0.000289   109.043093
	   62 B(22,20,23)     =    110.197249    -0.000001    -0.003024   110.194226
	   63 D(1,2,3,5)      =     -0.016850     0.000000     0.018264     0.001414
	   64 D(1,2,3,6)      =    123.392616    -0.000000    -0.002852   123.389764
	   65 D(1,2,3,7)      =   -123.428894    -0.000000     0.000204  -123.428690
	   66 D(1,2,4,20)     =      0.000000    -0.000000    -0.007700    -0.007700
	   67 D(2,3,5,8)      =   -179.992104    -0.000001    -0.146388  -180.138492
	   68 D(2,3,5,9)      =     57.821421     0.000000    -0.099143    57.722278
	   69 D(2,3,5,10)     =    -57.808799     0.000000    -0.106046   -57.914845
	   70 D(2,4,20,21)    =    -60.505098    -0.000000     0.000976   -60.504122
	   71 D(2,4,20,22)    =    179.998453     0.000000     0.003007   180.001460
	   72 D(2,4,20,23)    =     60.503117     0.000000     0.003638    60.506754
	   73 D(3,2,4,20)     =    179.993324     0.000000     0.006676   180.000000
	   74 D(3,5,8,11)     =    179.979353    -0.000002    -1.783876   178.195478
	   75 D(3,5,8,12)     =    -58.024661     0.000000    -1.232273   -59.256935
	   76 D(3,5,8,13)     =     57.982687    -0.000001    -1.483890    56.498797
	   77 D(4,2,3,5)      =    179.989348     0.000000     0.003975   179.993323
	   78 D(4,2,3,6)      =    -56.601185    -0.000000    -0.017142   -56.618327
	   79 D(4,2,3,7)      =     56.577305    -0.000000    -0.014086    56.563219
	   80 D(5,8,11,14)    =    174.268254     0.000007     1.414015   175.682269
	   81 D(5,8,11,15)    =     52.170861     0.000004     0.701737    52.872599
	   82 D(5,8,11,16)    =    -63.632543     0.000006     1.169210   -62.463333
	   83 D(6,3,5,8)      =     58.829697    -0.000001    -0.126588    58.703109
	   84 D(6,3,5,9)      =    -63.356778     0.000000    -0.079343   -63.436121
	   85 D(6,3,5,10)     =   -178.986998     0.000000    -0.086246  -179.073244
	   86 D(7,3,5,8)      =    -58.811066    -0.000001    -0.141872   -58.952938
	   87 D(7,3,5,9)      =    179.002459     0.000000    -0.094627   178.907832
	   88 D(7,3,5,10)     =     63.372239     0.000000    -0.101530    63.270709
	   89 D(8,11,14,17)   =    -59.945761    -0.000002    -1.504108   -61.449869
	   90 D(8,11,14,18)   =   -179.988260    -0.000002    -1.499274  -181.487534
	   91 D(8,11,14,19)   =     59.969863    -0.000002    -1.504456    58.465406
	   92 D(9,5,8,11)     =    -58.183320    -0.000002    -1.793568   -59.976888
	   93 D(9,5,8,12)     =     63.812665     0.000001    -1.241966    62.570699
	   94 D(9,5,8,13)     =    179.820013    -0.000000    -1.493583   178.326431
	   95 D(10,5,8,11)    =     58.144803    -0.000002    -1.796626    56.348177
	   96 D(10,5,8,12)    =   -179.859211     0.000001    -1.245024  -181.104236
	   97 D(10,5,8,13)    =    -63.851863    -0.000000    -1.496641   -65.348504
	   98 D(12,8,11,14)   =     52.097370     0.000004     0.712278    52.809647
	   99 *D(12,8,11,15)  =    -70.000023    -0.000000     0.000000   -70.000023
	  100 D(12,8,11,16)   =    174.196573     0.000002     0.467473   174.664046
	  101 D(13,8,11,14)   =    -63.560057     0.000006     1.182373   -62.377684
	  102 D(13,8,11,15)   =    174.342551     0.000002     0.470096   174.812646
	  103 D(13,8,11,16)   =     58.539146     0.000004     0.937569    59.476715
	  104 D(15,11,14,17)  =     62.065280     0.000001    -0.941315    61.123966
	  105 D(15,11,14,18)  =    -57.977219     0.000001    -0.936481   -58.913700
	  106 D(15,11,14,19)  =   -178.019096     0.000001    -0.941663  -178.960759
	  107 D(16,11,14,17)  =    178.041865    -0.000000    -1.194821   176.847044
	  108 D(16,11,14,18)  =     57.999366    -0.000000    -1.189987    56.809379
	  109 D(16,11,14,19)  =    -62.042511    -0.000001    -1.195169   -63.237680
	 ---------------------------------------------------------------------------

  ==> Convergence Check <==

  Measures of convergence in internal coordinates in au.
  Criteria marked as inactive (o), active & met (*), and active & unmet ( ).
  --------------------------------------------------------------------------------------------- ~
   Step     Total Energy     Delta E     MAX Force     RMS Force      MAX Disp      RMS Disp    ~
  --------------------------------------------------------------------------------------------- ~
    Convergence Criteria    1.00e-06 *    3.00e-04 *             o    1.20e-03 *             o  ~
  --------------------------------------------------------------------------------------------- ~
      1    -423.13097247   -4.23e+02      4.22e-04      8.98e-05 o    3.14e-02      1.09e-02 o  ~
  ---------------------------------------------------------------------------------------------

	Writing optimization data to binary file.
	Structure for next step:
	Cartesian Geometry (in Angstrom)
	    O     1.8485866414   1.2938047932   0.0037578852
	    C     1.7049461000   0.1188873355   0.0138029510
	    C     0.3809838672  -0.6012894489   0.0104418572
	    O     2.7161003656  -0.7343768614   0.0298628274
	    C    -0.8233981478   0.3291719525  -0.0076991098
	    H     0.3785755279  -1.2638790694  -0.8489578133
	    H     0.3654757670  -1.2479813546   0.8817204086
	    C    -2.1455039622  -0.4324479180  -0.0140624859
	    H    -0.7655543426   0.9719999913  -0.8786544125
	    H    -0.7801859585   0.9860818805   0.8538814813
	    C    -3.3676198150   0.4819808853   0.0119286283
	    H    -2.1971426663  -1.0769558480  -0.8888672149
	    H    -2.1833404402  -1.0968787642   0.8464641068
	    C    -4.6878709347  -0.2734379364  -0.0998346096
	    H    -3.2906655721   1.2091258068  -0.7916445060
	    H    -3.3601219404   1.0560603930   0.9343777716
	    H    -4.7500146212  -0.8145635483  -1.0388622347
	    H    -5.5337682438   0.4039723628  -0.0519276547
	    H    -4.7962638580  -0.9946621319   0.7044699486
	    C     4.0216832147  -0.1934112128   0.0348080169
	    H     4.1904148491   0.4036856129  -0.8491480009
	    H     4.6932228765  -1.0365640794   0.0481052029
	    H     4.1767695492   0.4205558296   0.9096573256
			--------------------------
			 OPTKING Finished Execution 
			--------------------------

    Structure for next step:
    Molecular point group: c1
    Full point group: C1

    Geometry (in Angstrom), charge = 0, multiplicity = 1:

    O            1.848206585323     1.293764979513     0.005605146746
    C            1.704566054844     0.118847611561     0.015650211764
    C            0.380603923208    -0.601329117878     0.012289118191
    O            2.715720243199    -0.734416520251     0.031710086979
    C           -0.823777999881     0.329132212485    -0.005851847381
    H            0.378195584047    -1.263918687835    -0.847110486642
    H            0.365095824165    -1.248020974169     0.883567603060
    C           -2.145883713284    -0.432487599838    -0.012215222975
    H           -0.765934199121     0.971960202160    -0.876807083579
    H           -0.780565813909     0.986042090343     0.855728677870
    C           -3.367999472814     0.481941133594     0.013775889168
    H           -2.197522413478    -1.076995480708    -0.887019885161
    H           -2.183720188444    -1.096918395374     0.848311303952
    C           -4.688250491655    -0.273477630427    -0.097987340191
    H           -3.291045235738     1.209085999607    -0.789797183784
    H           -3.360501598744     1.056020597470     0.936224962090
    H           -4.750394173422    -0.814603201044    -1.037014893543
    H           -5.534147736163     0.403932617020    -0.050080388895
    H           -4.796643406697    -0.994701770825     0.706317156621
    C            4.021302992604    -0.193450912883     0.036655276014
    H            4.190034614139     0.403645867141    -0.847300674225
    H            4.692842603197    -1.036603715146     0.049952461020
    H            4.176389315350     0.420516082627     0.911504517919

gradient() will perform analytic gradient computation.

*** tstart() called on cx1-27-2-3
*** at Fri Sep  9 22:12:22 2016


         ---------------------------------------------------------
                                   SCF
            by Justin Turney, Rob Parrish, and Andy Simmonett
                              RHF Reference
                        4 Threads,   2000 MiB Core
         ---------------------------------------------------------

  ==> Geometry <==

    Molecular point group: c1
    Full point group: C1

    Geometry (in Angstrom), charge = 0, multiplicity = 1:

       Center              X                  Y                   Z               Mass       
    ------------   -----------------  -----------------  -----------------  -----------------
           O          1.848206585323     1.293764979513     0.005605146746    15.994914619560
           C          1.704566054844     0.118847611561     0.015650211764    12.000000000000
           C          0.380603923208    -0.601329117878     0.012289118191    12.000000000000
           O          2.715720243199    -0.734416520251     0.031710086979    15.994914619560
           C         -0.823777999881     0.329132212485    -0.005851847381    12.000000000000
           H          0.378195584047    -1.263918687835    -0.847110486642     1.007825032070
           H          0.365095824165    -1.248020974169     0.883567603060     1.007825032070
           C         -2.145883713284    -0.432487599838    -0.012215222975    12.000000000000
           H         -0.765934199121     0.971960202160    -0.876807083579     1.007825032070
           H         -0.780565813909     0.986042090343     0.855728677870     1.007825032070
           C         -3.367999472814     0.481941133594     0.013775889168    12.000000000000
           H         -2.197522413478    -1.076995480708    -0.887019885161     1.007825032070
           H         -2.183720188444    -1.096918395374     0.848311303952     1.007825032070
           C         -4.688250491655    -0.273477630427    -0.097987340191    12.000000000000
           H         -3.291045235738     1.209085999607    -0.789797183784     1.007825032070
           H         -3.360501598744     1.056020597470     0.936224962090     1.007825032070
           H         -4.750394173422    -0.814603201044    -1.037014893543     1.007825032070
           H         -5.534147736163     0.403932617020    -0.050080388895     1.007825032070
           H         -4.796643406697    -0.994701770825     0.706317156621     1.007825032070
           C          4.021302992604    -0.193450912883     0.036655276014    12.000000000000
           H          4.190034614139     0.403645867141    -0.847300674225     1.007825032070
           H          4.692842603197    -1.036603715146     0.049952461020     1.007825032070
           H          4.176389315350     0.420516082627     0.911504517919     1.007825032070

  Running in c1 symmetry.

  Rotational constants: A =      0.24021  B =      0.01615  C =      0.01539 [cm^-1]
  Rotational constants: A =   7201.17635  B =    484.25773  C =    461.40573 [MHz]
  Nuclear repulsion =  452.812811274388480

  Charge       = 0
  Multiplicity = 1
  Electrons    = 72
  Nalpha       = 36
  Nbeta        = 36

  ==> Algorithm <==

  SCF Algorithm Type is DF.
  DIIS enabled.
  MOM disabled.
  Fractional occupation disabled.
  Guess Type is READ.
  Energy threshold   = 1.00e-08
  Density threshold  = 1.00e-08
  Integral threshold = 0.00e+00

  ==> Primary Basis <==

  Basis Set: CC-PVTZ
    Number of shells: 174
    Number of basis function: 466
    Number of Cartesian functions: 525
    Spherical Harmonics?: true
    Max angular momentum: 3

  ==> Pre-Iterations <==

   -------------------------------------------------------
    Irrep   Nso     Nmo     Nalpha   Nbeta   Ndocc  Nsocc
   -------------------------------------------------------
     A        466     466       0       0       0       0
   -------------------------------------------------------
    Total     466     466      36      36      36       0
   -------------------------------------------------------

 OEINTS: Overlap, kinetic, potential, dipole, and quadrupole integrals
         stored in file 35.

  ==> Integral Setup <==

  ==> DFJK: Density-Fitted J/K Matrices <==

    J tasked:                  Yes
    K tasked:                  Yes
    wK tasked:                  No
    OpenMP threads:              4
    Integrals threads:           4
    Memory (MB):              1430
    Algorithm:                Core
    Integral Cache:           NONE
    Schwarz Cutoff:          1E-12
    Fitting Condition:       1E-12

   => Auxiliary Basis Set <=

  Basis Set: 
    Number of shells: 365
    Number of basis function: 1131
    Number of Cartesian functions: 1354
    Spherical Harmonics?: true
    Max angular momentum: 4

  Minimum eigenvalue in the overlap matrix is 1.9986562835E-04.
  Using Symmetric Orthogonalization.
  SCF Guess: Reading in previously saved MOs, projecting if necessary.

  Using orbitals from previous SCF, no projection.
  Recomputing DOCC and SOCC from number of alpha and beta electrons from previous calculation.
              A 
    DOCC [    36 ]

  ==> Iterations <==

                           Total Energy        Delta E     RMS |[F,P]|

   @DF-RHF iter   0:  -423.12747499050005   -4.23127e+02   1.00855e-04 
   @DF-RHF iter   1:  -423.13090515860375   -3.43017e-03   1.85547e-05 
   @DF-RHF iter   2:  -423.13097471826978   -6.95597e-05   6.26049e-06 DIIS
   @DF-RHF iter   3:  -423.13098525769300   -1.05394e-05   1.45446e-06 DIIS
   @DF-RHF iter   4:  -423.13098566970581   -4.12013e-07   5.42169e-07 DIIS
   @DF-RHF iter   5:  -423.13098576864974   -9.89439e-08   2.21969e-07 DIIS
   @DF-RHF iter   6:  -423.13098578563785   -1.69881e-08   1.14735e-07 DIIS
   @DF-RHF iter   7:  -423.13098579069953   -5.06168e-09   4.19156e-08 DIIS
   @DF-RHF iter   8:  -423.13098579133936   -6.39830e-10   1.42859e-08 DIIS
   @DF-RHF iter   9:  -423.13098579141075   -7.13953e-11   4.82745e-09 DIIS

  ==> Post-Iterations <==

    Orbital Energies (a.u.)
    -----------------------

    Doubly Occupied:                                                      

       1A    -20.596315     2A    -20.534141     3A    -11.364593  
       4A    -11.278510     5A    -11.233856     6A    -11.217360  
       7A    -11.215875     8A    -11.214594     9A    -11.208214  
      10A     -1.472158    11A     -1.365764    12A     -1.094365  
      13A     -1.044656    14A     -0.987995    15A     -0.932669  
      16A     -0.844204    17A     -0.795688    18A     -0.769302  
      19A     -0.699122    20A     -0.686875    21A     -0.675371  
      22A     -0.652341    23A     -0.609579    24A     -0.601023  
      25A     -0.573545    26A     -0.560341    27A     -0.557289  
      28A     -0.525272    29A     -0.522164    30A     -0.508339  
      31A     -0.484910    32A     -0.470578    33A     -0.466588  
      34A     -0.463396    35A     -0.458981    36A     -0.438465  

    Virtual:                                                              

      37A      0.137765    38A      0.148761    39A      0.162588  
      40A      0.166852    41A      0.171258    42A      0.192599  
      43A      0.201302    44A      0.211093    45A      0.217123  
      46A      0.226201    47A      0.229287    48A      0.239490  
      49A      0.241619    50A      0.261021    51A      0.269721  
      52A      0.281527    53A      0.311856    54A      0.315910  
      55A      0.353032    56A      0.374074    57A      0.376387  
      58A      0.380732    59A      0.394173    60A      0.403119  
      61A      0.415228    62A      0.437007    63A      0.437669  
      64A      0.461216    65A      0.475148    66A      0.488512  
      67A      0.499488    68A      0.509693    69A      0.517908  
      70A      0.548685    71A      0.552731    72A      0.562774  
      73A      0.563287    74A      0.566112    75A      0.599114  
      76A      0.611069    77A      0.619763    78A      0.626818  
      79A      0.628064    80A      0.634923    81A      0.645980  
      82A      0.648508    83A      0.651782    84A      0.656643  
      85A      0.661308    86A      0.668100    87A      0.673475  
      88A      0.684038    89A      0.688140    90A      0.693231  
      91A      0.703801    92A      0.716449    93A      0.738833  
      94A      0.744469    95A      0.766047    96A      0.779974  
      97A      0.811365    98A      0.823686    99A      0.828590  
     100A      0.837956   101A      0.876393   102A      0.879382  
     103A      0.883416   104A      0.893193   105A      0.917984  
     106A      0.926771   107A      0.958503   108A      0.962461  
     109A      0.975328   110A      0.992933   111A      0.995034  
     112A      1.003596   113A      1.015943   114A      1.037036  
     115A      1.057374   116A      1.068409   117A      1.075462  
     118A      1.106596   119A      1.115554   120A      1.118745  
     121A      1.142905   122A      1.164787   123A      1.166931  
     124A      1.176699   125A      1.187386   126A      1.222577  
     127A      1.225373   128A      1.244023   129A      1.248088  
     130A      1.257696   131A      1.269036   132A      1.276196  
     133A      1.280749   134A      1.284468   135A      1.317788  
     136A      1.318450   137A      1.330900   138A      1.335624  
     139A      1.343449   140A      1.359432   141A      1.363925  
     142A      1.376909   143A      1.392133   144A      1.404429  
     145A      1.415165   146A      1.431417   147A      1.435907  
     148A      1.448387   149A      1.473166   150A      1.478772  
     151A      1.483401   152A      1.488380   153A      1.501024  
     154A      1.517233   155A      1.524766   156A      1.529541  
     157A      1.537153   158A      1.548588   159A      1.566342  
     160A      1.572845   161A      1.576660   162A      1.605037  
     163A      1.609505   164A      1.611385   165A      1.621561  
     166A      1.643269   167A      1.648919   168A      1.694927  
     169A      1.703042   170A      1.729297   171A      1.741485  
     172A      1.751786   173A      1.766492   174A      1.793808  
     175A      1.800835   176A      1.810000   177A      1.821728  
     178A      1.841098   179A      1.849226   180A      1.872036  
     181A      1.879628   182A      1.887814   183A      1.924659  
     184A      1.945742   185A      1.949389   186A      2.020431  
     187A      2.062299   188A      2.071727   189A      2.148583  
     190A      2.251137   191A      2.303795   192A      2.329228  
     193A      2.342674   194A      2.448492   195A      2.468695  
     196A      2.496337   197A      2.518118   198A      2.526316  
     199A      2.574250   200A      2.608465   201A      2.621622  
     202A      2.629150   203A      2.656408   204A      2.685514  
     205A      2.710169   206A      2.720183   207A      2.723025  
     208A      2.737990   209A      2.766513   210A      2.786798  
     211A      2.801217   212A      2.805113   213A      2.828495  
     214A      2.834730   215A      2.869054   216A      2.884439  
     217A      2.922390   218A      2.925487   219A      2.931035  
     220A      2.944101   221A      2.949247   222A      2.969588  
     223A      2.985387   224A      2.989087   225A      2.998669  
     226A      3.018209   227A      3.032577   228A      3.037831  
     229A      3.060224   230A      3.066833   231A      3.098764  
     232A      3.110723   233A      3.112981   234A      3.121774  
     235A      3.138130   236A      3.145031   237A      3.159927  
     238A      3.168745   239A      3.188044   240A      3.226086  
     241A      3.248620   242A      3.254726   243A      3.273125  
     244A      3.277950   245A      3.286407   246A      3.310366  
     247A      3.313856   248A      3.331688   249A      3.342737  
     250A      3.344171   251A      3.350704   252A      3.364729  
     253A      3.368369   254A      3.391358   255A      3.395666  
     256A      3.400880   257A      3.419144   258A      3.423241  
     259A      3.425544   260A      3.444125   261A      3.447353  
     262A      3.459071   263A      3.471135   264A      3.471998  
     265A      3.481367   266A      3.484898   267A      3.489018  
     268A      3.507482   269A      3.527981   270A      3.545003  
     271A      3.556451   272A      3.560020   273A      3.573631  
     274A      3.580990   275A      3.589074   276A      3.600374  
     277A      3.617437   278A      3.629873   279A      3.651784  
     280A      3.666729   281A      3.684605   282A      3.690156  
     283A      3.722546   284A      3.737503   285A      3.739483  
     286A      3.754857   287A      3.764354   288A      3.770102  
     289A      3.778661   290A      3.802455   291A      3.824653  
     292A      3.844796   293A      3.850773   294A      3.859463  
     295A      3.868074   296A      3.873011   297A      3.884302  
     298A      3.892855   299A      3.920340   300A      3.922357  
     301A      3.946167   302A      3.958323   303A      3.967831  
     304A      3.976636   305A      3.997751   306A      4.005879  
     307A      4.061207   308A      4.064027   309A      4.078936  
     310A      4.093976   311A      4.101941   312A      4.117562  
     313A      4.128691   314A      4.137655   315A      4.156471  
     316A      4.160335   317A      4.173291   318A      4.181293  
     319A      4.187283   320A      4.204416   321A      4.207833  
     322A      4.209228   323A      4.214427   324A      4.230815  
     325A      4.242390   326A      4.271431   327A      4.276897  
     328A      4.289357   329A      4.316295   330A      4.329858  
     331A      4.342923   332A      4.351032   333A      4.361429  
     334A      4.370094   335A      4.382407   336A      4.389116  
     337A      4.403970   338A      4.410365   339A      4.417505  
     340A      4.425102   341A      4.439302   342A      4.446507  
     343A      4.461168   344A      4.475668   345A      4.517949  
     346A      4.524995   347A      4.549997   348A      4.565015  
     349A      4.579613   350A      4.589256   351A      4.591973  
     352A      4.608925   353A      4.610276   354A      4.647894  
     355A      4.654435   356A      4.659777   357A      4.677772  
     358A      4.681440   359A      4.686643   360A      4.716560  
     361A      4.722293   362A      4.749606   363A      4.762928  
     364A      4.778744   365A      4.786852   366A      4.828858  
     367A      4.844544   368A      4.882944   369A      4.913361  
     370A      4.942370   371A      4.981315   372A      4.998501  
     373A      5.025154   374A      5.044352   375A      5.059927  
     376A      5.078335   377A      5.086164   378A      5.105818  
     379A      5.135859   380A      5.153754   381A      5.168583  
     382A      5.212962   383A      5.232994   384A      5.237723  
     385A      5.255769   386A      5.263571   387A      5.281020  
     388A      5.296478   389A      5.308840   390A      5.319197  
     391A      5.332989   392A      5.337773   393A      5.365409  
     394A      5.396687   395A      5.397492   396A      5.421472  
     397A      5.457080   398A      5.463822   399A      5.494779  
     400A      5.505867   401A      5.534370   402A      5.548972  
     403A      5.589559   404A      5.596559   405A      5.608525  
     406A      5.621670   407A      5.632665   408A      5.664598  
     409A      5.668669   410A      5.702799   411A      5.743240  
     412A      5.748822   413A      5.766114   414A      5.773067  
     415A      5.814425   416A      5.832219   417A      5.847340  
     418A      5.874370   419A      5.882752   420A      5.905819  
     421A      5.916756   422A      5.923425   423A      5.931629  
     424A      5.945073   425A      5.957817   426A      5.981495  
     427A      6.034098   428A      6.039723   429A      6.080578  
     430A      6.089468   431A      6.182166   432A      6.187126  
     433A      6.245760   434A      6.275816   435A      6.322073  
     436A      6.329821   437A      6.352716   438A      6.394957  
     439A      6.424318   440A      6.502212   441A      6.596285  
     442A      6.611177   443A      6.691165   444A      6.841233  
     445A      6.869124   446A      6.896163   447A      6.914242  
     448A      7.048570   449A      7.248644   450A      7.261783  
     451A      7.373465   452A      7.484893   453A      7.505177  
     454A      7.577425   455A      7.690165   456A      7.897996  
     457A      7.982986   458A      9.974580   459A     12.098265  
     460A     13.320761   461A     13.498672   462A     13.688338  
     463A     14.049849   464A     14.157396   465A     14.257797  
     466A     14.690578  

    Final Occupation by Irrep:
              A 
    DOCC [    36 ]

  Energy converged.

  @DF-RHF Final Energy:  -423.13098579141075

   => Energetics <=

    Nuclear Repulsion Energy =            452.8128112743884799
    One-Electron Energy =               -1473.6387215649342579
    Two-Electron Energy =                 597.6949244991349133
    DFT Exchange-Correlation Energy =       0.0000000000000000
    Empirical Dispersion Energy =           0.0000000000000000
    PCM Polarization Energy =               0.0000000000000000
    EFP Energy =                            0.0000000000000000
    Total Energy =                       -423.1309857914109216

    Alert: EFP and PCM quantities not currently incorporated into SCF psivars.

Properties will be evaluated at   0.000000,   0.000000,   0.000000 Bohr
  ==> Properties <==


Properties computed using the SCF density matrix

  Nuclear Dipole Moment: (a.u.)
     X:   -12.9694      Y:    -1.9478      Z:    -0.1344

  Electronic Dipole Moment: (a.u.)
     X:    13.0466      Y:     1.2544      Z:     0.1452

  Dipole Moment: (a.u.)
     X:     0.0772      Y:    -0.6933      Z:     0.0108     Total:     0.6977

  Dipole Moment: (Debye)
     X:     0.1962      Y:    -1.7623      Z:     0.0275     Total:     1.7734


  Saving occupied orbitals to File 180.

*** tstop() called on cx1-27-2-3 at Fri Sep  9 22:12:48 2016
Module time:
	user time   =      87.03 seconds =       1.45 minutes
	system time =       1.06 seconds =       0.02 minutes
	total time  =         26 seconds =       0.43 minutes
Total time:
	user time   =     444.81 seconds =       7.41 minutes
	system time =       4.10 seconds =       0.07 minutes
	total time  =        124 seconds =       2.07 minutes

*** tstart() called on cx1-27-2-3
*** at Fri Sep  9 22:12:48 2016


         ------------------------------------------------------------
                                   SCF GRAD                          
                          Rob Parrish, Justin Turney,                
                       Andy Simmonett, and Alex Sokolov              
         ------------------------------------------------------------

  ==> Geometry <==

    Molecular point group: c1
    Full point group: C1

    Geometry (in Angstrom), charge = 0, multiplicity = 1:

       Center              X                  Y                   Z               Mass       
    ------------   -----------------  -----------------  -----------------  -----------------
           O          1.848206585323     1.293764979513     0.005605146746    15.994914619560
           C          1.704566054844     0.118847611561     0.015650211764    12.000000000000
           C          0.380603923208    -0.601329117878     0.012289118191    12.000000000000
           O          2.715720243199    -0.734416520251     0.031710086979    15.994914619560
           C         -0.823777999881     0.329132212485    -0.005851847381    12.000000000000
           H          0.378195584047    -1.263918687835    -0.847110486642     1.007825032070
           H          0.365095824165    -1.248020974169     0.883567603060     1.007825032070
           C         -2.145883713284    -0.432487599838    -0.012215222975    12.000000000000
           H         -0.765934199121     0.971960202160    -0.876807083579     1.007825032070
           H         -0.780565813909     0.986042090343     0.855728677870     1.007825032070
           C         -3.367999472814     0.481941133594     0.013775889168    12.000000000000
           H         -2.197522413478    -1.076995480708    -0.887019885161     1.007825032070
           H         -2.183720188444    -1.096918395374     0.848311303952     1.007825032070
           C         -4.688250491655    -0.273477630427    -0.097987340191    12.000000000000
           H         -3.291045235738     1.209085999607    -0.789797183784     1.007825032070
           H         -3.360501598744     1.056020597470     0.936224962090     1.007825032070
           H         -4.750394173422    -0.814603201044    -1.037014893543     1.007825032070
           H         -5.534147736163     0.403932617020    -0.050080388895     1.007825032070
           H         -4.796643406697    -0.994701770825     0.706317156621     1.007825032070
           C          4.021302992604    -0.193450912883     0.036655276014    12.000000000000
           H          4.190034614139     0.403645867141    -0.847300674225     1.007825032070
           H          4.692842603197    -1.036603715146     0.049952461020     1.007825032070
           H          4.176389315350     0.420516082627     0.911504517919     1.007825032070

  Nuclear repulsion =  452.812811274388480

  ==> Basis Set <==

  Basis Set: CC-PVTZ
    Number of shells: 174
    Number of basis function: 466
    Number of Cartesian functions: 525
    Spherical Harmonics?: true
    Max angular momentum: 3

  ==> DFJKGrad: Density-Fitted SCF Gradients <==

    Gradient:                    1
    J tasked:                  Yes
    K tasked:                  Yes
    wK tasked:                  No
    OpenMP threads:              4
    Integrals threads:           4
    Memory (MB):              1430
    Schwarz Cutoff:          0E+00
    Fitting Condition:       1E-12

   => Auxiliary Basis Set <=

  Basis Set: 
    Number of shells: 365
    Number of basis function: 1131
    Number of Cartesian functions: 1354
    Spherical Harmonics?: true
    Max angular momentum: 4


  -Total Gradient:
     Atom            X                  Y                   Z
    ------   -----------------  -----------------  -----------------
       1       -0.000010363672     0.000100155706     0.000003117429
       2       -0.000044656656    -0.000057116849    -0.000008651130
       3        0.000042525131     0.000052130470     0.000122575847
       4        0.000052329770    -0.000066183736     0.000005581920
       5        0.000180754142     0.000062983961     0.000263324351
       6       -0.000001851175    -0.000001278762    -0.000036328859
       7        0.000023429609    -0.000061983106     0.000049928742
       8        0.000895456823     0.000987264463    -0.000900555567
       9       -0.000080109783    -0.000065952228    -0.000045750874
      10        0.000107218578     0.000121631525     0.000030690654
      11       -0.000658299444    -0.000937600930    -0.001047661939
      12       -0.000724857805    -0.000816664243     0.000619283299
      13        0.000128759627     0.000064199795    -0.000084695735
      14        0.000055690785    -0.000044868454     0.000396370839
      15        0.000660702605     0.000778853076     0.000679422861
      16       -0.000101483101    -0.000045087617    -0.000019821825
      17        0.000100634675    -0.000087863280    -0.000443193074
      18       -0.000553885835     0.000358946034     0.000078383467
      19       -0.000100017828    -0.000341568183     0.000339193251
      20       -0.000005477069     0.000001735820    -0.000000609535
      21       -0.000000415120     0.000021492026    -0.000039718220
      22        0.000035053986    -0.000044912950     0.000000810602
      23       -0.000001138231     0.000021687465     0.000038303496


*** tstop() called on cx1-27-2-3 at Fri Sep  9 22:13:46 2016
Module time:
	user time   =     220.58 seconds =       3.68 minutes
	system time =       0.91 seconds =       0.02 minutes
	total time  =         58 seconds =       0.97 minutes
Total time:
	user time   =     665.40 seconds =      11.09 minutes
	system time =       5.01 seconds =       0.08 minutes
	total time  =        182 seconds =       3.03 minutes
CURRENT ENERGY: -423.1309857914

			-----------------------------------------
			 OPTKING 2.0: for geometry optimizations 
			  - R.A. King,  Bethel University        
			-----------------------------------------

	Previous internal coordinate definitions found.
	---Fragment 1 Geometry and Gradient---
	 O           3.4926042833        2.4448614916        0.0105921923
	 C           3.2211630191        0.2245894374        0.0295746142
	 C           0.7192371800       -1.1363473485        0.0232230678
	 O           5.1319675132       -1.3878460907        0.0599233800
	 C          -1.5567148141        0.6219697431       -0.0110583889
	 H           0.7146860785       -2.3884601742       -1.6008068240
	 H           0.6899311199       -2.3584178493        1.6697007897
	 C          -4.0551325311       -0.8172831196       -0.0230834261
	 H          -1.4474058722        1.8367385941       -1.6569252593
	 H          -1.4750556170        1.8633495062        1.6170928452
	 C          -6.3645966193        0.9107367547        0.0260326578
	 H          -4.1527155324       -2.0352265049       -1.6762246574
	 H          -4.1266331070       -2.0728753574        1.6030760399
	 C          -8.8595094716       -0.5167978250       -0.1851692375
	 H          -6.2191741865        2.2848414104       -1.4925003779
	 H          -6.3504276908        1.9955897199        1.7692087771
	 H          -8.9769440110       -1.5393769569       -1.9596741445
	 H         -10.4580236003        0.7633220223       -0.0946382196
	 H          -9.0643423958       -1.8797139308        1.3347459890
	 C           7.5991613534       -0.3655692455        0.0692684330
	 H           7.9180179080        0.7627801436       -1.6011662265
	 H           8.8681873048       -1.9588971300        0.0943964710
	 H           7.8922320303        0.7946602306        1.7224939078
	            -0.0000103637        0.0001001557        0.0000031174
	            -0.0000446567       -0.0000571168       -0.0000086511
	             0.0000425251        0.0000521305        0.0001225758
	             0.0000523298       -0.0000661837        0.0000055819
	             0.0001807541        0.0000629840        0.0002633244
	            -0.0000018512       -0.0000012788       -0.0000363289
	             0.0000234296       -0.0000619831        0.0000499287
	             0.0008954568        0.0009872645       -0.0009005556
	            -0.0000801098       -0.0000659522       -0.0000457509
	             0.0001072186        0.0001216315        0.0000306907
	            -0.0006582994       -0.0009376009       -0.0010476619
	            -0.0007248578       -0.0008166642        0.0006192833
	             0.0001287596        0.0000641998       -0.0000846957
	             0.0000556908       -0.0000448685        0.0003963708
	             0.0006607026        0.0007788531        0.0006794229
	            -0.0001014831       -0.0000450876       -0.0000198218
	             0.0001006347       -0.0000878633       -0.0004431931
	            -0.0005538858        0.0003589460        0.0000783835
	            -0.0001000178       -0.0003415682        0.0003391933
	            -0.0000054771        0.0000017358       -0.0000006095
	            -0.0000004151        0.0000214920       -0.0000397182
	             0.0000350540       -0.0000449129        0.0000008106
	            -0.0000011382        0.0000216875        0.0000383035

	---Fragment 1 Intrafragment Coordinates---
	 - Coordinate -           - BOHR/RAD -       - ANG/DEG -
	 R(1,2)           =         2.236884	       1.183708
	 R(2,3)           =         2.848126	       1.507164
	 R(2,4)           =         2.500409	       1.323159
	 R(3,5)           =         2.876250	       1.522046
	 R(3,6)           =         2.050678	       1.085172
	 R(3,7)           =         2.050659	       1.085162
	 R(4,20)          =         2.670615	       1.413229
	 R(5,8)           =         2.883346	       1.525801
	 R(5,9)           =         2.048534	       1.084037
	 R(5,10)          =         2.049041	       1.084306
	 R(8,11)          =         2.884803	       1.526572
	 R(8,12)          =         2.055671	       1.087814
	 R(8,13)          =         2.055728	       1.087845
	 R(11,14)         =         2.882196	       1.525192
	 R(11,15)         =         2.053108	       1.086458
	 R(11,16)         =         2.053234	       1.086525
	 R(14,17)         =         2.051421	       1.085565
	 R(14,18)         =         2.049915	       1.084768
	 R(14,19)         =         2.051741	       1.085734
	 R(20,21)         =         2.040881	       1.079988
[...]
	 B(17,14,19)      =         1.879041	     107.661126
	 B(18,14,19)      =         1.880098	     107.721680
	 B(21,20,22)      =         1.923230	     110.192953
	 B(21,20,23)      =         1.903098	     109.039509
	 B(22,20,23)      =         1.923228	     110.192863
	 D(1,2,3,5)       =         0.000336	       0.019273
	 D(1,2,3,6)       =         2.153985	     123.414250
	 D(1,2,3,7)       =        -2.153724	    -123.399278
	 D(1,2,4,20)      =        -0.000512	      -0.029362
	 D(2,3,5,8)       =         3.139874	     179.901512
	 D(2,3,5,9)       =         1.007269	      57.712239
	 D(2,3,5,10)      =        -1.011004	     -57.926280
	 D(2,4,20,21)     =        -1.056036	     -60.506412
	 D(2,4,20,22)     =         3.141568	     179.998580
	 D(2,4,20,23)     =         1.055990	      60.503790
	 D(3,2,4,20)      =        -3.141181	    -179.976430
	 D(3,5,8,11)      =         3.124059	     178.995412
	 D(3,5,8,12)      =        -1.022316	     -58.574370
	 D(3,5,8,13)      =         0.998319	      57.199483
	 D(4,2,3,5)       =         3.140979	     179.964852
	 D(4,2,3,6)       =        -0.988557	     -56.640171
	 D(4,2,3,7)       =         0.986919	      56.546300
	 D(5,8,11,14)     =         3.060473	     175.352212
	 D(5,8,11,15)     =         0.919843	      52.703098
	 D(5,8,11,16)     =        -1.093714	     -62.665209
	 D(6,3,5,8)       =         1.025108	      58.734338
	 D(6,3,5,9)       =        -1.107498	     -63.454935
	 D(6,3,5,10)      =        -3.125770	    -179.093454
	 D(7,3,5,8)       =        -1.028327	     -58.918789
	 D(7,3,5,9)       =         3.122253	     178.891938
	 D(7,3,5,10)      =         1.103980	      63.253418
	 D(8,11,14,17)    =        -1.060280	     -60.749560
	 D(8,11,14,18)    =         3.127229	     179.177035
	 D(8,11,14,19)    =         1.032458	      59.155498
	 D(9,5,8,11)      =        -1.032503	     -59.158091
	 D(9,5,8,12)      =         1.104307	      63.272127
	 D(9,5,8,13)      =         3.124942	     179.045980
	 D(10,5,8,11)     =         0.997661	      57.161773
	 D(10,5,8,12)     =         3.134472	     179.591991
	 D(10,5,8,13)     =        -1.128079	     -64.634156
	 D(12,8,11,14)    =         0.918900	      52.649091
	*D(12,8,11,15)    =        -1.221731	     -70.000023
	 D(12,8,11,16)    =         3.047898	     174.631670
	 D(13,8,11,14)    =        -1.092186	     -62.577630
	 D(13,8,11,15)    =         3.050369	     174.773256
	 D(13,8,11,16)    =         1.036812	      59.404949
	 D(15,11,14,17)   =         1.076863	      61.699693
	 D(15,11,14,18)   =        -1.018813	     -58.373713
	 D(15,11,14,19)   =        -3.113584	    -178.395249
	 D(16,11,14,17)   =         3.096973	     177.443476
	 D(16,11,14,18)   =         1.001297	      57.370071
	 D(16,11,14,19)   =        -1.093474	     -62.651466

	Current energy   :      -423.1309939265

	Energy change for the previous step:
		Projected    :        -0.0000003032
		Actual       :        -0.0000000374
	Energy ratio indicates iffy step: Trust radius decreased to 1.250e-01.


	Performing BFGS update.
	Previous computed or guess Hessian on step 1.
	Steps to be used in Hessian update: 3 2
	Taking RFO optimization step.
	Going to follow RFO solution 1.
	Using RFO vector 1.
	Norm of target step-size    0.00653
	Projected energy change by RFO approximation:        -0.0000000990

	Back-transformation to cartesian coordinates...
	Successfully converged to displaced geometry.

	Back-transformation to cartesian coordinates to adjust frozen coordinates...
	Successfully converged to displaced geometry.

	--- Internal Coordinate Step in ANG or DEG, aJ/ANG or AJ/DEG ---
	 ---------------------------------------------------------------------------
	   Coordinate                Previous        Force       Change         New 
	   ----------                --------       ------       ------       ------
	    1 R(1,2)          =      1.183665     0.000010    -0.000002     1.183663
	    2 R(2,3)          =      1.507159    -0.000004     0.000007     1.507167
	    3 R(2,4)          =      1.323073    -0.000037    -0.000004     1.323069
	    4 R(3,5)          =      1.521918    -0.000001     0.000006     1.521924
	    5 R(3,6)          =      1.085104     0.000089    -0.000006     1.085098
	    6 R(3,7)          =      1.085072    -0.000049    -0.000004     1.085068
	    7 R(4,20)         =      1.413195    -0.000027    -0.000008     1.413186
	    8 R(5,8)          =      1.525338     0.000070    -0.000079     1.525259
	    9 R(5,9)          =      1.084020     0.000015     0.000002     1.084022
	   10 R(5,10)         =      1.084188     0.000062    -0.000002     1.084186
	   11 R(8,11)         =      1.526180    -0.000007    -0.000024     1.526156
	   12 R(8,12)         =      1.087813     0.000041     0.000033     1.087846
	   13 R(8,13)         =      1.087974    -0.000015     0.000042     1.088015
	   14 R(11,14)        =      1.524455     0.000131    -0.000088     1.524367
	   15 R(11,15)        =      1.086372     0.000106     0.000027     1.086399
	   16 R(11,16)        =      1.086562    -0.000040     0.000037     1.086599
	   17 R(14,17)        =      1.084911     0.000124    -0.000025     1.084885
	   18 R(14,18)        =      1.083815     0.000149    -0.000036     1.083780
	   19 R(14,19)        =      1.085054     0.000167    -0.000018     1.085036
	   20 R(20,21)        =      1.079924     0.000025    -0.000001     1.079924
	   21 R(20,22)        =      1.077905     0.000009    -0.000002     1.077903
	   22 R(20,23)        =      1.079925     0.000011    -0.000001     1.079923
	   23 B(1,2,3)        =    125.514699     0.000000    -0.001065   125.513634
	   24 B(1,2,4)        =    123.189651    -0.000000     0.000883   123.190535
	   25 B(2,3,5)        =    113.764390    -0.000000     0.001187   113.765578
	   26 B(2,3,6)        =    107.192645     0.000001     0.003459   107.196105
	   27 B(2,3,7)        =    107.191148    -0.000000    -0.003377   107.187771
	   28 B(2,4,20)       =    117.334996    -0.000000     0.001671   117.336668
	   29 B(3,2,4)        =    111.295626    -0.000000    -0.000040   111.295587
	   30 B(3,5,8)        =    112.369688     0.000000     0.005268   112.374956
	   31 B(3,5,9)        =    109.249804    -0.000000     0.000471   109.250275
	   32 B(3,5,10)       =    109.246009    -0.000000    -0.003643   109.242366
	   33 B(4,20,21)      =    110.680419     0.000000     0.000315   110.680735
	   34 B(4,20,22)      =    106.031182    -0.000000     0.000824   106.032006
	   35 B(4,20,23)      =    110.680218    -0.000000    -0.000629   110.679590
	   36 B(5,3,6)        =    111.230188    -0.000000    -0.002982   111.227207
	   37 B(5,3,7)        =    111.249507     0.000000     0.001417   111.250924
	   38 B(5,8,11)       =    113.220508    -0.000000     0.001091   113.221599
	   39 B(5,8,12)       =    109.779994     0.000001    -0.012069   109.767926
	   40 B(5,8,13)       =    109.465150    -0.000000     0.001348   109.466498
	   41 B(6,3,7)        =    105.781193    -0.000000     0.000288   105.781481
	   42 B(8,5,9)        =    109.853348    -0.000001     0.001849   109.855197
	   43 B(8,5,10)       =    109.842046     0.000001    -0.002203   109.839844
	   44 B(8,11,14)      =    113.227338     0.000000     0.000122   113.227461
	   45 B(8,11,15)      =    109.343474    -0.000000    -0.006375   109.337099
	   46 B(8,11,16)      =    109.041668    -0.000000     0.007919   109.049587
	   47 B(9,5,10)       =    106.081043    -0.000000    -0.002197   106.078846
	   48 B(11,8,12)      =    109.288711    -0.000001    -0.006047   109.282665
	   49 B(11,8,13)      =    108.974910     0.000001     0.007513   108.982423
	   50 B(11,14,17)     =    111.167796    -0.000001    -0.000487   111.167310
	   51 B(11,14,18)     =    111.227352     0.000000     0.005689   111.233041
	   52 B(11,14,19)     =    111.142190     0.000001    -0.001579   111.140611
	   53 B(12,8,13)      =    105.843454     0.000000     0.008838   105.852292
	   54 B(14,11,15)     =    109.703245     0.000000    -0.012150   109.691095
	   55 B(14,11,16)     =    109.355525    -0.000000     0.003532   109.359057
	   56 B(15,11,16)     =    105.906268     0.000000     0.007598   105.913866
	   57 B(17,14,18)     =    107.749054     0.000000    -0.001253   107.747800
	   58 B(17,14,19)     =    107.661126    -0.000000    -0.004314   107.656812
	   59 B(18,14,19)     =    107.721680    -0.000000     0.001711   107.723392
	   60 B(21,20,22)     =    110.192953    -0.000000    -0.000138   110.192815
	   61 B(21,20,23)     =    109.039509    -0.000000    -0.000491   109.039018
	   62 B(22,20,23)     =    110.192863     0.000000     0.000151   110.193014
	   63 D(1,2,3,5)      =      0.019273    -0.000001    -0.105693    -0.086420
	   64 D(1,2,3,6)      =    123.414250    -0.000000    -0.106186   123.308064
	   65 D(1,2,3,7)      =   -123.399278    -0.000000    -0.105818  -123.505096
	   66 D(1,2,4,20)     =     -0.029362     0.000000     0.109712     0.080350
	   67 D(2,3,5,8)      =    179.901512    -0.000000     0.038198   179.939710
	   68 D(2,3,5,9)      =     57.712239     0.000000     0.031973    57.744212
	   69 D(2,3,5,10)     =    -57.926280     0.000000     0.036360   -57.889921
	   70 D(2,4,20,21)    =    -60.506412    -0.000000     0.001393   -60.505019
	   71 D(2,4,20,22)    =    179.998580     0.000000     0.001420   180.000000
	   72 D(2,4,20,23)    =     60.503790     0.000000     0.000566    60.504356
	   73 D(3,2,4,20)     =   -179.976430    -0.000000    -0.114231  -180.090661
	   74 D(3,5,8,11)     =    178.995412     0.000000    -0.035456   178.959956
	   75 D(3,5,8,12)     =    -58.574370     0.000000    -0.051402   -58.625772
	   76 D(3,5,8,13)     =     57.199483     0.000000    -0.046824    57.152658
	   77 D(4,2,3,5)      =    179.964852     0.000000     0.124545   180.089397
	   78 D(4,2,3,6)      =    -56.640171     0.000001     0.124052   -56.516119
	   79 D(4,2,3,7)      =     56.546300     0.000001     0.124421    56.670721
	   80 D(5,8,11,14)    =    175.352212     0.000000    -0.039508   175.312704
	   81 D(5,8,11,15)    =     52.703098     0.000000    -0.019244    52.683854
	   82 D(5,8,11,16)    =    -62.665209     0.000000    -0.029187   -62.694397
	   83 D(6,3,5,8)      =     58.734338    -0.000000     0.035051    58.769389
	   84 D(6,3,5,9)      =    -63.454935    -0.000000     0.028825   -63.426110
	   85 D(6,3,5,10)     =   -179.093454     0.000000     0.033212  -179.060242
	   86 D(7,3,5,8)      =    -58.918789    -0.000000     0.035696   -58.883093
	   87 D(7,3,5,9)      =    178.891938    -0.000000     0.029471   178.921408
	   88 D(7,3,5,10)     =     63.253418     0.000000     0.033858    63.287276
	   89 D(8,11,14,17)   =    -60.749560    -0.000000     0.027050   -60.722510
	   90 D(8,11,14,18)   =    179.177035    -0.000000     0.025138   179.202173
	   91 D(8,11,14,19)   =     59.155498    -0.000000     0.020216    59.175714
	   92 D(9,5,8,11)     =    -59.158091     0.000000    -0.029957   -59.188048
	   93 D(9,5,8,12)     =     63.272127    -0.000000    -0.045903    63.226224
	   94 D(9,5,8,13)     =    179.045980     0.000000    -0.041326   179.004655
	   95 D(10,5,8,11)    =     57.161773     0.000000    -0.032825    57.128947
	   96 D(10,5,8,12)    =    179.591991    -0.000000    -0.048771   179.543219
	   97 D(10,5,8,13)    =    -64.634156     0.000000    -0.044194   -64.678350
	   98 D(12,8,11,14)   =     52.649091     0.000000    -0.020264    52.628828
	   99 *D(12,8,11,15)  =    -70.000023    -0.000000    -0.000000   -70.000023
	  100 D(12,8,11,16)   =    174.631670    -0.000000    -0.009943   174.621727
	  101 D(13,8,11,14)   =    -62.577630     0.000000    -0.031622   -62.609251
	  102 D(13,8,11,15)   =    174.773256    -0.000000    -0.011358   174.761898
	  103 D(13,8,11,16)   =     59.404949    -0.000000    -0.021301    59.383648
	  104 D(15,11,14,17)  =     61.699693    -0.000000     0.009954    61.709647
	  105 D(15,11,14,18)  =    -58.373713     0.000000     0.008043   -58.365670
	  106 D(15,11,14,19)  =   -178.395249    -0.000000     0.003120  -178.392129
	  107 D(16,11,14,17)  =    177.443476     0.000000     0.014252   177.457728
	  108 D(16,11,14,18)  =     57.370071     0.000000     0.012341    57.382411
	  109 D(16,11,14,19)  =    -62.651466     0.000000     0.007418   -62.644047
	 ---------------------------------------------------------------------------

  ==> Convergence Check <==

  Measures of convergence in internal coordinates in au.
  Criteria marked as inactive (o), active & met (*), and active & unmet ( ).
  ---------------------------------------------------------------------------------------------
   Step     Total Energy     Delta E     MAX Force     RMS Force      MAX Disp      RMS Disp   
  ---------------------------------------------------------------------------------------------
    Convergence Criteria    1.00e-06 *    3.00e-04 *             o    1.20e-03 *             o
  ---------------------------------------------------------------------------------------------
      4    -423.13099393   -3.74e-08 *    3.10e-05 *    9.70e-06 o    2.17e-03      6.25e-04 o  ~
  ---------------------------------------------------------------------------------------------


  **** Optimization is complete! (in 4 steps) ****

  ==> Optimization Summary <==

  Measures of convergence in internal coordinates in au.
  --------------------------------------------------------------------------------------------------------------- ~
   Step         Total Energy             Delta E       MAX Force       RMS Force        MAX Disp        RMS Disp  ~
  --------------------------------------------------------------------------------------------------------------- ~
      1    -423.130972469871   -423.130972469871      0.00042197      0.00008977      0.03135705      0.01091348  ~
      2    -423.130985791411     -0.000013321540      0.00065953      0.00012889      0.01739273      0.00555959  ~
      3    -423.130993889077     -0.000008097666      0.00006670      0.00001347      0.00364616      0.00110854  ~
      4    -423.130993926484     -0.000000037407      0.00003096      0.00000970      0.00217372      0.00062521  ~
  --------------------------------------------------------------------------------------------------------------- ~

	Writing optimization data to binary file.
	Final energy is   -423.1309939264841
	Final (previous) structure:
	Cartesian Geometry (in Angstrom)
	    O     1.8476037621   1.2937287163   0.0120740645
	    C     1.7040702243   0.1188048278   0.0157747482
	    C     0.3801903783  -0.6015150371   0.0124557100
	    O     2.7152872609  -0.7343557431   0.0246761659
	    C    -0.8242013122   0.3288549442   0.0030974042
	    H     0.3751853600  -1.2594421194  -0.8504223598
	    H     0.3672786967  -1.2528077450   0.8802294512
	    C    -2.1458964280  -0.4325564951  -0.0024718406
	    H    -0.7687753415   0.9765017335  -0.8644169867
	    H    -0.7787962334   0.9809357590   0.8680789319
	    C    -3.3674149183   0.4822593992   0.0127033557
	    H    -2.1934619691  -1.0810796829  -0.8745340432
	    H    -2.1876116948  -1.0927590818   0.8612870285
	    C    -4.6860165523  -0.2734416277  -0.1063277915
	    H    -3.2855275005   1.2052987957  -0.7939636436
	    H    -3.3656495722   1.0607640698   0.9324566267
	    H    -4.7375999662  -0.8269810177  -1.0379739111
	    H    -5.5309472761   0.4047396722  -0.0777350658
	    H    -4.8048136110  -0.9835075560   0.7054828214
	    C     4.0207948978  -0.1932934959   0.0292334364
	    H     4.1872905244   0.4085215645  -0.8518648342
	    H     4.6924059934  -1.0363636186   0.0363381873
	    H     4.1780547026   0.4159836933   0.9068938614
	Saving final (previous) structure.
			--------------------------
			 OPTKING Finished Execution 
			--------------------------

    Final optimized geometry and variables:
    Molecular point group: c1
    Full point group: C1

    Geometry (in Angstrom), charge = 0, multiplicity = 1:

    O            1.847603620981     1.293728617462     0.012074063610
    C            1.704070094165     0.118804818747     0.015774746997
    C            0.380190349306    -0.601514991167     0.012455709011
    O            2.715287053543    -0.734355687021     0.024676164026
    C           -0.824201249228     0.328854919046     0.003097403983
    H            0.375185331315    -1.259442023233    -0.850422294908
    H            0.367278668610    -1.252807649309     0.880229383963
    C           -2.145896264153    -0.432556462058    -0.002471840447
    H           -0.768775282768     0.976501658902    -0.864416920640
    H           -0.778796173952     0.980935684111     0.868078865589
    C           -3.367414661176     0.482259362382     0.012703354746
    H           -2.193461801598    -1.081079600319    -0.874533976389
    H           -2.187611527777    -1.092758998313     0.861286962695
    C           -4.686016194445    -0.273441606855    -0.106327783334
    H           -3.285527249649     1.205298703687    -0.793963582978
    H           -3.365649315152     1.060763988832     0.932456555490
    H           -4.737599604370    -0.826980954517    -1.037973831857
    H           -5.530946853693     0.404739641341    -0.077735059849
    H           -4.804813244057    -0.983507480900     0.705482767570
    C            4.020794590709    -0.193293481183     0.029233434199
    H            4.187290204620     0.408521533282    -0.851864769168
    H            4.692405635094    -1.036363539447     0.036338184547
    H            4.178054383528     0.415983661525     0.906893792133

	Cleaning optimization helper files.


Properties will be evaluated at   0.000000,   0.000000,   0.000000 Bohr

Properties computed using the  density matrix

  Nuclear Dipole Moment: (a.u.)
     X:   -12.9648      Y:    -1.9474      Z:    -0.1500

  Electronic Dipole Moment: (a.u.)
     X:    13.0415      Y:     1.2540      Z:     0.1565

  Dipole Moment: (a.u.)
     X:     0.0767      Y:    -0.6934      Z:     0.0065     Total:     0.6976

  Dipole Moment: (Debye)
     X:     0.1950      Y:    -1.7624      Z:     0.0166     Total:     1.7732

  Quadrupole Moment: (Debye Ang)
    XX:   -50.1543     YY:   -62.1273     ZZ:   -55.1457
    XY:    -3.1871     XZ:    -0.0261     YZ:    -0.0453

  Traceless Quadrupole Moment: (Debye Ang)
    XX:     5.6547     YY:    -6.3182     ZZ:     0.6634
    XY:    -3.1871     XZ:    -0.0261     YZ:    -0.0453

  Mulliken Charges: (a.u.)
   Center  Symbol    Alpha    Beta     Spin     Total
       1     O     4.19703  4.19703  0.00000 -0.39406
       2     C     2.80689  2.80689  0.00000  0.38621
       3     C     3.10123  3.10123  0.00000 -0.20245
       4     O     4.14646  4.14646  0.00000 -0.29293
       5     C     3.08318  3.08318  0.00000 -0.16635
       6     H     0.44010  0.44010  0.00000  0.11981
       7     H     0.44009  0.44009  0.00000  0.11982
       8     C     3.08948  3.08948  0.00000 -0.17896
       9     H     0.44631  0.44631  0.00000  0.10739
      10     H     0.44637  0.44637  0.00000  0.10726
      11     C     3.08403  3.08403  0.00000 -0.16806
      12     H     0.45603  0.45603  0.00000  0.08794
      13     H     0.45571  0.45571  0.00000  0.08859
      14     C     3.15029  3.15029  0.00000 -0.30057
      15     H     0.45344  0.45344  0.00000  0.09311
      16     H     0.45326  0.45326  0.00000  0.09348
      17     H     0.45524  0.45524  0.00000  0.08951
      18     H     0.44772  0.44772  0.00000  0.10457
      19     H     0.45531  0.45531  0.00000  0.08938
      20     C     3.03780  3.03780  0.00000 -0.07560
      21     H     0.45435  0.45435  0.00000  0.09129
      22     H     0.44534  0.44534  0.00000  0.10933
      23     H     0.45435  0.45435  0.00000  0.09130

   Total alpha = 36.00000, Total beta = 36.00000, Total charge = -0.00000


*** PSI4 exiting successfully. Buy a developer a beer!
