    -----------------------------------------------------------------------
          Psi4: An Open-Source Ab Initio Electronic Structure Package
                              Psi4 (no tag) Driver

                          Git: Rev {detached?}  

    J. M. Turney, A. C. Simmonett, R. M. Parrish, E. G. Hohenstein,
    F. A. Evangelista, J. T. Fermann, B. J. Mintz, L. A. Burns, J. J. Wilke,
    M. L. Abrams, N. J. Russ, M. L. Leininger, C. L. Janssen, E. T. Seidl,
    W. D. Allen, H. F. Schaefer, R. A. King, E. F. Valeev, C. D. Sherrill,
    and T. D. Crawford, WIREs Comput. Mol. Sci. 2, 556-565 (2012)
    (doi: 10.1002/wcms.93)

                         Additional Contributions by
    A. E. DePrince, M. Saitow, U. Bozkaya, A. Yu. Sokolov
    -----------------------------------------------------------------------


    Psi4 started on: Fri Sep  2 13:35:49 2016

    Process ID:  14393
    PSI4DATADIR: /export131/home/mjharvey/miniconda3/share
    Memory level set to 256.000 MB

  ==> Input File <==

--------------------------------------------------------------------------
set {
	reference rhf
	basis 6-31G*
}


set_num_threads( 4 )
memory 2 gb

molecule MOL {
0 1

H	 3.367425	 -0.369889	 -1.024208
N	 3.092854	 -0.246221	 -0.068770
C	 1.865559	 0.531981	 0.018834
H	 3.845394	 0.232304	 0.388971
C	 0.645745	 -0.382037	 -0.029944
H	 1.841966	 1.207024	 -0.831236
H	 1.815756	 1.155410	 0.915079
C	 -0.679275	 0.379305	 0.025956
H	 0.698998	 -0.976915	 -0.937203
H	 0.693479	 -1.083846	 0.802235
C	 -1.903357	 -0.536963	 -0.023547
H	 -0.726309	 1.082987	 -0.803784
H	 -0.717680	 0.977832	 0.934877
C	 -3.225172	 0.228290	 0.028445
H	 -1.867824	 -1.134999	 -0.931459
H	 -1.860449	 -1.239604	 0.805977
H	 -3.313397	 0.915643	 -0.808262
H	 -4.073500	 -0.448134	 -0.008893
H	 -3.306061	 0.809945	 0.942516

	symmetry c1
}
set optking {
	frozen_dihedral = ("
		1 2 3 6
	")
}

ee = optimize('scf')
oeprop('DIPOLE', 'QUADRUPOLE', 'MULLIKEN_CHARGES')
f=open( 'psi4out.xyz', 'w' )
f.write( "19  " )
f.write( str(ee) + "\n" )
f.write( MOL.save_string_xyz() )
f.close()
--------------------------------------------------------------------------

  Memory set to   2.000 GiB by Python script.
gradient() will perform analytic gradient computation.

*** tstart() called on cx1-1-1-3.cx1.hpc.ic.ac.uk
*** at Fri Sep  2 13:35:50 2016


         ---------------------------------------------------------
                                   SCF
            by Justin Turney, Rob Parrish, and Andy Simmonett
                              RHF Reference
                        4 Threads,   2000 MiB Core
         ---------------------------------------------------------

  ==> Geometry <==

    Molecular point group: c1
    Full point group: C1

    Geometry (in Angstrom), charge = 0, multiplicity = 1:

       Center              X                  Y                   Z               Mass       
    ------------   -----------------  -----------------  -----------------  -----------------
           H          3.366035018017    -0.373742333688    -1.009446478793     1.007825032070
           N          3.091464018017    -0.250074333688    -0.054008478793    14.003074004780
           C          1.864169018017     0.528127666312     0.033595521207    12.000000000000
           H          3.844004018017     0.228450666312     0.403732521207     1.007825032070
           C          0.644355018017    -0.385890333688    -0.015182478793    12.000000000000
           H          1.840576018017     1.203170666312    -0.816474478793     1.007825032070
           H          1.814366018017     1.151556666312     0.929840521207     1.007825032070
           C         -0.680664981983     0.375451666312     0.040717521207    12.000000000000
           H          0.697608018017    -0.980768333688    -0.922441478793     1.007825032070
           H          0.692089018017    -1.087699333688     0.816996521207     1.007825032070
           C         -1.904746981983    -0.540816333688    -0.008785478793    12.000000000000
           H         -0.727698981983     1.079133666312    -0.789022478793     1.007825032070
           H         -0.719069981983     0.973978666312     0.949638521207     1.007825032070
           C         -3.226561981983     0.224436666312     0.043206521207    12.000000000000
           H         -1.869213981983    -1.138852333688    -0.916697478793     1.007825032070
           H         -1.861838981983    -1.243457333688     0.820738521207     1.007825032070
           H         -3.314786981983     0.911789666312    -0.793500478793     1.007825032070
           H         -4.074889981983    -0.451987333688     0.005868521207     1.007825032070
           H         -3.307450981983     0.806091666312     0.957277521207     1.007825032070

  Running in c1 symmetry.

  Rotational constants: A =      0.51762  B =      0.03794  C =      0.03670 [cm^-1]
  Rotational constants: A =  15517.86504  B =   1137.52224  C =   1100.18973 [MHz]
  Nuclear repulsion =  245.513669143720591

  Charge       = 0
  Multiplicity = 1
  Electrons    = 50
  Nalpha       = 25
  Nbeta        = 25

  ==> Algorithm <==

  SCF Algorithm Type is DF.
  DIIS enabled.
  MOM disabled.
  Fractional occupation disabled.
  Guess Type is CORE.
  Energy threshold   = 1.00e-08
  Density threshold  = 1.00e-08
  Integral threshold = 0.00e+00

  ==> Primary Basis <==

  Basis Set: 6-31G*
    Number of shells: 62
    Number of basis function: 116
    Number of Cartesian functions: 116
    Spherical Harmonics?: false
    Max angular momentum: 2

  ==> Pre-Iterations <==

   -------------------------------------------------------
    Irrep   Nso     Nmo     Nalpha   Nbeta   Ndocc  Nsocc
   -------------------------------------------------------
     A        116     116       0       0       0       0
   -------------------------------------------------------
    Total     116     116      25      25      25       0
   -------------------------------------------------------

 OEINTS: Overlap, kinetic, potential, dipole, and quadrupole integrals
         stored in file 35.

  ==> Integral Setup <==

  ==> DFJK: Density-Fitted J/K Matrices <==

    J tasked:                  Yes
    K tasked:                  Yes
    wK tasked:                  No
    OpenMP threads:              4
    Integrals threads:           4
    Memory (MB):              1430
    Algorithm:                Core
    Integral Cache:           NONE
    Schwarz Cutoff:          1E-12
    Fitting Condition:       1E-12

   => Auxiliary Basis Set <=

  Basis Set: 
    Number of shells: 261
    Number of basis function: 811
    Number of Cartesian functions: 811
    Spherical Harmonics?: false
    Max angular momentum: 3

  Minimum eigenvalue in the overlap matrix is 3.1759369724E-03.
  Using Symmetric Orthogonalization.
  SCF Guess: Core (One-Electron) Hamiltonian.

  ==> Iterations <==

                           Total Energy        Delta E     RMS |[F,P]|

   @DF-RHF iter   1:  -190.80577186864909   -1.90806e+02   7.06598e-02 
   @DF-RHF iter   2:  -102.80257697084605    8.80032e+01   8.89854e-02 DIIS
   @DF-RHF iter   3:  -206.25294511503259   -1.03450e+02   4.34173e-02 DIIS
   @DF-RHF iter   4:  -153.87713288689369    5.23758e+01   7.01658e-02 DIIS
   @DF-RHF iter   5:  -226.51932719318538   -7.26422e+01   3.59446e-02 DIIS
   @DF-RHF iter   6:  -250.95075068828643   -2.44314e+01   7.77155e-03 DIIS
   @DF-RHF iter   7:  -251.25841769882467   -3.07667e-01   3.56384e-03 DIIS
   @DF-RHF iter   8:  -251.34109163535842   -8.26739e-02   8.18123e-04 DIIS
   @DF-RHF iter   9:  -251.34751865959160   -6.42702e-03   2.81910e-04 DIIS
   @DF-RHF iter  10:  -251.34834443006233   -8.25770e-04   8.97414e-05 DIIS
   @DF-RHF iter  11:  -251.34843720011682   -9.27701e-05   2.76467e-05 DIIS
   @DF-RHF iter  12:  -251.34844684676179   -9.64664e-06   6.61905e-06 DIIS
   @DF-RHF iter  13:  -251.34844730913196   -4.62370e-07   2.07794e-06 DIIS
   @DF-RHF iter  14:  -251.34844736527927   -5.61473e-08   4.24428e-07 DIIS
   @DF-RHF iter  15:  -251.34844736752703   -2.24776e-09   1.45820e-07 DIIS
   @DF-RHF iter  16:  -251.34844736781687   -2.89845e-10   3.34892e-08 DIIS
   @DF-RHF iter  17:  -251.34844736784007   -2.31921e-11   7.67902e-09 DIIS

  ==> Post-Iterations <==

    Orbital Energies (a.u.)
    -----------------------

    Doubly Occupied:                                                      

       1A    -15.531330     2A    -11.240232     3A    -11.212350  
       4A    -11.210399     5A    -11.206347     6A    -11.204906  
       7A     -1.176241     8A     -1.071159     9A     -0.996930  
      10A     -0.899275    11A     -0.810391    12A     -0.786223  
      13A     -0.672480    14A     -0.635900    15A     -0.613894  
      16A     -0.583466    17A     -0.567110    18A     -0.552517  
      19A     -0.523267    20A     -0.501809    21A     -0.476596  
      22A     -0.463093    23A     -0.459358    24A     -0.450659  
      25A     -0.376721  

    Virtual:                                                              

      26A      0.224330    27A      0.237374    28A      0.267147  
      29A      0.271609    30A      0.283597    31A      0.301034  
      32A      0.321960    33A      0.335217    34A      0.343855  
      35A      0.348952    36A      0.353215    37A      0.363446  
      38A      0.383099    39A      0.400726    40A      0.403874  
      41A      0.452440    42A      0.476074    43A      0.499431  
      44A      0.699790    45A      0.726541    46A      0.749200  
      47A      0.754899    48A      0.771503    49A      0.810133  
      50A      0.820050    51A      0.882118    52A      0.923811  
      53A      0.945618    54A      0.967150    55A      0.994878  
      56A      1.022599    57A      1.035851    58A      1.078177  
      59A      1.111571    60A      1.127972    61A      1.136580  
      62A      1.162009    63A      1.181280    64A      1.192158  
      65A      1.204343    66A      1.210342    67A      1.219747  
      68A      1.221550    69A      1.229955    70A      1.231610  
      71A      1.251676    72A      1.260040    73A      1.274951  
      74A      1.301869    75A      1.391179    76A      1.558082  
      77A      1.629873    78A      1.686048    79A      1.711310  
      80A      1.731982    81A      1.765261    82A      1.824697  
      83A      1.942719    84A      2.037816    85A      2.088993  
      86A      2.163475    87A      2.185321    88A      2.224020  
      89A      2.260114    90A      2.278701    91A      2.300644  
      92A      2.333099    93A      2.372755    94A      2.377474  
      95A      2.434457    96A      2.478673    97A      2.556360  
      98A      2.586143    99A      2.638008   100A      2.658444  
     101A      2.670294   102A      2.766994   103A      2.775126  
     104A      2.818167   105A      2.908728   106A      2.935479  
     107A      2.960550   108A      3.031077   109A      3.161983  
     110A      3.200762   111A      4.225572   112A      4.576883  
     113A      4.676374   114A      4.773629   115A      4.862950  
     116A      4.993238  

    Final Occupation by Irrep:
              A 
    DOCC [    25 ]

  Energy converged.

  @DF-RHF Final Energy:  -251.34844736784007

   => Energetics <=

    Nuclear Repulsion Energy =            245.5136691437205911
    One-Electron Energy =                -825.2789249610214029
    Two-Electron Energy =                 328.4168084494606887
    DFT Exchange-Correlation Energy =       0.0000000000000000
    Empirical Dispersion Energy =           0.0000000000000000
    PCM Polarization Energy =               0.0000000000000000
    EFP Energy =                            0.0000000000000000
    Total Energy =                       -251.3484473678401514

    Alert: EFP and PCM quantities not currently incorporated into SCF psivars.

Properties will be evaluated at   0.000000,   0.000000,   0.000000 Bohr
  ==> Properties <==


Properties computed using the SCF density matrix

  Nuclear Dipole Moment: (a.u.)
     X:    -3.4029      Y:     1.0110      Z:    -0.3406

  Electronic Dipole Moment: (a.u.)
     X:     3.5669      Y:    -0.5208      Z:     0.0935

  Dipole Moment: (a.u.)
     X:     0.1641      Y:     0.4902      Z:    -0.2471     Total:     0.5730

  Dipole Moment: (Debye)
     X:     0.4170      Y:     1.2460      Z:    -0.6282     Total:     1.4564


  Saving occupied orbitals to File 180.

*** tstop() called on cx1-1-1-3.cx1.hpc.ic.ac.uk at Fri Sep  2 13:35:55 2016
Module time:
	user time   =      13.12 seconds =       0.22 minutes
	system time =       0.13 seconds =       0.00 minutes
	total time  =          5 seconds =       0.08 minutes
Total time:
	user time   =      13.12 seconds =       0.22 minutes
	system time =       0.13 seconds =       0.00 minutes
	total time  =          5 seconds =       0.08 minutes

*** tstart() called on cx1-1-1-3.cx1.hpc.ic.ac.uk
*** at Fri Sep  2 13:35:55 2016


         ------------------------------------------------------------
                                   SCF GRAD                          
                          Rob Parrish, Justin Turney,                
                       Andy Simmonett, and Alex Sokolov              
         ------------------------------------------------------------

  ==> Geometry <==

    Molecular point group: c1
    Full point group: C1

    Geometry (in Angstrom), charge = 0, multiplicity = 1:

       Center              X                  Y                   Z               Mass       
    ------------   -----------------  -----------------  -----------------  -----------------
           H          3.366035018017    -0.373742333688    -1.009446478793     1.007825032070
           N          3.091464018017    -0.250074333688    -0.054008478793    14.003074004780
           C          1.864169018017     0.528127666312     0.033595521207    12.000000000000
           H          3.844004018017     0.228450666312     0.403732521207     1.007825032070
           C          0.644355018017    -0.385890333688    -0.015182478793    12.000000000000
           H          1.840576018017     1.203170666312    -0.816474478793     1.007825032070
           H          1.814366018017     1.151556666312     0.929840521207     1.007825032070
           C         -0.680664981983     0.375451666312     0.040717521207    12.000000000000
           H          0.697608018017    -0.980768333688    -0.922441478793     1.007825032070
           H          0.692089018017    -1.087699333688     0.816996521207     1.007825032070
           C         -1.904746981983    -0.540816333688    -0.008785478793    12.000000000000
           H         -0.727698981983     1.079133666312    -0.789022478793     1.007825032070
           H         -0.719069981983     0.973978666312     0.949638521207     1.007825032070
           C         -3.226561981983     0.224436666312     0.043206521207    12.000000000000
           H         -1.869213981983    -1.138852333688    -0.916697478793     1.007825032070
           H         -1.861838981983    -1.243457333688     0.820738521207     1.007825032070
           H         -3.314786981983     0.911789666312    -0.793500478793     1.007825032070
           H         -4.074889981983    -0.451987333688     0.005868521207     1.007825032070
           H         -3.307450981983     0.806091666312     0.957277521207     1.007825032070

  Nuclear repulsion =  245.513669143720591

  ==> Basis Set <==

  Basis Set: 6-31G*
    Number of shells: 62
    Number of basis function: 116
    Number of Cartesian functions: 116
    Spherical Harmonics?: false
    Max angular momentum: 2

  ==> DFJKGrad: Density-Fitted SCF Gradients <==

    Gradient:                    1
    J tasked:                  Yes
    K tasked:                  Yes
    wK tasked:                  No
    OpenMP threads:              4
    Integrals threads:           4
    Memory (MB):              1430
    Schwarz Cutoff:          0E+00
    Fitting Condition:       1E-12

   => Auxiliary Basis Set <=

  Basis Set: 
    Number of shells: 261
    Number of basis function: 811
    Number of Cartesian functions: 811
    Spherical Harmonics?: false
    Max angular momentum: 3


  -Total Gradient:
     Atom            X                  Y                   Z
    ------   -----------------  -----------------  -----------------
       1        0.001718613341     0.000351168506    -0.001053358962
       2       -0.007193371549     0.000274475153    -0.013602982295
       3        0.003785866770    -0.000652403475     0.011386579064
       4       -0.000377301681     0.001472578822     0.001616294596
       5        0.001844636382    -0.000201047155    -0.004784876279
       6        0.008003600361    -0.007577831750    -0.000696837427
       7       -0.007289760268     0.006825885340     0.002023999563
       8       -0.000080378818     0.000350695443     0.002480386161
       9        0.001216932139     0.001013651756     0.001078458356
      10       -0.002093947854    -0.001257415778     0.001799177912
      11        0.000123163187    -0.000223684799    -0.000241160111
      12        0.000558579214    -0.000479793341    -0.000006882794
      13       -0.000274960627     0.000069953489    -0.000203069832
      14        0.000011164641     0.000088807598     0.000047909132
      15        0.000021601459     0.000034685784     0.000053744658
      16       -0.000068555141    -0.000064848147     0.000110896339
      17        0.000019182757    -0.000037953997     0.000016189543
      18        0.000083355443     0.000007901732    -0.000022081899
      19       -0.000008419751     0.000005174819    -0.000002385724


*** tstop() called on cx1-1-1-3.cx1.hpc.ic.ac.uk at Fri Sep  2 13:36:00 2016
Module time:
	user time   =      17.97 seconds =       0.30 minutes
	system time =       0.18 seconds =       0.00 minutes
	total time  =          5 seconds =       0.08 minutes
Total time:
	user time   =      31.11 seconds =       0.52 minutes
	system time =       0.31 seconds =       0.01 minutes
	total time  =         10 seconds =       0.17 minutes
CURRENT ENERGY: -251.3484473678

			-----------------------------------------
			 OPTKING 2.0: for geometry optimizations 
			  - R.A. King,  Bethel University        
			-----------------------------------------

	Internal coordinates to be generated automatically.
	Detected frag with atoms:  1 2 3 4 5 6 7 8 9 10 11 12 13 14 15 16 17 18 19
	---Fragment 1 Bond Connectivity---
	 1 : 2
	 2 : 1 3 4
	 3 : 2 5 6 7
	 4 : 2
	 5 : 3 8 9 10
	 6 : 3
	 7 : 3
	 8 : 5 11 12 13
	 9 : 5
	 10 : 5
	 11 : 8 14 15 16
	 12 : 8
	 13 : 8
	 14 : 11 17 18 19
	 15 : 11
	 16 : 11
	 17 : 14
	 18 : 14
	 19 : 14

	Assuming in current code that numbering for constraints corresponds to unified fragment.
	Frozen dihedral atom list: 
	     1     2     3     6
	---Fragment 1 Geometry and Gradient---
	 H           6.3608843378       -0.7062706549       -1.9075773907
	 N           5.8420203437       -0.4725720035       -0.1020612338
	 C           3.5227689095        0.9980166525        0.0634863344
	 H           7.2641148478        0.4317091942        0.7629438960
	 C           1.2176545164       -0.7292270480       -0.0286907269
	 H           3.4781846008        2.2736630505       -1.5429131594
	 H           3.4286548789        2.1761267258        1.7571439323
	 C          -1.2862704042        0.7095008255        0.0769449639
	 H           1.3182881022       -1.8533835505       -1.7431617685
	 H           1.3078587036       -2.0554538556        1.5438996766
	 C          -3.5994501484       -1.0219947589       -0.0166021489
	 H          -1.3751517831        2.0392670901       -1.4910363976
	 H          -1.3588453363        1.8405529386        1.7945567303
	 C          -6.0973184967        0.4241238335        0.0816484922
	 H          -3.5323025097       -2.1521190165       -1.7323071816
	 H          -3.5183657795       -2.3497938186        1.5509710318
	 H          -6.2640395848        1.7230327601       -1.4994985912
	 H          -7.7004260876       -0.8541322762        0.0110898979
	 H          -6.2501765539        1.5232924873        1.8089923482
	             0.0017186133        0.0003511685       -0.0010533590
	            -0.0071933715        0.0002744752       -0.0136029823
	             0.0037858668       -0.0006524035        0.0113865791
	            -0.0003773017        0.0014725788        0.0016162946
	             0.0018446364       -0.0002010472       -0.0047848763
	             0.0080036004       -0.0075778318       -0.0006968374
	            -0.0072897603        0.0068258853        0.0020239996
	            -0.0000803788        0.0003506954        0.0024803862
	             0.0012169321        0.0010136518        0.0010784584
	            -0.0020939479       -0.0012574158        0.0017991779
	             0.0001231632       -0.0002236848       -0.0002411601
	             0.0005585792       -0.0004797933       -0.0000068828
	            -0.0002749606        0.0000699535       -0.0002030698
	             0.0000111646        0.0000888076        0.0000479091
	             0.0000216015        0.0000346858        0.0000537447
	            -0.0000685551       -0.0000648481        0.0001108963
	             0.0000191828       -0.0000379540        0.0000161895
	             0.0000833554        0.0000079017       -0.0000220819
	            -0.0000084198        0.0000051748       -0.0000023857

	Previous optimization step data not found.  Starting new optimization.

	---Fragment 1 Intrafragment Coordinates---
	 - Coordinate -           - BOHR/RAD -       - ANG/DEG -
	 R(1,2)           =         1.893073	       1.001771
	 R(2,3)           =         2.751175	       1.455859
	 R(2,4)           =         1.894284	       1.002412
	 R(3,5)           =         2.881913	       1.525043
	 R(3,6)           =         2.051775	       1.085753
	 R(3,7)           =         2.065255	       1.092886
	 R(5,8)           =         2.889764	       1.529197
	 R(5,9)           =         2.052624	       1.086202
	 R(5,10)          =         2.059139	       1.089650
	 R(8,11)          =         2.890956	       1.529828
	 R(8,12)          =         2.057849	       1.088967
	 R(8,13)          =         2.057847	       1.088966
	 R(11,14)         =         2.887951	       1.528238
	 R(11,15)         =         2.055562	       1.087756
	 R(11,16)         =         2.055945	       1.087959
	 R(14,17)         =         2.053043	       1.086424
	 R(14,18)         =         2.051553	       1.085635
	 R(14,19)         =         2.053108	       1.086458
	 B(1,2,3)         =         1.933104	     110.758707
	 B(1,2,4)         =         1.863652	     106.779365
	 B(2,3,5)         =         1.930494	     110.609167
	 B(2,3,6)         =         1.879202	     107.670322
	 B(2,3,7)         =         1.974342	     113.121478
	 B(3,2,4)         =         1.928601	     110.500723
	 B(3,5,8)         =         1.975229	     113.172275
	 B(3,5,9)         =         1.892033	     108.405498
	 B(3,5,10)        =         1.903447	     109.059474
	 B(5,3,6)         =         1.907316	     109.281147
	 B(5,3,7)         =         1.908869	     109.370116
	 B(5,8,11)        =         1.975704	     113.199501
	 B(5,8,12)        =         1.908468	     109.347167
	 B(5,8,13)        =         1.912098	     109.555125
	 B(6,3,7)         =         1.861274	     106.643124
	 B(8,5,9)         =         1.923761	     110.223395
	 B(8,5,10)        =         1.907844	     109.311432
	 B(8,11,14)       =         1.972572	     113.020050
	 B(8,11,15)       =         1.907268	     109.278398
	 B(8,11,16)       =         1.907718	     109.304212
	 B(9,5,10)        =         1.857731	     106.440152
	 B(11,8,12)       =         1.904783	     109.136048
	 B(11,8,13)       =         1.904962	     109.146309
	 B(11,14,17)      =         1.939969	     111.152032
	 B(11,14,18)      =         1.941958	     111.266001
	 B(11,14,19)      =         1.940243	     111.167753
	 B(12,8,13)       =         1.853845	     106.217513
	 B(14,11,15)      =         1.909169	     109.387319
	 B(14,11,16)      =         1.908762	     109.364010
	 B(15,11,16)      =         1.854629	     106.262415
	 B(17,14,18)      =         1.879953	     107.713389
	 B(17,14,19)      =         1.878834	     107.649271
	 B(18,14,19)      =         1.880030	     107.717766
	 D(1,2,3,5)       =         1.559346	      89.343923
	*D(1,2,3,6)       =        -0.523598	     -29.999959
	 D(1,2,3,7)       =        -2.575623	    -147.572340
	 D(2,3,5,8)       =        -3.118670	    -178.686611
	 D(2,3,5,9)       =        -0.978957	     -56.090097
	 D(2,3,5,10)      =         1.036927	      59.411538
	 D(3,5,8,11)      =         3.141157	     179.975063
	 D(3,5,8,12)      =         1.013547	      58.071975
	 D(3,5,8,13)      =        -1.011553	     -57.957713
	 D(4,2,3,5)       =        -2.662249	    -152.535640
	 D(4,2,3,6)       =         1.537992	      88.120478
	 D(4,2,3,7)       =        -0.514033	     -29.451903
	 D(5,8,11,14)     =        -3.138661	    -179.832011
	 D(5,8,11,15)     =        -1.008422	     -57.778347
	 D(5,8,11,16)     =         1.014483	      58.125592
	 D(6,3,5,8)       =        -1.052775	     -60.319539
	 D(6,3,5,9)       =         1.086938	      62.276976
	 D(6,3,5,10)      =         3.102822	     177.778611
	 D(7,3,5,8)       =         0.978775	      56.079677
	 D(7,3,5,9)       =         3.118488	     178.676192
	 D(7,3,5,10)      =        -1.148814	     -65.822173
	 D(8,11,14,17)    =         1.045902	      59.925763
	 D(8,11,14,18)    =         3.141058	     179.969381
	 D(8,11,14,19)    =        -1.046689	     -59.970869
	 D(9,5,8,11)      =         1.019180	      58.394741
	 D(9,5,8,12)      =        -1.108430	     -63.508348
	 D(9,5,8,13)      =        -3.133530	    -179.538036
	 D(10,5,8,11)     =        -1.016904	     -58.264311
	 D(10,5,8,12)     =         3.138671	     179.832600
	 D(10,5,8,13)     =         1.113571	      63.802912
	 D(12,8,11,14)    =        -1.008989	     -57.810818
	 D(12,8,11,15)    =         1.121249	      64.242846
	 D(12,8,11,16)    =        -3.139031	    -179.853215
	 D(13,8,11,14)    =         1.010068	      57.872612
	 D(13,8,11,15)    =         3.140306	     179.926276
	 D(13,8,11,16)    =        -1.119974	     -64.169785
	 D(15,11,14,17)   =        -1.083270	     -62.066801
	 D(15,11,14,18)   =         1.011886	      57.976817
	 D(15,11,14,19)   =         3.107324	     178.036567
	 D(16,11,14,17)   =        -3.107827	    -178.065383
	 D(16,11,14,18)   =        -1.012671	     -58.021765
	 D(16,11,14,19)   =         1.082767	      62.037985

	Current energy   :      -251.3484473678

	Generating empirical Hessian (Schlegel '84) for each fragment.
	Taking RFO optimization step.
	Going to follow RFO solution 1.
	Using RFO vector 1.
	Norm of target step-size    0.26705
	Projected energy change by RFO approximation:        -0.0116026020

	Back-transformation to cartesian coordinates...
	Successfully converged to displaced geometry.

	Back-transformation to cartesian coordinates to adjust frozen coordinates...
	Successfully converged to displaced geometry.

	--- Internal Coordinate Step in ANG or DEG, aJ/ANG or AJ/DEG ---
	 ---------------------------------------------------------------------------
	   Coordinate                Previous        Force       Change         New 
	   ----------                --------       ------       ------       ------
	    1 R(1,2)          =      1.001771    -0.011801    -0.001584     1.000187
	    2 R(2,3)          =      1.455859     0.043420     0.007349     1.463208
	    3 R(2,4)          =      1.002412    -0.009539    -0.001284     1.001128
	    4 R(3,5)          =      1.525043     0.005571     0.001179     1.526222
	    5 R(3,6)          =      1.085753     0.035753     0.006420     1.092173
	    6 R(3,7)          =      1.092886    -0.048491    -0.008913     1.083973
	    7 R(5,8)          =      1.529197     0.003095     0.000664     1.529861
	    8 R(5,9)          =      1.086202     0.011504     0.002069     1.088271
	    9 R(5,10)         =      1.089650    -0.017237    -0.003135     1.086515
	   10 R(8,11)         =      1.529828     0.000249     0.000054     1.529882
	   11 R(8,12)         =      1.088967     0.002710     0.000492     1.089459
	   12 R(8,13)         =      1.088966     0.001000     0.000181     1.089147
	   13 R(11,14)        =      1.528238     0.000475     0.000102     1.528339
	   14 R(11,15)        =      1.087756     0.000521     0.000094     1.087851
	   15 R(11,16)        =      1.087959    -0.001019    -0.000184     1.087775
	   16 R(14,17)        =      1.086424     0.000313     0.000056     1.086480
	   17 R(14,18)        =      1.085635     0.000571     0.000102     1.085738
	   18 R(14,19)        =      1.086458    -0.000011    -0.000002     1.086456
	   19 B(1,2,3)        =    110.758707    -0.000151    -0.910892   109.847815
	   20 B(1,2,4)        =    106.779365    -0.000050    -0.663432   106.115934
	   21 B(2,3,5)        =    110.609167     0.000113     0.162913   110.772080
	   22 B(2,3,6)        =    107.670322     0.000674     6.561586   114.231908
	   23 B(2,3,7)        =    113.121478    -0.000678    -5.776386   107.345092
	   24 B(3,2,4)        =    110.500723     0.000222     0.795251   111.295974
	   25 B(3,5,8)        =    113.172275     0.000030     0.139229   113.311504
	   26 B(3,5,9)        =    108.405498     0.000087     0.411163   108.816661
	   27 B(3,5,10)       =    109.059474    -0.000141    -0.762114   108.297361
	   28 B(5,3,6)        =    109.281147    -0.000386    -0.688139   108.593007
	   29 B(5,3,7)        =    109.370116     0.000285    -0.490573   108.879544
	   30 B(5,8,11)       =    113.199501     0.000015     0.066383   113.265884
	   31 B(5,8,12)       =    109.347167     0.000040     0.407008   109.754175
	   32 B(5,8,13)       =    109.555125    -0.000035    -0.309521   109.245604
	   33 B(6,3,7)        =    106.643124    -0.000012     0.188205   106.831329
	   34 B(8,5,9)        =    110.223395    -0.000114    -0.676301   109.547094
	   35 B(8,5,10)       =    109.311432     0.000141     1.017355   110.328787
	   36 B(8,11,14)      =    113.020050     0.000013     0.050892   113.070941
	   37 B(8,11,15)      =    109.278398    -0.000002     0.000383   109.278781
	   38 B(8,11,16)      =    109.304212    -0.000008    -0.039538   109.264674
	   39 B(9,5,10)       =    106.440152    -0.000007    -0.155116   106.285036
	   40 B(11,8,12)      =    109.136048    -0.000028    -0.030568   109.105480
	   41 B(11,8,13)      =    109.146309     0.000010    -0.075159   109.071150
	   42 B(11,14,17)     =    111.152032     0.000002     0.012043   111.164075
	   43 B(11,14,18)     =    111.266001     0.000005     0.026864   111.292865
	   44 B(11,14,19)     =    111.167753    -0.000003    -0.018830   111.148923
	   45 B(12,8,13)      =    106.217513    -0.000002    -0.068006   106.149507
	   46 B(14,11,15)     =    109.387319    -0.000005    -0.013634   109.373685
	   47 B(14,11,16)     =    109.364010    -0.000000     0.012787   109.376797
	   48 B(15,11,16)     =    106.262415     0.000002    -0.014984   106.247431
	   49 B(17,14,18)     =    107.713389    -0.000002     0.000706   107.714095
	   50 B(17,14,19)     =    107.649271    -0.000001    -0.008813   107.640458
	   51 B(18,14,19)     =    107.717766    -0.000002    -0.013246   107.704520
	   52 D(1,2,3,5)      =     89.343923     0.000002     3.658904    93.002827
	   53 *D(1,2,3,6)     =    -29.999959     0.000000    -0.000000   -29.999959
	   54 D(1,2,3,7)      =   -147.572340    -0.000006    -0.672110  -148.244450
	   55 D(2,3,5,8)      =   -178.686611    -0.000081    -3.822931  -182.509542
	   56 D(2,3,5,9)      =    -56.090097    -0.000095    -4.297370   -60.387467
	   57 D(2,3,5,10)     =     59.411538    -0.000104    -4.667296    54.744243
	   58 D(3,5,8,11)     =    179.975063     0.000009     0.124511   180.099574
	   59 D(3,5,8,12)     =     58.071975     0.000008    -0.178449    57.893525
	   60 D(3,5,8,13)     =    -57.957713     0.000008    -0.151214   -58.108927
	   61 D(4,2,3,5)      =   -152.535640    -0.000002     2.760854  -149.774786
	   62 D(4,2,3,6)      =     88.120478    -0.000004    -0.898051    87.222427
	   63 D(4,2,3,7)      =    -29.451903    -0.000010    -1.570161   -31.022063
	   64 D(5,8,11,14)    =   -179.832011    -0.000005    -0.431408  -180.263419
	   65 D(5,8,11,15)    =    -57.778347    -0.000005    -0.414038   -58.192385
	   66 D(5,8,11,16)    =     58.125592    -0.000006    -0.453854    57.671738
	   67 D(6,3,5,8)      =    -60.319539     0.000070     4.019242   -56.300297
	   68 D(6,3,5,9)      =     62.276976     0.000055     3.544802    65.821778
	   69 D(6,3,5,10)     =    177.778611     0.000047     3.174877   180.953488
	   70 D(7,3,5,8)      =     56.079677     0.000053     3.590756    59.670434
	   71 D(7,3,5,9)      =    178.676192     0.000039     3.116317   181.792508
	   72 D(7,3,5,10)     =    -65.822173     0.000030     2.746391   -63.075782
	   73 D(8,11,14,17)   =     59.925763     0.000000     0.018571    59.944334
	   74 D(8,11,14,18)   =    179.969381     0.000001     0.045648   180.015029
	   75 D(8,11,14,19)   =    -59.970869     0.000000     0.034248   -59.936621
	   76 D(9,5,8,11)     =     58.394741    -0.000003    -0.009289    58.385452
	   77 D(9,5,8,12)     =    -63.508348    -0.000004    -0.312249   -63.820597
	   78 D(9,5,8,13)     =   -179.538036    -0.000004    -0.285014  -179.823049
	   79 D(10,5,8,11)    =    -58.264311    -0.000005    -0.021339   -58.285650
	   80 D(10,5,8,12)    =    179.832600    -0.000006    -0.324299   179.508302
	   81 D(10,5,8,13)    =     63.802912    -0.000006    -0.297063    63.505849
	   82 D(12,8,11,14)   =    -57.810818     0.000004     0.114203   -57.696614
	   83 D(12,8,11,15)   =     64.242846     0.000004     0.131574    64.374419
	   84 D(12,8,11,16)   =   -179.853215     0.000003     0.091758  -179.761457
	   85 D(13,8,11,14)   =     57.872612     0.000001    -0.025130    57.847482
	   86 D(13,8,11,15)   =    179.926276     0.000001    -0.007760   179.918516
	   87 D(13,8,11,16)   =    -64.169785     0.000000    -0.047575   -64.217361
	   88 D(15,11,14,17)  =    -62.066801    -0.000001    -0.006726   -62.073527
	   89 D(15,11,14,18)  =     57.976817    -0.000000     0.020351    57.997168
	   90 D(15,11,14,19)  =    178.036567    -0.000000     0.008951   178.045519
	   91 D(16,11,14,17)  =   -178.065383    -0.000000     0.011731  -178.053652
	   92 D(16,11,14,18)  =    -58.021765     0.000000     0.038808   -57.982957
	   93 D(16,11,14,19)  =     62.037985     0.000000     0.027408    62.065393
	 ---------------------------------------------------------------------------

  ==> Convergence Check <==

  Measures of convergence in internal coordinates in au.
  Criteria marked as inactive (o), active & met (*), and active & unmet ( ).
  --------------------------------------------------------------------------------------------- ~
   Step     Total Energy     Delta E     MAX Force     RMS Force      MAX Disp      RMS Disp    ~
  --------------------------------------------------------------------------------------------- ~
    Convergence Criteria    1.00e-06 *    3.00e-04 *             o    1.20e-03 *             o  ~
  --------------------------------------------------------------------------------------------- ~
      1    -251.34844737   -2.51e+02      8.91e-03      2.21e-03 o    1.15e-01      2.77e-02 o  ~
  ---------------------------------------------------------------------------------------------

	Writing optimization data to binary file.
	Structure for next step:
	Cartesian Geometry (in Angstrom)
	    H     3.4223588264  -0.3769014595  -0.9532948790
	    N     3.0993261989  -0.2548446585  -0.0146119584
	    C     1.8645735991   0.5302399853  -0.0122733481
	    H     3.8334947704   0.2207244335   0.4723052633
	    C     0.6422909859  -0.3832203182  -0.0433870210
	    H     1.7862234626   1.2449136494  -0.8344313662
	    H     1.8491815354   1.1055890548   0.9062763308
	    C    -0.6836522106   0.3773413253   0.0190263361
	    H     0.6755179317  -0.9832520991  -0.9506856069
	    H     0.7166557382  -1.0809140076   0.7861959115
	    C    -1.9080974696  -0.5394150003  -0.0097880775
	    H    -0.7445949076   1.0799139837  -0.8113940884
	    H    -0.7103770731   0.9783756017   0.9269282112
	    C    -3.2300066651   0.2245325787   0.0592144033
	    H    -1.8855324988  -1.1404450552  -0.9162496329
	    H    -1.8519921915  -1.2393810836   0.8209671533
	    H    -3.3316032466   0.9091344498  -0.7783042776
	    H    -4.0783694873  -0.4526814505   0.0371164220
	    H    -3.2976552485   0.8091898087   0.9724431029
			--------------------------
			 OPTKING Finished Execution 
			--------------------------

    Structure for next step:
    Molecular point group: c1
    Full point group: C1

    Geometry (in Angstrom), charge = 0, multiplicity = 1:

    H            3.422629504406    -0.377220658014    -0.948981003577
    N            3.099596901536    -0.255163866296    -0.010298154680
    C            1.864844396088     0.529920717598    -0.007959544631
    H            3.833765416977     0.220405189427     0.476619029780
    C            0.642561876210    -0.383539516191    -0.039073215134
    H            1.786494265498     1.244594327111    -0.830117499936
    H            1.849452333521     1.105269743168     0.910590064184
    C           -0.683381219063     0.377022069223     0.023340137177
    H            0.675788819414    -0.983571251248    -0.946371731772
    H            0.716926622770    -1.081233152296     0.790509654049
    C           -1.907826384563    -0.539734186377    -0.005474274217
    H           -0.744323911412     1.079594673960    -0.807080223902
    H           -0.710106079497     0.978056299777     0.931241942997
    C           -3.229735479144     0.224213334309     0.063528201318
    H           -1.885261415487    -1.140764195350    -0.911935760328
    H           -1.851721110695    -1.239700216232     0.825280893192
    H           -3.331332052792     0.908815153080    -0.773990415593
    H           -4.078098236519    -0.453000643129     0.041430221761
    H           -3.297384057370     0.808870519699     0.976756831212

gradient() will perform analytic gradient computation.

*** tstart() called on cx1-1-1-3.cx1.hpc.ic.ac.uk
*** at Fri Sep  2 13:36:01 2016


         ---------------------------------------------------------
                                   SCF
            by Justin Turney, Rob Parrish, and Andy Simmonett
                              RHF Reference
                        4 Threads,   2000 MiB Core
         ---------------------------------------------------------

  ==> Geometry <==

    Molecular point group: c1
    Full point group: C1

    Geometry (in Angstrom), charge = 0, multiplicity = 1:

       Center              X                  Y                   Z               Mass       
    ------------   -----------------  -----------------  -----------------  -----------------
           H          3.422629504406    -0.377220658014    -0.948981003577     1.007825032070
           N          3.099596901536    -0.255163866296    -0.010298154680    14.003074004780
           C          1.864844396088     0.529920717598    -0.007959544631    12.000000000000
           H          3.833765416977     0.220405189427     0.476619029780     1.007825032070
           C          0.642561876210    -0.383539516191    -0.039073215134    12.000000000000
           H          1.786494265498     1.244594327111    -0.830117499936     1.007825032070
           H          1.849452333521     1.105269743168     0.910590064184     1.007825032070
           C         -0.683381219063     0.377022069223     0.023340137177    12.000000000000
           H          0.675788819414    -0.983571251248    -0.946371731772     1.007825032070
           H          0.716926622770    -1.081233152296     0.790509654049     1.007825032070
           C         -1.907826384563    -0.539734186377    -0.005474274217    12.000000000000
           H         -0.744323911412     1.079594673960    -0.807080223902     1.007825032070
           H         -0.710106079497     0.978056299777     0.931241942997     1.007825032070
           C         -3.229735479144     0.224213334309     0.063528201318    12.000000000000
           H         -1.885261415487    -1.140764195350    -0.911935760328     1.007825032070
           H         -1.851721110695    -1.239700216232     0.825280893192     1.007825032070
           H         -3.331332052792     0.908815153080    -0.773990415593     1.007825032070
           H         -4.078098236519    -0.453000643129     0.041430221761     1.007825032070
           H         -3.297384057370     0.808870519699     0.976756831212     1.007825032070

  Running in c1 symmetry.

  Rotational constants: A =      0.51846  B =      0.03782  C =      0.03658 [cm^-1]
  Rotational constants: A =  15542.98112  B =   1133.74968  C =   1096.77687 [MHz]
  Nuclear repulsion =  245.272285752664715

  Charge       = 0
  Multiplicity = 1
  Electrons    = 50
  Nalpha       = 25
  Nbeta        = 25

  ==> Algorithm <==

  SCF Algorithm Type is DF.
  DIIS enabled.
  MOM disabled.
  Fractional occupation disabled.
  Guess Type is READ.
  Energy threshold   = 1.00e-08
  Density threshold  = 1.00e-08
  Integral threshold = 0.00e+00

  ==> Primary Basis <==

  Basis Set: 6-31G*
    Number of shells: 62
    Number of basis function: 116
    Number of Cartesian functions: 116
    Spherical Harmonics?: false
    Max angular momentum: 2

  ==> Pre-Iterations <==

   -------------------------------------------------------
    Irrep   Nso     Nmo     Nalpha   Nbeta   Ndocc  Nsocc
   -------------------------------------------------------
     A        116     116       0       0       0       0
   -------------------------------------------------------
    Total     116     116      25      25      25       0
   -------------------------------------------------------

 OEINTS: Overlap, kinetic, potential, dipole, and quadrupole integrals
         stored in file 35.

  ==> Integral Setup <==

  ==> DFJK: Density-Fitted J/K Matrices <==

    J tasked:                  Yes
    K tasked:                  Yes
    wK tasked:                  No
    OpenMP threads:              4
    Integrals threads:           4
    Memory (MB):              1430
    Algorithm:                Core
    Integral Cache:           NONE
    Schwarz Cutoff:          1E-12
    Fitting Condition:       1E-12

   => Auxiliary Basis Set <=

  Basis Set: 
    Number of shells: 261
    Number of basis function: 811
    Number of Cartesian functions: 811
    Spherical Harmonics?: false
    Max angular momentum: 3

  Minimum eigenvalue in the overlap matrix is 3.2016683558E-03.
  Using Symmetric Orthogonalization.
  SCF Guess: Reading in previously saved MOs, projecting if necessary.

  Using orbitals from previous SCF, no projection.
  Recomputing DOCC and SOCC from number of alpha and beta electrons from previous calculation.
              A 
    DOCC [    25 ]

  ==> Iterations <==

                           Total Energy        Delta E     RMS |[F,P]|

   @DF-RHF iter   0:  -251.35030249504055   -2.51350e+02   8.53579e-04 
   @DF-RHF iter   1:  -251.34969060868721    6.11886e-04   1.18361e-04 
   @DF-RHF iter   2:  -251.34986930294301   -1.78694e-04   4.16487e-05 DIIS
   @DF-RHF iter   3:  -251.34989690061892   -2.75977e-05   1.21909e-05 DIIS
   @DF-RHF iter   4:  -251.34989856596692   -1.66535e-06   3.15636e-06 DIIS
   @DF-RHF iter   5:  -251.34989871408933   -1.48122e-07   9.84896e-07 DIIS
   @DF-RHF iter   6:  -251.34989872974396   -1.56546e-08   2.78417e-07 DIIS
   @DF-RHF iter   7:  -251.34989873081636   -1.07241e-09   8.10700e-08 DIIS
   @DF-RHF iter   8:  -251.34989873090538   -8.90168e-11   1.62625e-08 DIIS
   @DF-RHF iter   9:  -251.34989873091004   -4.66116e-12   4.38202e-09 DIIS

  ==> Post-Iterations <==

    Orbital Energies (a.u.)
    -----------------------

    Doubly Occupied:                                                      

       1A    -15.533454     2A    -11.240500     3A    -11.212302  
       4A    -11.210579     5A    -11.206343     6A    -11.204463  
       7A     -1.175101     8A     -1.070999     9A     -0.997266  
      10A     -0.900004    11A     -0.810464    12A     -0.785957  
      13A     -0.672282    14A     -0.636271    15A     -0.615697  
      16A     -0.581386    17A     -0.565663    18A     -0.551430  
      19A     -0.521285    20A     -0.501514    21A     -0.474263  
      22A     -0.462586    23A     -0.457877    24A     -0.453953  
      25A     -0.381396  

    Virtual:                                                              

      26A      0.225134    27A      0.237397    28A      0.269113  
      29A      0.271146    30A      0.283460    31A      0.302037  
      32A      0.321878    33A      0.334817    34A      0.343420  
      35A      0.349561    36A      0.353262    37A      0.364251  
      38A      0.379766    39A      0.401835    40A      0.403920  
      41A      0.451809    42A      0.475150    43A      0.497718  
      44A      0.699444    45A      0.724167    46A      0.749942  
      47A      0.754721    48A      0.772571    49A      0.808324  
      50A      0.820404    51A      0.881597    52A      0.923574  
      53A      0.941779    54A      0.968879    55A      0.994095  
      56A      1.022811    57A      1.035508    58A      1.079762  
      59A      1.111757    60A      1.128624    61A      1.137915  
      62A      1.157719    63A      1.181702    64A      1.192138  
      65A      1.204684    66A      1.211251    67A      1.221102  
      68A      1.225127    69A      1.229586    70A      1.232697  
      71A      1.251668    72A      1.257288    73A      1.274387  
      74A      1.297853    75A      1.390916    76A      1.558961  
      77A      1.632340    78A      1.687268    79A      1.701573  
      80A      1.735131    81A      1.770842    82A      1.827503  
      83A      1.944951    84A      2.039686    85A      2.085414  
      86A      2.161573    87A      2.179080    88A      2.221826  
      89A      2.260775    90A      2.267443    91A      2.298451  
      92A      2.334426    93A      2.351249    94A      2.390529  
      95A      2.429259    96A      2.481684    97A      2.552158  
      98A      2.588597    99A      2.635189   100A      2.665116  
     101A      2.671779   102A      2.768986   103A      2.773385  
     104A      2.822685   105A      2.898638   106A      2.937195  
     107A      2.959901   108A      3.030428   109A      3.159600  
     110A      3.198144   111A      4.222286   112A      4.576320  
     113A      4.675910   114A      4.774681   115A      4.863526  
     116A      4.992621  

    Final Occupation by Irrep:
              A 
    DOCC [    25 ]

  Energy converged.

  @DF-RHF Final Energy:  -251.34989873091004

   => Energetics <=

    Nuclear Repulsion Energy =            245.2722857526647147
    One-Electron Energy =                -824.7983057330382053
    Two-Electron Energy =                 328.1761212494635060
    DFT Exchange-Correlation Energy =       0.0000000000000000
    Empirical Dispersion Energy =           0.0000000000000000
    PCM Polarization Energy =               0.0000000000000000
    EFP Energy =                            0.0000000000000000
    Total Energy =                       -251.3498987309099562

    Alert: EFP and PCM quantities not currently incorporated into SCF psivars.

Properties will be evaluated at   0.000000,   0.000000,   0.000000 Bohr
  ==> Properties <==


Properties computed using the SCF density matrix

  Nuclear Dipole Moment: (a.u.)
     X:    -3.3962      Y:     1.0039      Z:    -0.2494

  Electronic Dipole Moment: (a.u.)
     X:     3.5826      Y:    -0.5192      Z:     0.0113

  Dipole Moment: (a.u.)
     X:     0.1863      Y:     0.4848      Z:    -0.2381     Total:     0.5713

  Dipole Moment: (Debye)
     X:     0.4736      Y:     1.2322      Z:    -0.6052     Total:     1.4522


  Saving occupied orbitals to File 180.

*** tstop() called on cx1-1-1-3.cx1.hpc.ic.ac.uk at Fri Sep  2 13:36:06 2016
Module time:
	user time   =      12.69 seconds =       0.21 minutes
	system time =       0.14 seconds =       0.00 minutes
	total time  =          5 seconds =       0.08 minutes
Total time:
	user time   =      45.26 seconds =       0.75 minutes
	system time =       0.49 seconds =       0.01 minutes
	total time  =         16 seconds =       0.27 minutes

*** tstart() called on cx1-1-1-3.cx1.hpc.ic.ac.uk
*** at Fri Sep  2 13:36:06 2016


         ------------------------------------------------------------
                                   SCF GRAD                          
                          Rob Parrish, Justin Turney,                
                       Andy Simmonett, and Alex Sokolov              
         ------------------------------------------------------------

  ==> Geometry <==

    Molecular point group: c1
    Full point group: C1

    Geometry (in Angstrom), charge = 0, multiplicity = 1:

       Center              X                  Y                   Z               Mass       
    ------------   -----------------  -----------------  -----------------  -----------------
           H          3.422629504406    -0.377220658014    -0.948981003577     1.007825032070
           N          3.099596901536    -0.255163866296    -0.010298154680    14.003074004780
           C          1.864844396088     0.529920717598    -0.007959544631    12.000000000000
           H          3.833765416977     0.220405189427     0.476619029780     1.007825032070
           C          0.642561876210    -0.383539516191    -0.039073215134    12.000000000000
           H          1.786494265498     1.244594327111    -0.830117499936     1.007825032070
           H          1.849452333521     1.105269743168     0.910590064184     1.007825032070
           C         -0.683381219063     0.377022069223     0.023340137177    12.000000000000
           H          0.675788819414    -0.983571251248    -0.946371731772     1.007825032070
           H          0.716926622770    -1.081233152296     0.790509654049     1.007825032070
           C         -1.907826384563    -0.539734186377    -0.005474274217    12.000000000000
           H         -0.744323911412     1.079594673960    -0.807080223902     1.007825032070
           H         -0.710106079497     0.978056299777     0.931241942997     1.007825032070
           C         -3.229735479144     0.224213334309     0.063528201318    12.000000000000
           H         -1.885261415487    -1.140764195350    -0.911935760328     1.007825032070
           H         -1.851721110695    -1.239700216232     0.825280893192     1.007825032070
           H         -3.331332052792     0.908815153080    -0.773990415593     1.007825032070
           H         -4.078098236519    -0.453000643129     0.041430221761     1.007825032070
           H         -3.297384057370     0.808870519699     0.976756831212     1.007825032070

  Nuclear repulsion =  245.272285752664715

  ==> Basis Set <==

  Basis Set: 6-31G*
    Number of shells: 62
    Number of basis function: 116
    Number of Cartesian functions: 116
    Spherical Harmonics?: false
    Max angular momentum: 2

  ==> DFJKGrad: Density-Fitted SCF Gradients <==

    Gradient:                    1
    J tasked:                  Yes
    K tasked:                  Yes
    wK tasked:                  No
    OpenMP threads:              4
    Integrals threads:           4
    Memory (MB):              1430
    Schwarz Cutoff:          0E+00
    Fitting Condition:       1E-12

   => Auxiliary Basis Set <=

  Basis Set: 
    Number of shells: 261
    Number of basis function: 811
    Number of Cartesian functions: 811
    Spherical Harmonics?: false
    Max angular momentum: 3


  -Total Gradient:
     Atom            X                  Y                   Z
    ------   -----------------  -----------------  -----------------
       1       -0.000791717755     0.003806463701     0.001071628356
       2        0.001078306863    -0.004389200955     0.004623490385
       3        0.001927575104     0.002628871755    -0.005531589478
       4        0.000904842737    -0.001361779234     0.000174934452
       5        0.000250770292     0.000796068841     0.000862053614
       6       -0.004526016874     0.000244963301    -0.000831476523
       7        0.001487625233    -0.001815239277    -0.000597956328
       8       -0.000435649273    -0.000056181837    -0.000338929752
       9        0.000042434078     0.000483241738     0.000327783553
      10        0.000235809192    -0.000386009111     0.000158185595
      11       -0.000036634026     0.000131567307     0.000045249905
      12       -0.000200617319     0.000154839295     0.000003646613
      13        0.000161938844    -0.000207623844    -0.000038041655
      14       -0.000084179828    -0.000041705095    -0.000012463942
      15        0.000022855742     0.000029557214     0.000027455188
      16       -0.000014193684    -0.000018898131     0.000031506667
      17        0.000013493114    -0.000008800143     0.000010498106
      18       -0.000039842099     0.000014872264     0.000012368821
      19        0.000003199657    -0.000005007788     0.000001656424


*** tstop() called on cx1-1-1-3.cx1.hpc.ic.ac.uk at Fri Sep  2 13:36:11 2016
Module time:
	user time   =      18.73 seconds =       0.31 minutes
	system time =       0.17 seconds =       0.00 minutes
	total time  =          5 seconds =       0.08 minutes
Total time:
	user time   =      64.02 seconds =       1.07 minutes
	system time =       0.66 seconds =       0.01 minutes
	total time  =         21 seconds =       0.35 minutes
CURRENT ENERGY: -251.3498987309

			-----------------------------------------
			 OPTKING 2.0: for geometry optimizations 
			  - R.A. King,  Bethel University        
			-----------------------------------------

	Previous internal coordinate definitions found.
	---Fragment 1 Geometry and Gradient---
	 H           6.4678324177       -0.7128437353       -1.7933142021
	 N           5.8573892662       -0.4821898263       -0.0194606920
	 C           3.5240451891        1.0014050284       -0.0150413595
	 H           7.2447666958        0.4165054463        0.9006794360
	 C           1.2142659695       -0.7247846467       -0.0738376757
	 H           3.3759848998        2.3519424248       -1.5686947330
	 H           3.4949584062        2.0886571176        1.7207658406
	 C          -1.2914033484        0.7124684569        0.0441064672
	 H           1.2770557924       -1.8586802970       -1.7883833930
	 H           1.3547949744       -2.0432345436        1.4938467516
	 C          -3.6052693759       -1.0199497968       -0.0103448790
	 H          -1.4065683467        2.0401382683       -1.5251605904
	 H          -1.3419060155        1.8482585491        1.7597922357
	 C          -6.1033155372        0.4237017972        0.1200509022
	 H          -3.5626277642       -2.1557319114       -1.7233088378
	 H          -3.4992457737       -2.3426938956        1.5595548708
	 H          -6.2953052375        1.7174117447       -1.4626299149
	 H          -7.7064888100       -0.8560471535        0.0782917728
	 H          -6.2311528234        1.5285437592        1.8458029094
	            -0.0007917178        0.0038064637        0.0010716284
	             0.0010783069       -0.0043892010        0.0046234904
	             0.0019275751        0.0026288718       -0.0055315895
	             0.0009048427       -0.0013617792        0.0001749345
	             0.0002507703        0.0007960688        0.0008620536
	            -0.0045260169        0.0002449633       -0.0008314765
	             0.0014876252       -0.0018152393       -0.0005979563
	            -0.0004356493       -0.0000561818       -0.0003389298
	             0.0000424341        0.0004832417        0.0003277836
	             0.0002358092       -0.0003860091        0.0001581856
	            -0.0000366340        0.0001315673        0.0000452499
	            -0.0002006173        0.0001548393        0.0000036466
	             0.0001619388       -0.0002076238       -0.0000380417
	            -0.0000841798       -0.0000417051       -0.0000124639
	             0.0000228557        0.0000295572        0.0000274552
	            -0.0000141937       -0.0000188981        0.0000315067
	             0.0000134931       -0.0000088001        0.0000104981
	            -0.0000398421        0.0000148723        0.0000123688
	             0.0000031997       -0.0000050078        0.0000016564

	---Fragment 1 Intrafragment Coordinates---
	 - Coordinate -           - BOHR/RAD -       - ANG/DEG -
	 R(1,2)           =         1.890079	       1.000187
	 R(2,3)           =         2.765062	       1.463208
	 R(2,4)           =         1.891858	       1.001128
	 R(3,5)           =         2.884141	       1.526222
	 R(3,6)           =         2.063907	       1.092173
	 R(3,7)           =         2.048412	       1.083973
	 R(5,8)           =         2.891018	       1.529861
	 R(5,9)           =         2.056533	       1.088271
	 R(5,10)          =         2.053215	       1.086515
	 R(8,11)          =         2.891058	       1.529882
	 R(8,12)          =         2.058779	       1.089459
	 R(8,13)          =         2.058190	       1.089147
	 R(11,14)         =         2.888143	       1.528339
	 R(11,15)         =         2.055739	       1.087851
	 R(11,16)         =         2.055597	       1.087775
	 R(14,17)         =         2.053150	       1.086480
	 R(14,18)         =         2.051747	       1.085738
	 R(14,19)         =         2.053105	       1.086456
	 B(1,2,3)         =         1.917206	     109.847815
	 B(1,2,4)         =         1.852072	     106.115934
	 B(2,3,5)         =         1.933338	     110.772080
	 B(2,3,6)         =         1.993723	     114.231908
	 B(2,3,7)         =         1.873525	     107.345092
	 B(3,2,4)         =         1.942481	     111.295974
	 B(3,5,8)         =         1.977659	     113.311504
	 B(3,5,9)         =         1.899209	     108.816661
	 B(3,5,10)        =         1.890146	     108.297361
	 B(5,3,6)         =         1.895306	     108.593007
	 B(5,3,7)         =         1.900307	     108.879544
	 B(5,8,11)        =         1.976863	     113.265884
	 B(5,8,12)        =         1.915572	     109.754175
	 B(5,8,13)        =         1.906695	     109.245604
	 B(6,3,7)         =         1.864558	     106.831329
	 B(8,5,9)         =         1.911957	     109.547094
	 B(8,5,10)        =         1.925601	     110.328787
	 B(8,11,14)       =         1.973460	     113.070941
	 B(8,11,15)       =         1.907275	     109.278781
	 B(8,11,16)       =         1.907028	     109.264674
	 B(9,5,10)        =         1.855024	     106.285036
	 B(11,8,12)       =         1.904250	     109.105480
	 B(11,8,13)       =         1.903651	     109.071150
	 B(11,14,17)      =         1.940179	     111.164075
	 B(11,14,18)      =         1.942427	     111.292865
	 B(11,14,19)      =         1.939915	     111.148923
	 B(12,8,13)       =         1.852658	     106.149507
	 B(14,11,15)      =         1.908931	     109.373685
	 B(14,11,16)      =         1.908985	     109.376797
	 B(15,11,16)      =         1.854367	     106.247431
	 B(17,14,18)      =         1.879966	     107.714095
	 B(17,14,19)      =         1.878680	     107.640458
	 B(18,14,19)      =         1.879798	     107.704520
	 D(1,2,3,5)       =         1.623206	      93.002827
	*D(1,2,3,6)       =        -0.523598	     -29.999959
	 D(1,2,3,7)       =        -2.587354	    -148.244450
	 D(2,3,5,8)       =         3.097793	     177.490458
	 D(2,3,5,9)       =        -1.053960	     -60.387467
	 D(2,3,5,10)      =         0.955467	      54.744243
	 D(3,5,8,11)      =        -3.139855	    -179.900426
	 D(3,5,8,12)      =         1.010433	      57.893525
	 D(3,5,8,13)      =        -1.014192	     -58.108927
	 D(4,2,3,5)       =        -2.614063	    -149.774786
	 D(4,2,3,6)       =         1.522319	      87.222427
	 D(4,2,3,7)       =        -0.541437	     -31.022063
	 D(5,8,11,14)     =         3.136995	     179.736581
	 D(5,8,11,15)     =        -1.015649	     -58.192385
	 D(5,8,11,16)     =         1.006562	      57.671738
	 D(6,3,5,8)       =        -0.982626	     -56.300297
	 D(6,3,5,9)       =         1.148807	      65.821778
	 D(6,3,5,10)      =        -3.124951	    -179.046512
	 D(7,3,5,8)       =         1.041446	      59.670434
	 D(7,3,5,9)       =        -3.110307	    -178.207492
	 D(7,3,5,10)      =        -1.100880	     -63.075782
	 D(8,11,14,17)    =         1.046226	      59.944334
	 D(8,11,14,18)    =        -3.141330	    -179.984971
	 D(8,11,14,19)    =        -1.046091	     -59.936621
	 D(9,5,8,11)      =         1.019018	      58.385452
	 D(9,5,8,12)      =        -1.113880	     -63.820597
	 D(9,5,8,13)      =        -3.138504	    -179.823049
	 D(10,5,8,11)     =        -1.017276	     -58.285650
	 D(10,5,8,12)     =         3.133011	     179.508302
	 D(10,5,8,13)     =         1.108386	      63.505849
	 D(12,8,11,14)    =        -1.006996	     -57.696614
	 D(12,8,11,15)    =         1.123546	      64.374419
	 D(12,8,11,16)    =        -3.137429	    -179.761457
	 D(13,8,11,14)    =         1.009629	      57.847482
	 D(13,8,11,15)    =         3.140170	     179.918516
	 D(13,8,11,16)    =        -1.120804	     -64.217361
	 D(15,11,14,17)   =        -1.083387	     -62.073527
	 D(15,11,14,18)   =         1.012242	      57.997168
	 D(15,11,14,19)   =         3.107481	     178.045519
	 D(16,11,14,17)   =        -3.107622	    -178.053652
	 D(16,11,14,18)   =        -1.011994	     -57.982957
	 D(16,11,14,19)   =         1.083245	      62.065393

	Current energy   :      -251.3498987309

	Energy change for the previous step:
		Projected    :        -0.0116026020
		Actual       :        -0.0014513631
	Energy ratio indicates iffy step: Trust radius decreased to 1.250e-01.


	Performing BFGS update.
	Previous computed or guess Hessian on step 1.
	Steps to be used in Hessian update: 1
	Taking RFO optimization step.
	Going to follow RFO solution 1.
	Using RFO vector 1.

	Determining step-restricting scale parameter for RS-RFO.
	Maximum step size allowed    0.12500

	 Iter      |step|        alpha        rfo_root  
	------------------------------------------------
	    0     0.15021       1.00000           1
	    1     0.13032       1.86335           1
	    2     0.12536       2.15639           1
	    3     0.12500       2.17930           1
	------------------------------------------------
	Norm of target step-size    0.12500
	Projected energy change by RFO approximation:        -0.0007422767

	Back-transformation to cartesian coordinates...
	Successfully converged to displaced geometry.

	Back-transformation to cartesian coordinates to adjust frozen coordinates...
	Successfully converged to displaced geometry.

	--- Internal Coordinate Step in ANG or DEG, aJ/ANG or AJ/DEG ---
	 ---------------------------------------------------------------------------
	   Coordinate                Previous        Force       Change         New 
	   ----------                --------       ------       ------       ------
	    1 R(1,2)          =      1.000187     0.014220     0.001368     1.001555
	    2 R(2,3)          =      1.463208    -0.016802    -0.001903     1.461305
	    3 R(2,4)          =      1.001128    -0.000838    -0.000118     1.001010
	    4 R(3,5)          =      1.526222     0.004020     0.000665     1.526887
	    5 R(3,6)          =      1.092173    -0.009152    -0.001039     1.091133
	    6 R(3,7)          =      1.083973     0.012287     0.001425     1.085398
	    7 R(5,8)          =      1.529861    -0.004236    -0.000655     1.529206
	    8 R(5,9)          =      1.088271     0.004436     0.000649     1.088919
	    9 R(5,10)         =      1.086515    -0.003170    -0.000515     1.086000
	   10 R(8,11)         =      1.529882    -0.000373    -0.000058     1.529824
	   11 R(8,12)         =      1.089459    -0.000892    -0.000106     1.089352
	   12 R(8,13)         =      1.089147     0.001238     0.000172     1.089319
	   13 R(11,14)        =      1.528339    -0.000602    -0.000093     1.528247
	   14 R(11,15)        =      1.087851     0.000319     0.000045     1.087896
	   15 R(11,16)        =      1.087775    -0.000292    -0.000044     1.087731
	   16 R(14,17)        =      1.086480     0.000123     0.000018     1.086498
	   17 R(14,18)        =      1.085738    -0.000178    -0.000021     1.085717
	   18 R(14,19)        =      1.086456     0.000012     0.000002     1.086458
	   19 B(1,2,3)        =    109.847815     0.000305     0.985369   110.833184
	   20 B(1,2,4)        =    106.115934    -0.000039    -0.218326   105.897607
	   21 B(2,3,5)        =    110.772080     0.000005     0.048640   110.820719
	   22 B(2,3,6)        =    114.231908    -0.000272    -1.796007   112.435901
	   23 B(2,3,7)        =    107.345092     0.000177     1.170760   108.515852
	   24 B(3,2,4)        =    111.295974    -0.000245    -0.844324   110.451650
	   25 B(3,5,8)        =    113.311504    -0.000044    -0.114382   113.197122
	   26 B(3,5,9)        =    108.816661     0.000022     0.111634   108.928296
	   27 B(3,5,10)       =    108.297361     0.000018     0.014265   108.311625
	   28 B(5,3,6)        =    108.593007     0.000120     0.005521   108.598528
	   29 B(5,3,7)        =    108.879544    -0.000038     0.523806   109.403350
	   30 B(5,8,11)       =    113.265884    -0.000015    -0.037990   113.227893
	   31 B(5,8,12)       =    109.754175    -0.000012    -0.109471   109.644704
	   32 B(5,8,13)       =    109.245604     0.000020     0.122706   109.368311
	   33 B(6,3,7)        =    106.831329     0.000014     0.130103   106.961432
	   34 B(8,5,9)        =    109.547094     0.000008    -0.008362   109.538732
	   35 B(8,5,10)       =    110.328787     0.000005    -0.004516   110.324272
	   36 B(8,11,14)      =    113.070941    -0.000009    -0.022102   113.048839
	   37 B(8,11,15)      =    109.278781     0.000004     0.013576   109.292357
	   38 B(8,11,16)      =    109.264674     0.000002    -0.000268   109.264406
	   39 B(9,5,10)       =    106.285036    -0.000007     0.010821   106.295858
	   40 B(11,8,12)      =    109.105480     0.000012    -0.012419   109.093061
	   41 B(11,8,13)      =    109.071150    -0.000000     0.043471   109.114622
	   42 B(11,14,17)     =    111.164075     0.000002     0.006725   111.170799
	   43 B(11,14,18)     =    111.292865    -0.000005    -0.017039   111.275826
	   44 B(11,14,19)     =    111.148923     0.000001     0.005641   111.154564
	   45 B(12,8,13)      =    106.149507    -0.000003    -0.003556   106.145951
	   46 B(14,11,15)     =    109.373685     0.000001    -0.001115   109.372570
	   47 B(14,11,16)     =    109.376797     0.000004     0.010879   109.387676
	   48 B(15,11,16)     =    106.247431    -0.000002     0.000408   106.247839
	   49 B(17,14,18)     =    107.714095     0.000001    -0.001023   107.713072
	   50 B(17,14,19)     =    107.640458    -0.000001     0.001664   107.642122
	   51 B(18,14,19)     =    107.704520     0.000002     0.004349   107.708869
	   52 D(1,2,3,5)      =     93.002827    -0.000009    -1.255178    91.747650
	   53 *D(1,2,3,6)     =    -29.999959     0.000000    -0.000000   -29.999959
	   54 D(1,2,3,7)      =   -148.244450     0.000006     0.136808  -148.107642
	   55 D(2,3,5,8)      =    177.490458     0.000036     3.203104   180.693562
	   56 D(2,3,5,9)      =    -60.387467     0.000035     3.195977   -57.191491
	   57 D(2,3,5,10)     =     54.744243     0.000038     3.275095    58.019337
	   58 D(3,5,8,11)     =   -179.900426    -0.000000    -0.252375  -180.152801
	   59 D(3,5,8,12)     =     57.893525     0.000001    -0.129864    57.763661
	   60 D(3,5,8,13)     =    -58.108927     0.000001    -0.133649   -58.242576
	   61 D(4,2,3,5)      =   -149.774786    -0.000011    -1.431638  -151.206424
	   62 D(4,2,3,6)      =     87.222427    -0.000001    -0.176460    87.045967
	   63 D(4,2,3,7)      =    -31.022063     0.000004    -0.039652   -31.061715
	   64 D(5,8,11,14)    =    179.736581     0.000003     0.046319   179.782900
	   65 D(5,8,11,15)    =    -58.192385     0.000002     0.039665   -58.152721
	   66 D(5,8,11,16)    =     57.671738     0.000003     0.047580    57.719318
	   67 D(6,3,5,8)      =    -56.300297    -0.000023     0.965258   -55.335039
	   68 D(6,3,5,9)      =     65.821778    -0.000024     0.958131    66.779909
	   69 D(6,3,5,10)     =   -179.046512    -0.000021     1.037249  -178.009263
	   70 D(7,3,5,8)      =     59.670434    -0.000009     1.409089    61.079522
	   71 D(7,3,5,9)      =   -178.207492    -0.000010     1.401961  -176.805530
	   72 D(7,3,5,10)     =    -63.075782    -0.000007     1.481080   -61.594702
	   73 D(8,11,14,17)   =     59.944334     0.000000     0.012759    59.957093
	   74 D(8,11,14,18)   =   -179.984971     0.000000     0.004532  -179.980439
	   75 D(8,11,14,19)   =    -59.936621     0.000000     0.002386   -59.934235
	   76 D(9,5,8,11)     =     58.385452    -0.000001    -0.311623    58.073828
	   77 D(9,5,8,12)     =    -63.820597    -0.000000    -0.189112   -64.009709
	   78 D(9,5,8,13)     =   -179.823049    -0.000000    -0.192897  -180.015946
	   79 D(10,5,8,11)    =    -58.285650    -0.000001    -0.317185   -58.602835
	   80 D(10,5,8,12)    =    179.508302     0.000000    -0.194674   179.313627
	   81 D(10,5,8,13)    =     63.505849    -0.000000    -0.198459    63.307390
	   82 D(12,8,11,14)   =    -57.696614    -0.000001    -0.129439   -57.826053
	   83 D(12,8,11,15)   =     64.374419    -0.000002    -0.136093    64.238326
	   84 D(12,8,11,16)   =   -179.761457    -0.000001    -0.128178  -179.889635
	   85 D(13,8,11,14)   =     57.847482    -0.000001    -0.116621    57.730861
	   86 D(13,8,11,15)   =    179.918516    -0.000001    -0.123276   179.795240
	   87 D(13,8,11,16)   =    -64.217361    -0.000001    -0.115360   -64.332721
	   88 D(15,11,14,17)  =    -62.073527     0.000000     0.011202   -62.062324
	   89 D(15,11,14,18)  =     57.997168    -0.000000     0.002975    58.000143
	   90 D(15,11,14,19)  =    178.045519    -0.000000     0.000829   178.046347
	   91 D(16,11,14,17)  =   -178.053652    -0.000000     0.005220  -178.048432
	   92 D(16,11,14,18)  =    -57.982957    -0.000000    -0.003008   -57.985965
	   93 D(16,11,14,19)  =     62.065393    -0.000000    -0.005154    62.060239
	 ---------------------------------------------------------------------------

  ==> Convergence Check <==

  Measures of convergence in internal coordinates in au.
  Criteria marked as inactive (o), active & met (*), and active & unmet ( ).
  ---------------------------------------------------------------------------------------------
   Step     Total Energy     Delta E     MAX Force     RMS Force      MAX Disp      RMS Disp   
  ---------------------------------------------------------------------------------------------
    Convergence Criteria    1.00e-06 *    3.00e-04 *             o    1.20e-03 *             o
  ---------------------------------------------------------------------------------------------
      2    -251.34989873   -1.45e-03      4.01e-03      9.25e-04 o    5.72e-02      1.30e-02 o  ~
  ---------------------------------------------------------------------------------------------

	Writing optimization data to binary file.
	Structure for next step:
	Cartesian Geometry (in Angstrom)
	    H     3.4001282094  -0.3647905145  -0.9936764830
	    N     3.0985716185  -0.2526940927  -0.0451983209
	    C     1.8643732103   0.5270747842   0.0190402601
	    H     3.8409170601   0.2281802507   0.4235284414
	    C     0.6421811583  -0.3875249845  -0.0146712929
	    H     1.7833231740   1.2464475348  -0.7973577125
	    H     1.8637280668   1.0958476663   0.9434784407
	    C    -0.6823929440   0.3751716215   0.0329472515
	    H     0.6803822863  -0.9949931334  -0.9175932206
	    H     0.7098752035  -1.0783971369   0.8204992606
	    C    -1.9074571734  -0.5403468039  -0.0045380711
	    H    -0.7333874100   1.0730194294  -0.8019760048
	    H    -0.7177905257   0.9815691921   0.9371844255
	    C    -3.2287645008   0.2257245652   0.0485626688
	    H    -1.8768824803  -1.1448484804  -0.9085073475
	    H    -1.8603415787  -1.2372081776   0.8293219361
	    H    -3.3212976145   0.9072088753  -0.7925644682
	    H    -4.0776563362  -0.4505798421   0.0206982733
	    H    -3.3046195257   0.8139736666   0.9588370970
			--------------------------
			 OPTKING Finished Execution 
			--------------------------

    Structure for next step:
    Molecular point group: c1
    Full point group: C1

    Geometry (in Angstrom), charge = 0, multiplicity = 1:

    H            3.400094581818    -0.364176751405    -0.994398188741
    N            3.098538013857    -0.252080338104    -0.045920099049
    C            1.864339699928     0.527688479226     0.018318477072
    H            3.840883398774     0.228793968550     0.422806627439
    C            0.642147741260    -0.386911219637    -0.015393073428
    H            1.783289669804     1.247061174871    -0.798079433211
    H            1.863694556529     1.096461317872     0.942756587011
    C           -0.682426259829     0.375785328137     0.032225467382
    H            0.680348866352    -0.994379322125    -0.918314932093
    H            0.709841781269    -1.077783319344     0.819777416333
    C           -1.907490395765    -0.539733027429    -0.005259852339
    H           -0.733420722005     1.073633082755    -0.802697725119
    H           -0.717823838887     0.982182852438     0.936462572294
    C           -3.228797622226     0.226338283223     0.047840883475
    H           -1.876915705002    -1.144234657755    -0.909229059715
    H           -1.860374804630    -1.236594347834     0.828600091121
    H           -3.321330728880     0.907822541244    -0.793286189304
    H           -4.077689392768    -0.449966072432     0.019976490075
    H           -3.304652641335     0.814587339724     0.958115242166

gradient() will perform analytic gradient computation.

*** tstart() called on cx1-1-1-3.cx1.hpc.ic.ac.uk
*** at Fri Sep  2 13:36:12 2016


         ---------------------------------------------------------
                                   SCF
            by Justin Turney, Rob Parrish, and Andy Simmonett
                              RHF Reference
                        4 Threads,   2000 MiB Core
         ---------------------------------------------------------

  ==> Geometry <==

    Molecular point group: c1
    Full point group: C1

    Geometry (in Angstrom), charge = 0, multiplicity = 1:

       Center              X                  Y                   Z               Mass       
    ------------   -----------------  -----------------  -----------------  -----------------
           H          3.400094581818    -0.364176751405    -0.994398188741     1.007825032070
           N          3.098538013857    -0.252080338104    -0.045920099049    14.003074004780
           C          1.864339699928     0.527688479226     0.018318477072    12.000000000000
           H          3.840883398774     0.228793968550     0.422806627439     1.007825032070
           C          0.642147741260    -0.386911219637    -0.015393073428    12.000000000000
           H          1.783289669804     1.247061174871    -0.798079433211     1.007825032070
           H          1.863694556529     1.096461317872     0.942756587011     1.007825032070
           C         -0.682426259829     0.375785328137     0.032225467382    12.000000000000
           H          0.680348866352    -0.994379322125    -0.918314932093     1.007825032070
           H          0.709841781269    -1.077783319344     0.819777416333     1.007825032070
           C         -1.907490395765    -0.539733027429    -0.005259852339    12.000000000000
           H         -0.733420722005     1.073633082755    -0.802697725119     1.007825032070
           H         -0.717823838887     0.982182852438     0.936462572294     1.007825032070
           C         -3.228797622226     0.226338283223     0.047840883475    12.000000000000
           H         -1.876915705002    -1.144234657755    -0.909229059715     1.007825032070
           H         -1.860374804630    -1.236594347834     0.828600091121     1.007825032070
           H         -3.321330728880     0.907822541244    -0.793286189304     1.007825032070
           H         -4.077689392768    -0.449966072432     0.019976490075     1.007825032070
           H         -3.304652641335     0.814587339724     0.958115242166     1.007825032070

  Running in c1 symmetry.

  Rotational constants: A =      0.51832  B =      0.03784  C =      0.03661 [cm^-1]
  Rotational constants: A =  15538.92481  B =   1134.52869  C =   1097.48581 [MHz]
  Nuclear repulsion =  245.316153406019708

  Charge       = 0
  Multiplicity = 1
  Electrons    = 50
  Nalpha       = 25
  Nbeta        = 25

  ==> Algorithm <==

  SCF Algorithm Type is DF.
  DIIS enabled.
  MOM disabled.
  Fractional occupation disabled.
  Guess Type is READ.
  Energy threshold   = 1.00e-08
  Density threshold  = 1.00e-08
  Integral threshold = 0.00e+00

  ==> Primary Basis <==

  Basis Set: 6-31G*
    Number of shells: 62
    Number of basis function: 116
    Number of Cartesian functions: 116
    Spherical Harmonics?: false
    Max angular momentum: 2

  ==> Pre-Iterations <==

   -------------------------------------------------------
    Irrep   Nso     Nmo     Nalpha   Nbeta   Ndocc  Nsocc
   -------------------------------------------------------
     A        116     116       0       0       0       0
   -------------------------------------------------------
    Total     116     116      25      25      25       0
   -------------------------------------------------------

 OEINTS: Overlap, kinetic, potential, dipole, and quadrupole integrals
         stored in file 35.

  ==> Integral Setup <==

  ==> DFJK: Density-Fitted J/K Matrices <==

    J tasked:                  Yes
    K tasked:                  Yes
    wK tasked:                  No
    OpenMP threads:              4
    Integrals threads:           4
    Memory (MB):              1430
    Algorithm:                Core
    Integral Cache:           NONE
    Schwarz Cutoff:          1E-12
    Fitting Condition:       1E-12

   => Auxiliary Basis Set <=

  Basis Set: 
    Number of shells: 261
    Number of basis function: 811
    Number of Cartesian functions: 811
    Spherical Harmonics?: false
    Max angular momentum: 3

  Minimum eigenvalue in the overlap matrix is 3.1981696849E-03.
  Using Symmetric Orthogonalization.
  SCF Guess: Reading in previously saved MOs, projecting if necessary.

  Using orbitals from previous SCF, no projection.
  Recomputing DOCC and SOCC from number of alpha and beta electrons from previous calculation.
              A 
    DOCC [    25 ]

  ==> Iterations <==

                           Total Energy        Delta E     RMS |[F,P]|

   @DF-RHF iter   0:  -251.35030898722854   -2.51350e+02   5.06737e-04 
   @DF-RHF iter   1:  -251.35009525219127    2.13735e-04   7.55671e-05 
   @DF-RHF iter   2:  -251.35016761047993   -7.23583e-05   2.49595e-05 DIIS
   @DF-RHF iter   3:  -251.35017758805938   -9.97758e-06   5.19966e-06 DIIS
   @DF-RHF iter   4:  -251.35017788725500   -2.99196e-07   1.67694e-06 DIIS
   @DF-RHF iter   5:  -251.35017793375013   -4.64951e-08   5.60974e-07 DIIS
   @DF-RHF iter   6:  -251.35017793975643   -6.00630e-09   1.36681e-07 DIIS
   @DF-RHF iter   7:  -251.35017794008294   -3.26509e-10   3.84473e-08 DIIS
   @DF-RHF iter   8:  -251.35017794010380   -2.08615e-11   1.07237e-08 DIIS
[...]
	 R(8,12)          =         2.058458	       1.089289
	 R(8,13)          =         2.058574	       1.089351
	 R(11,14)         =         2.887959	       1.528242
	 R(11,15)         =         2.055831	       1.087899
	 R(11,16)         =         2.055527	       1.087738
	 R(14,17)         =         2.053178	       1.086495
	 R(14,18)         =         2.051709	       1.085718
	 R(14,19)         =         2.053106	       1.086457
	 B(1,2,3)         =         1.931531	     110.668552
	 B(1,2,4)         =         1.847652	     105.862662
	 B(2,3,5)         =         1.932911	     110.747659
	 B(2,3,6)         =         1.961370	     112.378230
	 B(2,3,7)         =         1.894508	     108.547325
	 B(3,2,4)         =         1.928649	     110.503462
	 B(3,5,8)         =         1.975798	     113.204895
	 B(3,5,9)         =         1.899033	     108.806592
	 B(3,5,10)        =         1.891882	     108.396832
	 B(5,3,6)         =         1.895771	     108.619675
	 B(5,3,7)         =         1.908380	     109.342142
	 B(5,8,11)        =         1.976500	     113.245119
	 B(5,8,12)        =         1.912517	     109.579148
	 B(5,8,13)        =         1.909781	     109.422370
	 B(6,3,7)         =         1.869364	     107.106686
	 B(8,5,9)         =         1.913078	     109.611302
	 B(8,5,10)        =         1.924726	     110.278655
	 B(8,11,14)       =         1.973168	     113.054212
	 B(8,11,15)       =         1.907300	     109.280232
	 B(8,11,16)       =         1.907171	     109.272871
	 B(9,5,10)        =         1.855211	     106.295778
	 B(11,8,12)       =         1.904317	     109.109338
	 B(11,8,13)       =         1.904074	     109.095383
	 B(11,14,17)      =         1.940236	     111.167333
	 B(11,14,18)      =         1.942190	     111.279283
	 B(11,14,19)      =         1.940052	     111.156798
	 B(12,8,13)       =         1.852526	     106.141895
	 B(14,11,15)      =         1.908912	     109.372589
	 B(14,11,16)      =         1.909152	     109.386339
	 B(15,11,16)      =         1.854361	     106.247064
	 B(17,14,18)      =         1.879923	     107.711648
	 B(17,14,19)      =         1.878696	     107.641369
	 B(18,14,19)      =         1.879871	     107.708681
	 D(1,2,3,5)       =         1.600152	      91.681933
	*D(1,2,3,6)       =        -0.523598	     -29.999959
	 D(1,2,3,7)       =        -2.587854	    -148.273103
	 D(2,3,5,8)       =        -3.137812	    -179.783367
	 D(2,3,5,9)       =        -1.006323	     -57.658070
	 D(2,3,5,10)      =         1.004157	      57.533951
	 D(3,5,8,11)      =        -3.139232	    -179.864730
	 D(3,5,8,12)      =         1.013456	      58.066741
	 D(3,5,8,13)      =        -1.011039	     -57.928259
	 D(4,2,3,5)       =        -2.642151	    -151.384075
	 D(4,2,3,6)       =         1.517285	      86.934032
	 D(4,2,3,7)       =        -0.546971	     -31.339111
	 D(5,8,11,14)     =         3.138787	     179.839247
	 D(5,8,11,15)     =        -1.014062	     -58.101445
	 D(5,8,11,16)     =         1.008235	      57.767625
	 D(6,3,5,8)       =        -0.975959	     -55.918312
	 D(6,3,5,9)       =         1.155530	      66.206985
	 D(6,3,5,10)      =        -3.117175	    -178.600995
	 D(7,3,5,8)       =         1.058506	      60.647912
	 D(7,3,5,9)       =        -3.093191	    -177.226791
	 D(7,3,5,10)      =        -1.082711	     -62.034770
	 D(8,11,14,17)    =         1.046147	      59.939797
	 D(8,11,14,18)    =         3.141593	     180.000000
	 D(8,11,14,19)    =        -1.046321	     -59.949755
	 D(9,5,8,11)      =         1.020327	      58.460412
	 D(9,5,8,12)      =        -1.110171	     -63.608118
	 D(9,5,8,13)      =        -3.134666	    -179.603118
	 D(10,5,8,11)     =        -1.016349	     -58.232535
	 D(10,5,8,12)     =         3.136338	     179.698936
	 D(10,5,8,13)     =         1.111843	      63.703935
	 D(12,8,11,14)    =        -1.009329	     -57.830309
	 D(12,8,11,15)    =         1.121008	      64.228999
	 D(12,8,11,16)    =        -3.139881	    -179.901931
	 D(13,8,11,14)    =         1.007407	      57.720142
	 D(13,8,11,15)    =         3.137743	     179.779450
	 D(13,8,11,16)    =        -1.123145	     -64.351481
	 D(15,11,14,17)   =        -1.083286	     -62.067743
	 D(15,11,14,18)   =         1.012167	      57.992910
	 D(15,11,14,19)   =         3.107431	     178.042705
	 D(16,11,14,17)   =        -3.107597	    -178.052179
	 D(16,11,14,18)   =        -1.012143	     -57.991526
	 D(16,11,14,19)   =         1.083121	      62.058269

	Current energy   :      -251.3501834441

	Energy change for the previous step:
		Projected    :         0.0000004920
		Actual       :        -0.0000000975

	Performing BFGS update.
	Previous computed or guess Hessian on step 1.
	Steps to be used in Hessian update: 5 4
	Taking RFO optimization step.
	Going to follow RFO solution 1.
	Rejecting RFO root 1 because normalization gives large value.
	Rejecting RFO root 2 because normalization gives large value.
	Using RFO vector 3.
	Norm of target step-size    0.00662
	Projected energy change by RFO approximation:        -0.0000002138

	Back-transformation to cartesian coordinates...
	Successfully converged to displaced geometry.

	Back-transformation to cartesian coordinates to adjust frozen coordinates...
	Successfully converged to displaced geometry.

	--- Internal Coordinate Step in ANG or DEG, aJ/ANG or AJ/DEG ---
	 ---------------------------------------------------------------------------
	   Coordinate                Previous        Force       Change         New 
	   ----------                --------       ------       ------       ------
	    1 R(1,2)          =      1.001641     0.000045     0.000006     1.001646
	    2 R(2,3)          =      1.460966     0.000214     0.000036     1.461002
	    3 R(2,4)          =      1.001410     0.000007    -0.000013     1.001396
	    4 R(3,5)          =      1.526690     0.000029     0.000027     1.526716
	    5 R(3,6)          =      1.091009     0.000010     0.000007     1.091016
	    6 R(3,7)          =      1.085292    -0.000040    -0.000010     1.085283
	    7 R(5,8)          =      1.529130     0.000041     0.000002     1.529132
	    8 R(5,9)          =      1.088722     0.000004     0.000011     1.088733
	    9 R(5,10)         =      1.086229    -0.000023    -0.000014     1.086215
	   10 R(8,11)         =      1.529870     0.000009    -0.000002     1.529868
	   11 R(8,12)         =      1.089289    -0.000000     0.000003     1.089292
	   12 R(8,13)         =      1.089351     0.000010     0.000002     1.089352
	   13 R(11,14)        =      1.528242     0.000009     0.000000     1.528242
	   14 R(11,15)        =      1.087899     0.000011    -0.000001     1.087898
	   15 R(11,16)        =      1.087738    -0.000011     0.000001     1.087739
	   16 R(14,17)        =      1.086495     0.000007     0.000002     1.086497
	   17 R(14,18)        =      1.085718     0.000005     0.000000     1.085718
	   18 R(14,19)        =      1.086457    -0.000010    -0.000002     1.086455
	   19 B(1,2,3)        =    110.668552     0.000001     0.005841   110.674393
	   20 B(1,2,4)        =    105.862662    -0.000000     0.001961   105.864623
	   21 B(2,3,5)        =    110.747659     0.000000    -0.000394   110.747266
	   22 B(2,3,6)        =    112.378230     0.000000    -0.002794   112.375436
	   23 B(2,3,7)        =    108.547325    -0.000000    -0.001338   108.545988
	   24 B(3,2,4)        =    110.503462    -0.000000    -0.006985   110.496477
	   25 B(3,5,8)        =    113.204895     0.000001     0.000783   113.205678
	   26 B(3,5,9)        =    108.806592    -0.000000     0.003652   108.810243
	   27 B(3,5,10)       =    108.396832    -0.000000    -0.003628   108.393203
	   28 B(5,3,6)        =    108.619675    -0.000000    -0.002277   108.617398
	   29 B(5,3,7)        =    109.342142    -0.000000     0.008744   109.350885
	   30 B(5,8,11)       =    113.245119     0.000000    -0.000300   113.244819
	   31 B(5,8,12)       =    109.579148     0.000000     0.003166   109.582313
	   32 B(5,8,13)       =    109.422370    -0.000000    -0.002064   109.420306
	   33 B(6,3,7)        =    107.106686     0.000000    -0.001574   107.105111
	   34 B(8,5,9)        =    109.611302    -0.000000     0.000285   109.611587
	   35 B(8,5,10)       =    110.278655    -0.000000    -0.000089   110.278566
	   36 B(8,11,14)      =    113.054212     0.000000    -0.000183   113.054029
	   37 B(8,11,15)      =    109.280232     0.000000    -0.000790   109.279442
	   38 B(8,11,16)      =    109.272871    -0.000000     0.001123   109.273994
	   39 B(9,5,10)       =    106.295778     0.000000    -0.001102   106.294676
	   40 B(11,8,12)      =    109.109338    -0.000001    -0.002488   109.106849
	   41 B(11,8,13)      =    109.095383     0.000000     0.001953   109.097336
	   42 B(11,14,17)     =    111.167333     0.000000     0.000598   111.167931
	   43 B(11,14,18)     =    111.279283     0.000000     0.000113   111.279396
	   44 B(11,14,19)     =    111.156798    -0.000000    -0.000690   111.156109
	   45 B(12,8,13)      =    106.141895     0.000000    -0.000269   106.141626
	   46 B(14,11,15)     =    109.372589    -0.000000    -0.001590   109.370999
	   47 B(14,11,16)     =    109.386339     0.000000     0.001536   109.387875
	   48 B(15,11,16)     =    106.247064     0.000000    -0.000091   106.246973
	   49 B(17,14,18)     =    107.711648    -0.000000    -0.000242   107.711406
	   50 B(17,14,19)     =    107.641369     0.000000    -0.000030   107.641339
	   51 B(18,14,19)     =    107.708681     0.000000     0.000248   107.708929
	   52 D(1,2,3,5)      =     91.681933     0.000000    -0.005168    91.676765
	   53 *D(1,2,3,6)     =    -29.999959     0.000000     0.000000   -29.999959
	   54 D(1,2,3,7)      =   -148.273103     0.000000     0.004499  -148.268604
	   55 D(2,3,5,8)      =   -179.783367    -0.000000    -0.002588  -179.785955
	   56 D(2,3,5,9)      =    -57.658070     0.000000     0.000931   -57.657139
	   57 D(2,3,5,10)     =     57.533951    -0.000000    -0.000376    57.533575
	   58 D(3,5,8,11)     =   -179.864730    -0.000000    -0.012687  -179.877417
	   59 D(3,5,8,12)     =     58.066741    -0.000000    -0.011586    58.055155
	   60 D(3,5,8,13)     =    -57.928259    -0.000000    -0.011881   -57.940140
	   61 D(4,2,3,5)      =   -151.384075    -0.000000    -0.003468  -151.387543
	   62 D(4,2,3,6)      =     86.934032    -0.000000     0.001700    86.935732
	   63 D(4,2,3,7)      =    -31.339111    -0.000000     0.006198   -31.332913
	   64 D(5,8,11,14)    =    179.839247     0.000000     0.122276   179.961523
	   65 D(5,8,11,15)    =    -58.101445     0.000000     0.119544   -57.981901
	   66 D(5,8,11,16)    =     57.767625     0.000000     0.119621    57.887246
	   67 D(6,3,5,8)      =    -55.918312     0.000000    -0.007912   -55.926224
	   68 D(6,3,5,9)      =     66.206985     0.000000    -0.004393    66.202592
	   69 D(6,3,5,10)     =   -178.600995    -0.000000    -0.005700  -178.606695
	   70 D(7,3,5,8)      =     60.647912    -0.000000    -0.006242    60.641670
	   71 D(7,3,5,9)      =   -177.226791     0.000000    -0.002723  -177.229514
	   72 D(7,3,5,10)     =    -62.034770    -0.000000    -0.004030   -62.038800
	   73 D(8,11,14,17)   =     59.939797    -0.000000    -0.031456    59.908341
	   74 D(8,11,14,18)   =    180.000000    -0.000000    -0.030833   179.969167
	   75 D(8,11,14,19)   =    -59.949755    -0.000000    -0.031357   -59.981113
	   76 D(9,5,8,11)     =     58.460412    -0.000000    -0.018120    58.442292
	   77 D(9,5,8,12)     =    -63.608118     0.000000    -0.017018   -63.625136
	   78 D(9,5,8,13)     =   -179.603118     0.000000    -0.017313  -179.620431
	   79 D(10,5,8,11)    =    -58.232535    -0.000000    -0.016896   -58.249431
	   80 D(10,5,8,12)    =    179.698936     0.000000    -0.015795   179.683141
	   81 D(10,5,8,13)    =     63.703935     0.000000    -0.016090    63.687845
	   82 D(12,8,11,14)   =    -57.830309     0.000000     0.124326   -57.705983
	   83 D(12,8,11,15)   =     64.228999     0.000000     0.121595    64.350594
	   84 D(12,8,11,16)   =   -179.901931     0.000000     0.121672  -179.780259
	   85 D(13,8,11,14)   =     57.720142     0.000000     0.123712    57.843853
	   86 D(13,8,11,15)   =    179.779450     0.000000     0.120980   179.900430
	   87 D(13,8,11,16)   =    -64.351481     0.000000     0.121057   -64.230423
	   88 D(15,11,14,17)  =    -62.067743    -0.000000    -0.029171   -62.096914
	   89 D(15,11,14,18)  =     57.992910    -0.000000    -0.028998    57.963912
	   90 D(15,11,14,19)  =    178.042705    -0.000000    -0.029072   178.013633
	   91 D(16,11,14,17)  =   -178.052179    -0.000000    -0.029031  -178.081210
	   92 D(16,11,14,18)  =    -57.991526    -0.000000    -0.028858   -58.020384
	   93 D(16,11,14,19)  =     62.058269    -0.000000    -0.028932    62.029337
	 ---------------------------------------------------------------------------

  ==> Convergence Check <==

  Measures of convergence in internal coordinates in au.
  Criteria marked as inactive (o), active & met (*), and active & unmet ( ).
  ---------------------------------------------------------------------------------------------
   Step     Total Energy     Delta E     MAX Force     RMS Force      MAX Disp      RMS Disp   
  ---------------------------------------------------------------------------------------------
    Convergence Criteria    1.00e-06 *    3.00e-04 *             o    1.20e-03 *             o
  ---------------------------------------------------------------------------------------------
      6    -251.35018344   -9.75e-08 *    2.60e-05 *    3.94e-06 o    2.17e-03      6.86e-04 o  ~
  ---------------------------------------------------------------------------------------------


  **** Optimization is complete! (in 6 steps) ****

  ==> Optimization Summary <==

  Measures of convergence in internal coordinates in au.
  --------------------------------------------------------------------------------------------------------------- ~
   Step         Total Energy             Delta E       MAX Force       RMS Force        MAX Disp        RMS Disp  ~
  --------------------------------------------------------------------------------------------------------------- ~
      1    -251.348447367840   -251.348447367840      0.00890832      0.00221070      0.11452128      0.02765874  ~
      2    -251.349898730910     -0.001451363070      0.00400997      0.00092538      0.05716119      0.01296177  ~
      3    -251.350177940105     -0.000279209195      0.00047454      0.00011866      0.01781829      0.00702557  ~
      4    -251.350180974405     -0.000003034300      0.00022527      0.00004256      0.00829765      0.00324048  ~
      5    -251.350183346615     -0.000002372209      0.00006018      0.00001752      0.00235242      0.00081014  ~
      6    -251.350183444066     -0.000000097451      0.00002599      0.00000394      0.00216991      0.00068647  ~
  --------------------------------------------------------------------------------------------------------------- ~

	Writing optimization data to binary file.
	Final energy is   -251.3501834440661
	Final (previous) structure:
	Cartesian Geometry (in Angstrom)
	    H     3.4008601999  -0.3670091869  -0.9874274081
	    N     3.0975761639  -0.2528608444  -0.0396548155
	    C     1.8643638839   0.5284496003   0.0165947292
	    H     3.8397943142   0.2290226967   0.4290900133
	    C     0.6425030552  -0.3861096908  -0.0210698089
	    H     1.7887233419   1.2447482081  -0.8028541740
	    H     1.8585262802   1.0982589595   0.9402519449
	    C    -0.6822540259   0.3759089382   0.0297582836
	    H     0.6829215799  -0.9886938781  -0.9269250141
	    H     0.7089947656  -1.0814600638   0.8107714235
	    C    -1.9072741625  -0.5398668762  -0.0046202862
	    H    -0.7346337464   1.0730657490  -0.8055737091
	    H    -0.7164527780   0.9830722073   0.9335658721
	    C    -3.2286716518   0.2259102773   0.0503151637
	    H    -1.8781607861  -1.1449791632  -0.9082330066
	    H    -1.8585329506  -1.2361656795   0.8296255971
	    H    -3.3227737299   0.9068458497  -0.7910787223
	    H    -4.0774858159  -0.4505661301   0.0243016620
	    H    -3.3031153104   0.8147247648   0.9603395623
	Saving final (previous) structure.
			--------------------------
			 OPTKING Finished Execution 
			--------------------------

    Final optimized geometry and variables:
    Molecular point group: c1
    Full point group: C1

    Geometry (in Angstrom), charge = 0, multiplicity = 1:

    H            3.400859940176    -0.367009158876    -0.987427332717
    N            3.097575927362    -0.252860825126    -0.039654812469
    C            1.864363741545     0.528449559904     0.016594727905
    H            3.839794020999     0.229022679225     0.429089980557
    C            0.642503006088    -0.386109661298    -0.021069807292
    H            1.788723205325     1.244748113065    -0.802854112646
    H            1.858526138259     1.098258875675     0.940251873095
    C           -0.682253973841     0.375908909474     0.029758281350
    H            0.682921527747    -0.988693802580    -0.926924943310
    H            0.708994711468    -1.081459981216     0.810771361632
    C           -1.907274016854    -0.539866834939    -0.004620285885
    H           -0.734633690264     1.073065667028    -0.805573647591
    H           -0.716452723295     0.983072132239     0.933565800785
    C           -3.228671405211     0.225910260077     0.050315159884
    H           -1.878160642711    -1.144979075722    -0.908232937260
    H           -1.858532808706    -1.236165585149     0.829625533701
    H           -3.322773476192     0.906845780450    -0.791078661869
    H           -4.077485504488    -0.450566095649     0.024301660124
    H           -3.303115058131     0.814724702612     0.960339489000

	Cleaning optimization helper files.


Properties will be evaluated at   0.000000,   0.000000,   0.000000 Bohr

Properties computed using the  density matrix

  Nuclear Dipole Moment: (a.u.)
     X:    -3.3945      Y:     1.0140      Z:    -0.2756

  Electronic Dipole Moment: (a.u.)
     X:     3.5680      Y:    -0.5224      Z:     0.0363

  Dipole Moment: (a.u.)
     X:     0.1735      Y:     0.4916      Z:    -0.2394     Total:     0.5736

  Dipole Moment: (Debye)
     X:     0.4409      Y:     1.2495      Z:    -0.6084     Total:     1.4580

  Quadrupole Moment: (Debye Ang)
    XX:   -38.3977     YY:   -42.7066     ZZ:   -39.2153
    XY:     4.4664     XZ:    -2.0329     YZ:     1.0084

  Traceless Quadrupole Moment: (Debye Ang)
    XX:     1.7088     YY:    -2.6001     ZZ:     0.8912
    XY:     4.4664     XZ:    -2.0329     YZ:     1.0084

  Mulliken Charges: (a.u.)
   Center  Symbol    Alpha    Beta     Spin     Total
       1     H     0.33392  0.33392  0.00000  0.33217
       2     N     3.92209  3.92209  0.00000 -0.84418
       3     C     3.06707  3.06707  0.00000 -0.13415
       4     H     0.33228  0.33228  0.00000  0.33545
       5     C     3.14291  3.14291  0.00000 -0.28582
       6     H     0.43150  0.43150  0.00000  0.13701
       7     H     0.42235  0.42235  0.00000  0.15530
       8     C     3.15624  3.15624  0.00000 -0.31249
       9     H     0.42555  0.42555  0.00000  0.14889
      10     H     0.41608  0.41608  0.00000  0.16783
      11     C     3.15035  3.15035  0.00000 -0.30070
      12     H     0.42580  0.42580  0.00000  0.14840
      13     H     0.42517  0.42517  0.00000  0.14966
      14     C     3.23915  3.23915  0.00000 -0.47830
      15     H     0.42309  0.42309  0.00000  0.15382
      16     H     0.42215  0.42215  0.00000  0.15570
      17     H     0.42249  0.42249  0.00000  0.15502
      18     H     0.41962  0.41962  0.00000  0.16077
      19     H     0.42218  0.42218  0.00000  0.15564

   Total alpha = 25.00000, Total beta = 25.00000, Total charge =  0.00000


*** PSI4 exiting successfully. Buy a developer a beer!
