    -----------------------------------------------------------------------
          Psi4: An Open-Source Ab Initio Electronic Structure Package
                              Psi4 (no tag) Driver

                          Git: Rev {detached?}  

    J. M. Turney, A. C. Simmonett, R. M. Parrish, E. G. Hohenstein,
    F. A. Evangelista, J. T. Fermann, B. J. Mintz, L. A. Burns, J. J. Wilke,
    M. L. Abrams, N. J. Russ, M. L. Leininger, C. L. Janssen, E. T. Seidl,
    W. D. Allen, H. F. Schaefer, R. A. King, E. F. Valeev, C. D. Sherrill,
    and T. D. Crawford, WIREs Comput. Mol. Sci. 2, 556-565 (2012)
    (doi: 10.1002/wcms.93)

                         Additional Contributions by
    A. E. DePrince, M. Saitow, U. Bozkaya, A. Yu. Sokolov
    -----------------------------------------------------------------------


    Psi4 started on: Thu Sep  1 23:07:28 2016

    Process ID:   5222
    PSI4DATADIR: /export131/home/mjharvey/miniconda3/share
    Memory level set to 256.000 MB

  ==> Input File <==

--------------------------------------------------------------------------
set {
	reference rhf
	basis 6-31G*
}


set_num_threads( 1 )
memory 2 gb

molecule MOL {
0 1

H	 -2.245800	 1.656730	 -2.563260
C	 -2.653010	 0.746454	 -2.105877
C	 -1.775418	 -0.473578	 -2.224055
O	 -3.712686	 0.770482	 -1.568978
C	 -0.343761	 -0.218667	 -1.732493
H	 -2.244396	 -1.286187	 -1.681437
H	 -1.748704	 -0.747468	 -3.278059
C	 -0.252658	 0.041456	 -0.226725
H	 0.265867	 -1.080495	 -1.987229
H	 0.080536	 0.623566	 -2.276894
C	 1.180775	 0.282413	 0.250794
H	 -0.675597	 -0.806989	 0.307233
H	 -0.867527	 0.899776	 0.037400
C	 2.148627	 -0.814315	 -0.201312
H	 1.516199	 1.249228	 -0.115937
H	 1.192670	 0.346017	 1.338083
C	 3.580890	 -0.659131	 0.322722
H	 2.166869	 -0.852443	 -1.289387
H	 1.762857	 -1.776509	 0.128956
C	 4.324889	 0.564933	 -0.213704
H	 4.142010	 -1.551473	 0.056605
H	 3.564836	 -0.624694	 1.410140
H	 4.342616	 0.565491	 -1.300421
H	 3.866655	 1.493402	 0.110242
H	 5.353900	 0.572371	 0.132816

	symmetry c1
}
set optking {
	frozen_dihedral = ("
		6 3 5 8,
		6 3 2 4,
		3 5 8 12,
		8 11 14 18,
		20 17 14 18
	")
}

ee = energy('scf')
oeprop('DIPOLE', 'QUADRUPOLE', 'MULLIKEN_CHARGES')
f=open( 'psi4out.xyz', 'w' )
f.write( "25  " )
f.write( str(ee) + "\n" )
f.write( MOL.save_string_xyz() )
f.close()
--------------------------------------------------------------------------

  Memory set to   2.000 GiB by Python script.

*** tstart() called on cx1-3-4-3.cx1.hpc.ic.ac.uk
*** at Thu Sep  1 23:07:28 2016


         ---------------------------------------------------------
                                   SCF
            by Justin Turney, Rob Parrish, and Andy Simmonett
                              RHF Reference
                        1 Threads,   2000 MiB Core
         ---------------------------------------------------------

  ==> Geometry <==

    Molecular point group: c1
    Full point group: C1

    Geometry (in Angstrom), charge = 0, multiplicity = 1:

       Center              X                  Y                   Z               Mass       
    ------------   -----------------  -----------------  -----------------  -----------------
           H         -2.525015369069     1.620603195975    -1.706872479359     1.007825032070
           C         -2.932225369069     0.710327195975    -1.249489479359    12.000000000000
           C         -2.054633369069    -0.509704804025    -1.367667479359    12.000000000000
           O         -3.991901369069     0.734355195975    -0.712590479359    15.994914619560
           C         -0.622976369069    -0.254793804025    -0.876105479359    12.000000000000
           H         -2.523611369069    -1.322313804025    -0.825049479359     1.007825032070
           H         -2.027919369069    -0.783594804025    -2.421671479359     1.007825032070
           C         -0.531873369069     0.005329195975     0.629662520641    12.000000000000
           H         -0.013348369069    -1.116621804025    -1.130841479359     1.007825032070
           H         -0.198679369069     0.587439195975    -1.420506479359     1.007825032070
           C          0.901559630931     0.246286195975     1.107181520641    12.000000000000
           H         -0.954812369069    -0.843115804025     1.163620520641     1.007825032070
           H         -1.146742369069     0.863649195975     0.893787520641     1.007825032070
           C          1.869411630931    -0.850441804025     0.655075520641    12.000000000000
           H          1.236983630931     1.213101195975     0.740450520641     1.007825032070
           H          0.913454630931     0.309890195975     2.194470520641     1.007825032070
           C          3.301674630931    -0.695257804025     1.179109520641    12.000000000000
           H          1.887653630931    -0.888569804025    -0.432999479359     1.007825032070
           H          1.483641630931    -1.812635804025     0.985343520641     1.007825032070
           C          4.045673630931     0.528806195975     0.642683520641    12.000000000000
           H          3.862794630931    -1.587599804025     0.912992520641     1.007825032070
           H          3.285620630931    -0.660820804025     2.266527520641     1.007825032070
           H          4.063400630931     0.529364195975    -0.444033479359     1.007825032070
           H          3.587439630931     1.457275195975     0.966629520641     1.007825032070
           H          5.074684630931     0.536244195975     0.989203520641     1.007825032070

  Running in c1 symmetry.

  Rotational constants: A =      0.16147  B =      0.01624  C =      0.01607 [cm^-1]
  Rotational constants: A =   4840.70478  B =    486.95160  C =    481.64267 [MHz]
  Nuclear repulsion =  445.448426803036966

  Charge       = 0
  Multiplicity = 1
  Electrons    = 72
  Nalpha       = 36
  Nbeta        = 36

  ==> Algorithm <==

  SCF Algorithm Type is DF.
  DIIS enabled.
  MOM disabled.
  Fractional occupation disabled.
  Guess Type is CORE.
  Energy threshold   = 1.00e-06
  Density threshold  = 1.00e-06
  Integral threshold = 0.00e+00

  ==> Primary Basis <==

  Basis Set: 6-31G*
    Number of shells: 86
    Number of basis function: 167
    Number of Cartesian functions: 167
    Spherical Harmonics?: false
    Max angular momentum: 2

  ==> Pre-Iterations <==

   -------------------------------------------------------
    Irrep   Nso     Nmo     Nalpha   Nbeta   Ndocc  Nsocc
   -------------------------------------------------------
     A        167     167       0       0       0       0
   -------------------------------------------------------
    Total     167     167      36      36      36       0
   -------------------------------------------------------

 OEINTS: Overlap, kinetic, potential, dipole, and quadrupole integrals
         stored in file 35.

  ==> Integral Setup <==

  ==> DFJK: Density-Fitted J/K Matrices <==

    J tasked:                  Yes
    K tasked:                  Yes
    wK tasked:                  No
    OpenMP threads:              1
    Integrals threads:           1
    Memory (MB):              1430
    Algorithm:                Core
    Integral Cache:           NONE
    Schwarz Cutoff:          1E-12
    Fitting Condition:       1E-12

   => Auxiliary Basis Set <=

  Basis Set: 
    Number of shells: 360
    Number of basis function: 1129
    Number of Cartesian functions: 1129
    Spherical Harmonics?: false
    Max angular momentum: 3

  Minimum eigenvalue in the overlap matrix is 3.3401081098E-03.
  Using Symmetric Orthogonalization.
  SCF Guess: Core (One-Electron) Hamiltonian.

  ==> Iterations <==

                           Total Energy        Delta E     RMS |[F,P]|

   @DF-RHF iter   1:  -291.40315677990878   -2.91403e+02   5.86924e-02 
   @DF-RHF iter   2:   -36.47331131473544    2.54930e+02   7.43962e-02 DIIS
   @DF-RHF iter   3:  -264.82944053599505   -2.28356e+02   5.31900e-02 DIIS
   @DF-RHF iter   4:  -257.16865293019526    7.66079e+00   5.88230e-02 DIIS
   @DF-RHF iter   5:  -375.09614519670544   -1.17927e+02   1.94066e-02 DIIS
   @DF-RHF iter   6:  -354.11179204467265    2.09844e+01   3.42870e-02 DIIS
   @DF-RHF iter   7:  -386.79161427130833   -3.26798e+01   4.46088e-03 DIIS
   @DF-RHF iter   8:  -387.04606889767427   -2.54455e-01   1.95644e-03 DIIS
   @DF-RHF iter   9:  -387.09282356070975   -4.67547e-02   1.14996e-03 DIIS
   @DF-RHF iter  10:  -387.11428685832021   -2.14633e-02   4.23765e-04 DIIS
   @DF-RHF iter  11:  -387.11779015537064   -3.50330e-03   1.29344e-04 DIIS
   @DF-RHF iter  12:  -387.11814624668688   -3.56091e-04   4.45099e-05 DIIS
   @DF-RHF iter  13:  -387.11819784004553   -5.15934e-05   9.90414e-06 DIIS
   @DF-RHF iter  14:  -387.11820076755652   -2.92751e-06   3.11155e-06 DIIS
   @DF-RHF iter  15:  -387.11820100948256   -2.41926e-07   1.24544e-06 DIIS
   @DF-RHF iter  16:  -387.11820105920884   -4.97263e-08   4.49692e-07 DIIS

  ==> Post-Iterations <==

    Orbital Energies (a.u.)
    -----------------------

    Doubly Occupied:                                                      

       1A    -20.561673     2A    -11.325747     3A    -11.234535  
       4A    -11.233829     5A    -11.223984     6A    -11.220036  
       7A    -11.219283     8A    -11.218304     9A    -11.211886  
      10A     -1.401669    11A     -1.106709    12A     -1.068222  
      13A     -1.013683    14A     -0.939367    15A     -0.883707  
      16A     -0.824355    17A     -0.791639    18A     -0.771369  
      19A     -0.665099    20A     -0.655635    21A     -0.634973  
      22A     -0.624144    23A     -0.603046    24A     -0.599888  
      25A     -0.582853    26A     -0.545105    27A     -0.540522  
      28A     -0.523848    29A     -0.515474    30A     -0.501481  
      31A     -0.486152    32A     -0.476581    33A     -0.460093  
      34A     -0.452791    35A     -0.449060    36A     -0.408541  

    Virtual:                                                              

      37A      0.160774    38A      0.225161    39A      0.243844  
      40A      0.254042    41A      0.254186    42A      0.278088  
      43A      0.283029    44A      0.297842    45A      0.308162  
      46A      0.310033    47A      0.313410    48A      0.326063  
      49A      0.333329    50A      0.339628    51A      0.350203  
      52A      0.352514    53A      0.373446    54A      0.400708  
      55A      0.413593    56A      0.419999    57A      0.436359  
      58A      0.447589    59A      0.464637    60A      0.481524  
      61A      0.496080    62A      0.688079    63A      0.709012  
      64A      0.718360    65A      0.727319    66A      0.747219  
      67A      0.760482    68A      0.763928    69A      0.784886  
      70A      0.810174    71A      0.841231    72A      0.884210  
      73A      0.906662    74A      0.928180    75A      0.942214  
      76A      0.954906    77A      0.963969    78A      0.969605  
      79A      0.985241    80A      1.013542    81A      1.041844  
      82A      1.091261    83A      1.105350    84A      1.115174  
      85A      1.127017    86A      1.135415    87A      1.145069  
      88A      1.154377    89A      1.161908    90A      1.167031  
      91A      1.175893    92A      1.185323    93A      1.190881  
      94A      1.202829    95A      1.217503    96A      1.223682  
      97A      1.228991    98A      1.253893    99A      1.255997  
     100A      1.272150   101A      1.298449   102A      1.309650  
     103A      1.336150   104A      1.358343   105A      1.394581  
     106A      1.406607   107A      1.489020   108A      1.612365  
     109A      1.645938   110A      1.692270   111A      1.714124  
     112A      1.781218   113A      1.794360   114A      1.810739  
     115A      1.843330   116A      1.871251   117A      1.930656  
     118A      1.951181   119A      1.962605   120A      2.037161  
     121A      2.060081   122A      2.113940   123A      2.120978  
     124A      2.142288   125A      2.154552   126A      2.199724  
     127A      2.203476   128A      2.250963   129A      2.272788  
     130A      2.297409   131A      2.307610   132A      2.320434  
     133A      2.327462   134A      2.382485   135A      2.416614  
     136A      2.435692   137A      2.477218   138A      2.552631  
     139A      2.564721   140A      2.606186   141A      2.643678  
     142A      2.676532   143A      2.692202   144A      2.703131  
     145A      2.725272   146A      2.753980   147A      2.776966  
     148A      2.823990   149A      2.893913   150A      2.940832  
     151A      2.963408   152A      2.976197   153A      3.014983  
     154A      3.040119   155A      3.098417   156A      3.196209  
     157A      3.267185   158A      3.368917   159A      4.313267  
     160A      4.524943   161A      4.571113   162A      4.643933  
     163A      4.745441   164A      4.829534   165A      4.871459  
     166A      4.917194   167A      5.006132  

    Final Occupation by Irrep:
              A 
    DOCC [    36 ]

  Energy converged.

  @DF-RHF Final Energy:  -387.11820105920884

   => Energetics <=

    Nuclear Repulsion Energy =            445.4484268030369662
    One-Electron Energy =               -1407.1825180251926213
    Two-Electron Energy =                 574.6158901629494267
    DFT Exchange-Correlation Energy =       0.0000000000000000
    Empirical Dispersion Energy =           0.0000000000000000
    PCM Polarization Energy =               0.0000000000000000
    EFP Energy =                            0.0000000000000000
    Total Energy =                       -387.1182010592062852

    Alert: EFP and PCM quantities not currently incorporated into SCF psivars.

Properties will be evaluated at   0.000000,   0.000000,   0.000000 Bohr
  ==> Properties <==


Properties computed using the SCF density matrix

  Nuclear Dipole Moment: (a.u.)
     X:    14.9855      Y:    -1.7755      Z:     2.5569

  Electronic Dipole Moment: (a.u.)
     X:   -13.8188      Y:     1.5477      Z:    -2.9465

  Dipole Moment: (a.u.)
     X:     1.1667      Y:    -0.2278      Z:    -0.3896     Total:     1.2510

  Dipole Moment: (Debye)
     X:     2.9656      Y:    -0.5791      Z:    -0.9904     Total:     3.1797


  Saving occupied orbitals to File 180.

*** tstop() called on cx1-3-4-3.cx1.hpc.ic.ac.uk at Thu Sep  1 23:07:54 2016
Module time:
	user time   =      24.92 seconds =       0.42 minutes
	system time =       0.26 seconds =       0.00 minutes
	total time  =         26 seconds =       0.43 minutes
Total time:
	user time   =      24.92 seconds =       0.42 minutes
	system time =       0.26 seconds =       0.00 minutes
	total time  =         26 seconds =       0.43 minutes


Properties will be evaluated at   0.000000,   0.000000,   0.000000 Bohr

Properties computed using the  density matrix

  Nuclear Dipole Moment: (a.u.)
     X:    14.9855      Y:    -1.7755      Z:     2.5569

  Electronic Dipole Moment: (a.u.)
     X:   -13.8188      Y:     1.5477      Z:    -2.9465

  Dipole Moment: (a.u.)
     X:     1.1667      Y:    -0.2278      Z:    -0.3896     Total:     1.2510

  Dipole Moment: (Debye)
     X:     2.9656      Y:    -0.5791      Z:    -0.9904     Total:     3.1797

  Quadrupole Moment: (Debye Ang)
    XX:   -77.4147     YY:   -58.2236     ZZ:   -55.3670
    XY:     2.8155     XZ:     1.4712     YZ:    -0.3627

  Traceless Quadrupole Moment: (Debye Ang)
    XX:   -13.7463     YY:     5.4449     ZZ:     8.3014
    XY:     2.8155     XZ:     1.4712     YZ:    -0.3627

  Mulliken Charges: (a.u.)
   Center  Symbol    Alpha    Beta     Spin     Total
       1     H     0.43274  0.43274  0.00000  0.13452
       2     C     2.83105  2.83105  0.00000  0.33790
       3     C     3.20680  3.20680  0.00000 -0.41359
       4     O     4.23787  4.23787  0.00000 -0.47573
       5     C     3.17179  3.17179  0.00000 -0.34358
       6     H     0.39982  0.39982  0.00000  0.20036
       7     H     0.40699  0.40699  0.00000  0.18602
       8     C     3.15579  3.15579  0.00000 -0.31157
       9     H     0.40863  0.40863  0.00000  0.18274
      10     H     0.42015  0.42015  0.00000  0.15970
      11     C     3.15449  3.15449  0.00000 -0.30898
      12     H     0.41826  0.41826  0.00000  0.16348
      13     H     0.41612  0.41612  0.00000  0.16775
      14     C     3.15889  3.15889  0.00000 -0.31778
      15     H     0.42106  0.42106  0.00000  0.15789
      16     H     0.41879  0.41879  0.00000  0.16242
      17     C     3.15129  3.15129  0.00000 -0.30257
      18     H     0.42212  0.42212  0.00000  0.15577
      19     H     0.42181  0.42181  0.00000  0.15637
      20     C     3.24141  3.24141  0.00000 -0.48281
      21     H     0.42066  0.42066  0.00000  0.15868
      22     H     0.42256  0.42256  0.00000  0.15488
      23     H     0.42279  0.42279  0.00000  0.15442
      24     H     0.41980  0.41980  0.00000  0.16040
      25     H     0.41834  0.41834  0.00000  0.16332

   Total alpha = 36.00000, Total beta = 36.00000, Total charge = -0.00000


*** PSI4 exiting successfully. Buy a developer a beer!
