    -----------------------------------------------------------------------
          Psi4: An Open-Source Ab Initio Electronic Structure Package
                              Psi4 (no tag) Driver

                          Git: Rev {detached?}  

    J. M. Turney, A. C. Simmonett, R. M. Parrish, E. G. Hohenstein,
    F. A. Evangelista, J. T. Fermann, B. J. Mintz, L. A. Burns, J. J. Wilke,
    M. L. Abrams, N. J. Russ, M. L. Leininger, C. L. Janssen, E. T. Seidl,
    W. D. Allen, H. F. Schaefer, R. A. King, E. F. Valeev, C. D. Sherrill,
    and T. D. Crawford, WIREs Comput. Mol. Sci. 2, 556-565 (2012)
    (doi: 10.1002/wcms.93)

                         Additional Contributions by
    A. E. DePrince, M. Saitow, U. Bozkaya, A. Yu. Sokolov
    -----------------------------------------------------------------------


    Psi4 started on: Fri Sep  9 20:11:09 2016

    Process ID:  22907
    PSI4DATADIR: /export131/home/mjharvey/miniconda3/share
    Memory level set to 256.000 MB

  ==> Input File <==

--------------------------------------------------------------------------
set {
	reference rhf
	basis cc-pvtz
}


set_num_threads( 4 )
memory 2 gb

molecule MOL {
0 1

H	 -2.003178	 0.116911	 0.257054
N	 -1.173824	 -0.310545	 -0.096857
C	 -0.022588	 0.563366	 0.065815
H	 -1.045591	 -1.165168	 0.403932
C	 1.270420	 -0.230572	 -0.014245
H	 -0.045354	 1.293678	 -0.735129
H	 -0.043155	 1.123061	 1.001180
H	 1.336273	 -0.754933	 -0.959364
H	 2.130728	 0.422015	 0.082222
H	 1.323344	 -0.967006	 0.781773

	symmetry c1
}
set optking {
	frozen_dihedral = ("
		1 2 3 6
	")
}

ee = optimize('scf')
oeprop('DIPOLE', 'QUADRUPOLE', 'MULLIKEN_CHARGES')
f=open( 'psi4out.xyz', 'w' )
f.write( "10  " )
f.write( str(ee) + "\n" )
f.write( MOL.save_string_xyz() )
f.close()
--------------------------------------------------------------------------

  Memory set to   2.000 GiB by Python script.
gradient() will perform analytic gradient computation.

*** tstart() called on cx1-27-1-1
*** at Fri Sep  9 20:11:09 2016


         ---------------------------------------------------------
                                   SCF
            by Justin Turney, Rob Parrish, and Andy Simmonett
                              RHF Reference
                        4 Threads,   2000 MiB Core
         ---------------------------------------------------------

  ==> Geometry <==

    Molecular point group: c1
    Full point group: C1

    Geometry (in Angstrom), charge = 0, multiplicity = 1:

       Center              X                  Y                   Z               Mass       
    ------------   -----------------  -----------------  -----------------  -----------------
           H         -2.007679811897     0.123257555665     0.254818649409     1.007825032070
           N         -1.178325811897    -0.304198444335    -0.099092350591    14.003074004780
           C         -0.027089811897     0.569712555665     0.063579649409    12.000000000000
           H         -1.050092811897    -1.158821444335     0.401696649409     1.007825032070
           C          1.265918188103    -0.224225444335    -0.016480350591    12.000000000000
           H         -0.049855811897     1.300024555665    -0.737364350591     1.007825032070
           H         -0.047656811897     1.129407555665     0.998944649409     1.007825032070
           H          1.331771188103    -0.748586444335    -0.961599350591     1.007825032070
           H          2.126226188103     0.428361555665     0.079986649409     1.007825032070
           H          1.318842188103    -0.960659444335     0.779537649409     1.007825032070

  Running in c1 symmetry.

  Rotational constants: A =      1.09969  B =      0.30400  C =      0.26407 [cm^-1]
  Rotational constants: A =  32967.79163  B =   9113.79276  C =   7916.49477 [MHz]
  Nuclear repulsion =   83.570514423882514

  Charge       = 0
  Multiplicity = 1
  Electrons    = 26
  Nalpha       = 13
  Nbeta        = 13

  ==> Algorithm <==

  SCF Algorithm Type is DF.
  DIIS enabled.
  MOM disabled.
  Fractional occupation disabled.
  Guess Type is CORE.
  Energy threshold   = 1.00e-08
  Density threshold  = 1.00e-08
  Integral threshold = 0.00e+00

  ==> Primary Basis <==

  Basis Set: CC-PVTZ
    Number of shells: 72
    Number of basis function: 188
    Number of Cartesian functions: 210
    Spherical Harmonics?: true
    Max angular momentum: 3

  ==> Pre-Iterations <==

   -------------------------------------------------------
    Irrep   Nso     Nmo     Nalpha   Nbeta   Ndocc  Nsocc
   -------------------------------------------------------
     A        188     188       0       0       0       0
   -------------------------------------------------------
    Total     188     188      13      13      13       0
   -------------------------------------------------------

 OEINTS: Overlap, kinetic, potential, dipole, and quadrupole integrals
         stored in file 35.

  ==> Integral Setup <==

  ==> DFJK: Density-Fitted J/K Matrices <==

    J tasked:                  Yes
    K tasked:                  Yes
    wK tasked:                  No
    OpenMP threads:              4
    Integrals threads:           4
    Memory (MB):              1430
    Algorithm:                Core
    Integral Cache:           NONE
    Schwarz Cutoff:          1E-12
    Fitting Condition:       1E-12

   => Auxiliary Basis Set <=

  Basis Set: 
    Number of shells: 145
    Number of basis function: 447
    Number of Cartesian functions: 533
    Spherical Harmonics?: true
    Max angular momentum: 4

  Minimum eigenvalue in the overlap matrix is 7.5849158000E-04.
  Using Symmetric Orthogonalization.
  SCF Guess: Core (One-Electron) Hamiltonian.

  ==> Iterations <==

                           Total Energy        Delta E     RMS |[F,P]|

   @DF-RHF iter   1:   -96.26472745712181   -9.62647e+01   5.21799e-02 
   @DF-RHF iter   2:   -97.16137621921987   -8.96649e-01   2.32812e-02 DIIS
   @DF-RHF iter   3:  -109.42691470804118   -1.22655e+01   2.94007e-02 DIIS
   @DF-RHF iter   4:  -127.82345886795315   -1.83965e+01   1.73857e-02 DIIS
   @DF-RHF iter   5:  -133.44799224300630   -5.62453e+00   6.19001e-03 DIIS
   @DF-RHF iter   6:  -134.14167606395591   -6.93684e-01   2.68064e-03 DIIS
   @DF-RHF iter   7:  -134.28236121545666   -1.40685e-01   8.69879e-04 DIIS
   @DF-RHF iter   8:  -134.30252023910728   -2.01590e-02   2.01890e-04 DIIS
   @DF-RHF iter   9:  -134.30347816921258   -9.57930e-04   7.10061e-05 DIIS
   @DF-RHF iter  10:  -134.30364481558604   -1.66646e-04   1.30998e-05 DIIS
   @DF-RHF iter  11:  -134.30365208226911   -7.26668e-06   2.88246e-06 DIIS
   @DF-RHF iter  12:  -134.30365243486941   -3.52600e-07   7.54447e-07 DIIS
   @DF-RHF iter  13:  -134.30365245376237   -1.88930e-08   1.37164e-07 DIIS
   @DF-RHF iter  14:  -134.30365245456102   -7.98650e-10   3.51121e-08 DIIS
   @DF-RHF iter  15:  -134.30365245462659   -6.55689e-11   6.81700e-09 DIIS

  ==> Post-Iterations <==

    Orbital Energies (a.u.)
    -----------------------

    Doubly Occupied:                                                      

       1A    -15.526068     2A    -11.240542     3A    -11.208694  
       4A     -1.178031     5A     -0.989443     6A     -0.827248  
       7A     -0.659502     8A     -0.631663     9A     -0.588817  
      10A     -0.520824    11A     -0.502238    12A     -0.494418  
      13A     -0.383858  

    Virtual:                                                              

      14A      0.140964    15A      0.173421    16A      0.180268  
      17A      0.206452    18A      0.222522    19A      0.237673  
      20A      0.251900    21A      0.322008    22A      0.345477  
      23A      0.386082    24A      0.405242    25A      0.463622  
      26A      0.483404    27A      0.517436    28A      0.565388  
      29A      0.590031    30A      0.597674    31A      0.628697  
      32A      0.639163    33A      0.642254    34A      0.664437  
      35A      0.677253    36A      0.695899    37A      0.732275  
      38A      0.733793    39A      0.757685    40A      0.807441  
      41A      0.819314    42A      0.862300    43A      0.961979  
      44A      0.976940    45A      1.006027    46A      1.044489  
      47A      1.107502    48A      1.141422    49A      1.168824  
      50A      1.175722    51A      1.241764    52A      1.253215  
      53A      1.263781    54A      1.284646    55A      1.333733  
      56A      1.350173    57A      1.367643    58A      1.383338  
      59A      1.393030    60A      1.428911    61A      1.471915  
      62A      1.504706    63A      1.523393    64A      1.553026  
      65A      1.562954    66A      1.602991    67A      1.629006  
      68A      1.664146    69A      1.736888    70A      1.756000  
      71A      1.786943    72A      1.828252    73A      1.853417  
      74A      1.909927    75A      1.976655    76A      2.047973  
      77A      2.105235    78A      2.500933    79A      2.582093  
      80A      2.615389    81A      2.648070    82A      2.703613  
      83A      2.726861    84A      2.786459    85A      2.848408  
      86A      2.875821    87A      2.929163    88A      2.978853  
      89A      3.040762    90A      3.106412    91A      3.120423  
      92A      3.131639    93A      3.168556    94A      3.203518  
      95A      3.219718    96A      3.265724    97A      3.304375  
      98A      3.315079    99A      3.346748   100A      3.366173  
     101A      3.400349   102A      3.415304   103A      3.436412  
     104A      3.454237   105A      3.478882   106A      3.545056  
     107A      3.587629   108A      3.605329   109A      3.640980  
     110A      3.687616   111A      3.706605   112A      3.718826  
     113A      3.731342   114A      3.762409   115A      3.800378  
     116A      3.813783   117A      3.840815   118A      3.842441  
     119A      3.860418   120A      3.908020   121A      3.949531  
     122A      4.011986   123A      4.037457   124A      4.080357  
     125A      4.104186   126A      4.141851   127A      4.148286  
     128A      4.165209   129A      4.186932   130A      4.211865  
     131A      4.224127   132A      4.263155   133A      4.290238  
     134A      4.310966   135A      4.351764   136A      4.381037  
     137A      4.403936   138A      4.416211   139A      4.465720  
     140A      4.481967   141A      4.499924   142A      4.512318  
     143A      4.554675   144A      4.589767   145A      4.644599  
     146A      4.663880   147A      4.684604   148A      4.717617  
     149A      4.781253   150A      4.818162   151A      4.869834  
     152A      4.934377   153A      5.063860   154A      5.101159  
     155A      5.184122   156A      5.227531   157A      5.241639  
     158A      5.250394   159A      5.271271   160A      5.328324  
     161A      5.364758   162A      5.442675   163A      5.486050  
     164A      5.531060   165A      5.593896   166A      5.659072  
     167A      5.710809   168A      5.728790   169A      5.768836  
     170A      5.777642   171A      5.802365   172A      5.855462  
     173A      5.920786   174A      5.939472   175A      6.030184  
     176A      6.153926   177A      6.229648   178A      6.268509  
     179A      6.293917   180A      6.330136   181A      6.391171  
     182A      6.505363   183A      6.595174   184A      6.713282  
     185A      7.352505   186A     12.904639   187A     13.806609  
     188A     14.241136  

    Final Occupation by Irrep:
              A 
    DOCC [    13 ]

  Energy converged.

  @DF-RHF Final Energy:  -134.30365245462659

   => Energetics <=

    Nuclear Repulsion Energy =             83.5705144238825142
    One-Electron Energy =                -346.2456417241918416
    Two-Electron Energy =                 128.3714748456827692
    DFT Exchange-Correlation Energy =       0.0000000000000000
    Empirical Dispersion Energy =           0.0000000000000000
    PCM Polarization Energy =               0.0000000000000000
    EFP Energy =                            0.0000000000000000
    Total Energy =                       -134.3036524546265582

    Alert: EFP and PCM quantities not currently incorporated into SCF psivars.

Properties will be evaluated at   0.000000,   0.000000,   0.000000 Bohr
  ==> Properties <==


Properties computed using the SCF density matrix

  Nuclear Dipole Moment: (a.u.)
     X:     1.5236      Y:     0.1068      Z:     0.7653

  Electronic Dipole Moment: (a.u.)
     X:    -1.4794      Y:    -0.0104      Z:    -0.2641

  Dipole Moment: (a.u.)
     X:     0.0442      Y:     0.0964      Z:     0.5012     Total:     0.5123

  Dipole Moment: (Debye)
     X:     0.1123      Y:     0.2451      Z:     1.2740     Total:     1.3022


  Saving occupied orbitals to File 180.

*** tstop() called on cx1-27-1-1 at Fri Sep  9 20:11:13 2016
Module time:
	user time   =       9.60 seconds =       0.16 minutes
	system time =       0.19 seconds =       0.00 minutes
	total time  =          4 seconds =       0.07 minutes
Total time:
	user time   =       9.60 seconds =       0.16 minutes
	system time =       0.19 seconds =       0.00 minutes
	total time  =          4 seconds =       0.07 minutes

*** tstart() called on cx1-27-1-1
*** at Fri Sep  9 20:11:13 2016


         ------------------------------------------------------------
                                   SCF GRAD                          
                          Rob Parrish, Justin Turney,                
                       Andy Simmonett, and Alex Sokolov              
         ------------------------------------------------------------

  ==> Geometry <==

    Molecular point group: c1
    Full point group: C1

    Geometry (in Angstrom), charge = 0, multiplicity = 1:

       Center              X                  Y                   Z               Mass       
    ------------   -----------------  -----------------  -----------------  -----------------
           H         -2.007679811897     0.123257555665     0.254818649409     1.007825032070
           N         -1.178325811897    -0.304198444335    -0.099092350591    14.003074004780
           C         -0.027089811897     0.569712555665     0.063579649409    12.000000000000
           H         -1.050092811897    -1.158821444335     0.401696649409     1.007825032070
           C          1.265918188103    -0.224225444335    -0.016480350591    12.000000000000
           H         -0.049855811897     1.300024555665    -0.737364350591     1.007825032070
           H         -0.047656811897     1.129407555665     0.998944649409     1.007825032070
           H          1.331771188103    -0.748586444335    -0.961599350591     1.007825032070
           H          2.126226188103     0.428361555665     0.079986649409     1.007825032070
           H          1.318842188103    -0.960659444335     0.779537649409     1.007825032070

  Nuclear repulsion =   83.570514423882514

  ==> Basis Set <==

  Basis Set: CC-PVTZ
    Number of shells: 72
    Number of basis function: 188
    Number of Cartesian functions: 210
    Spherical Harmonics?: true
    Max angular momentum: 3

  ==> DFJKGrad: Density-Fitted SCF Gradients <==

    Gradient:                    1
    J tasked:                  Yes
    K tasked:                  Yes
    wK tasked:                  No
    OpenMP threads:              4
    Integrals threads:           4
    Memory (MB):              1430
    Schwarz Cutoff:          0E+00
    Fitting Condition:       1E-12

   => Auxiliary Basis Set <=

  Basis Set: 
    Number of shells: 145
    Number of basis function: 447
    Number of Cartesian functions: 533
    Spherical Harmonics?: true
    Max angular momentum: 4


  -Total Gradient:
     Atom            X                  Y                   Z
    ------   -----------------  -----------------  -----------------
       1        0.000500610228     0.000223399884     0.001735295532
       2        0.000392552725     0.001672662128    -0.001480646892
       3       -0.000571786742    -0.000587887342     0.000244982658
       4        0.000640718535    -0.000977323214    -0.001055259131
       5        0.000005654399    -0.000839329526     0.000277118573
       6       -0.000792205709    -0.001121877481    -0.000411343811
       7       -0.000029386793     0.001357067964    -0.000135485163
       8       -0.000431976103     0.000106060828     0.000475016612
       9        0.000250700321     0.000363459852     0.000610039022
      10        0.000035119139    -0.000196233093    -0.000259717399


*** tstop() called on cx1-27-1-1 at Fri Sep  9 20:11:18 2016
Module time:
	user time   =      18.97 seconds =       0.32 minutes
	system time =       0.25 seconds =       0.00 minutes
	total time  =          5 seconds =       0.08 minutes
Total time:
	user time   =      28.59 seconds =       0.48 minutes
	system time =       0.44 seconds =       0.01 minutes
	total time  =          9 seconds =       0.15 minutes
CURRENT ENERGY: -134.3036524546

			-----------------------------------------
			 OPTKING 2.0: for geometry optimizations 
			  - R.A. King,  Bethel University        
			-----------------------------------------

	Internal coordinates to be generated automatically.
	Detected frag with atoms:  1 2 3 4 5 6 7 8 9 10
	---Fragment 1 Bond Connectivity---
	 1 : 2
	 2 : 1 3 4
	 3 : 2 5 6 7
	 4 : 2
	 5 : 3 8 9 10
	 6 : 3
	 7 : 3
	 8 : 5
	 9 : 5
	 10 : 5

	Assuming in current code that numbering for constraints corresponds to unified fragment.
	Frozen dihedral atom list: 
	     1     2     3     6
	---Fragment 1 Geometry and Gradient---
	 H          -3.7939650070        0.2329230240        0.4815374609
	 N          -2.2267130798       -0.5748517498       -0.1872574045
	 C          -0.0511923255        1.0766007047        0.1201481250
	 H          -1.9843878286       -2.1898551667        0.7590966559
	 C           2.3922386822       -0.4237246818       -0.0311433492
	 H          -0.0942138306        2.4566903762       -1.3934166828
	 H          -0.0900583229        2.1342709726        1.8877318093
	 H           2.5166828172       -1.4146233666       -1.8171594222
	 H           4.0179851921        0.8094860261        0.1511528617
	 H           2.4922505480       -1.8153832568        1.4731126677
	             0.0005006102        0.0002233999        0.0017352955
	             0.0003925527        0.0016726621       -0.0014806469
	            -0.0005717867       -0.0005878873        0.0002449827
	             0.0006407185       -0.0009773232       -0.0010552591
	             0.0000056544       -0.0008393295        0.0002771186
	            -0.0007922057       -0.0011218775       -0.0004113438
	            -0.0000293868        0.0013570680       -0.0001354852
	            -0.0004319761        0.0001060608        0.0004750166
	             0.0002507003        0.0003634599        0.0006100390
	             0.0000351191       -0.0001962331       -0.0002597174

	Previous optimization step data not found.  Starting new optimization.

	---Fragment 1 Intrafragment Coordinates---
	 - Coordinate -           - BOHR/RAD -       - ANG/DEG -
	 R(1,2)           =         1.885753	       0.997898
	 R(2,3)           =         2.748579	       1.454485
	 R(2,4)           =         1.887470	       0.998806
	 R(3,5)           =         2.871275	       1.519413
	 R(3,6)           =         2.048750	       1.084152
	 R(3,7)           =         2.060225	       1.090224
	 R(5,8)           =         2.046270	       1.082839
	 R(5,9)           =         2.048681	       1.084115
	 R(5,10)          =         2.051707	       1.085717
	 B(1,2,3)         =         1.939905	     111.148375
	 B(1,2,4)         =         1.870673	     107.181675
	 B(2,3,5)         =         1.932339	     110.714856
	 B(2,3,6)         =         1.881253	     107.787859
	 B(2,3,7)         =         1.970863	     112.922128
	 B(3,2,4)         =         1.935219	     110.879863
	 B(3,5,8)         =         1.929196	     110.534782
	 B(3,5,9)         =         1.934870	     110.859897
	 B(3,5,10)        =         1.936148	     110.933137
	 B(5,3,6)         =         1.908087	     109.325338
	 B(5,3,7)         =         1.906586	     109.239329
	 B(6,3,7)         =         1.862535	     106.715367
	 B(8,5,9)         =         1.897474	     108.717279
	 B(8,5,10)        =         1.884411	     107.968815
	 B(9,5,10)        =         1.880083	     107.720809
	 D(1,2,3,5)       =         2.800712	     160.468952
	*D(1,2,3,6)       =        -1.396264	     -80.000040
	 D(1,2,3,7)       =         0.656614	      37.621221
	 D(2,3,5,8)       =         1.011827	      57.973433
	 D(2,3,5,9)       =         3.117163	     178.600311
	 D(2,3,5,10)      =        -1.077951	     -61.762047
	 D(4,2,3,5)       =         0.721767	      41.354208
	 D(4,2,3,6)       =         2.807977	     160.885216
	 D(4,2,3,7)       =        -1.422330	     -81.493523
	 D(6,3,5,8)       =        -1.058175	     -60.628982
	 D(6,3,5,9)       =         1.047161	      59.997897
	 D(6,3,5,10)      =         3.135232	     179.635539
	 D(7,3,5,8)       =        -3.090385	    -177.066014
	 D(7,3,5,9)       =        -0.985049	     -56.439136
	 D(7,3,5,10)      =         1.103022	      63.198506

	Current energy   :      -134.3036524546

	Generating empirical Hessian (Schlegel '84) for each fragment.
	Taking RFO optimization step.
	Going to follow RFO solution 1.
	Using RFO vector 1.
	Norm of target step-size    0.14999
	Projected energy change by RFO approximation:        -0.0002437984

	Back-transformation to cartesian coordinates...
	Successfully converged to displaced geometry.

	Back-transformation to cartesian coordinates to adjust frozen coordinates...
	Successfully converged to displaced geometry.

	--- Internal Coordinate Step in ANG or DEG, aJ/ANG or AJ/DEG ---
	 ---------------------------------------------------------------------------
	   Coordinate                Previous        Force       Change         New 
	   ----------                --------       ------       ------       ------
	    1 R(1,2)          =      0.997898    -0.002431    -0.000325     0.997573
	    2 R(2,3)          =      1.454485     0.013813     0.002354     1.456839
	    3 R(2,4)          =      0.998806    -0.003208    -0.000430     0.998376
	    4 R(3,5)          =      1.519413    -0.000973    -0.000205     1.519208
	    5 R(3,6)          =      1.084152     0.003585     0.000648     1.084800
	    6 R(3,7)          =      1.090224    -0.004787    -0.000883     1.089341
	    7 R(5,8)          =      1.082839     0.004055     0.000730     1.083569
	    8 R(5,9)          =      1.084115    -0.003889    -0.000703     1.083412
	    9 R(5,10)         =      1.085717     0.000458     0.000083     1.085800
	   10 B(1,2,3)        =    111.148375     0.000103     0.097104   111.245479
	   11 B(1,2,4)        =    107.181675    -0.000048    -0.969484   106.212191
	   12 B(2,3,5)        =    110.714856     0.000032    -0.071458   110.643398
	   13 B(2,3,6)        =    107.787859     0.000076     0.599962   108.387822
	   14 B(2,3,7)        =    112.922128    -0.000045    -0.045884   112.876245
	   15 B(3,2,4)        =    110.879863    -0.000034    -0.548979   110.330883
	   16 B(3,5,8)        =    110.534782     0.000030     0.132566   110.667348
	   17 B(3,5,9)        =    110.859897     0.000013     0.015280   110.875177
	   18 B(3,5,10)       =    110.933137    -0.000021    -0.042615   110.890522
	   19 B(5,3,6)        =    109.325338    -0.000108    -1.117297   108.208041
	   20 B(5,3,7)        =    109.239329     0.000014    -0.036537   109.202792
	   21 B(6,3,7)        =    106.715367     0.000028     0.648065   107.363432
	   22 B(8,5,9)        =    108.717279    -0.000037    -0.279111   108.438168
	   23 B(8,5,10)       =    107.968815     0.000008     0.124162   108.092977
	   24 B(9,5,10)       =    107.720809     0.000006     0.044635   107.765444
	   25 D(1,2,3,5)      =    160.468952     0.000015     1.034262   161.503214
	   26 *D(1,2,3,6)     =    -80.000040    -0.000000    -0.000000   -80.000040
	   27 D(1,2,3,7)      =     37.621221     0.000013     1.168227    38.789448
	   28 D(2,3,5,8)      =     57.973433     0.000006    -2.201541    55.771892
	   29 D(2,3,5,9)      =    178.600311     0.000002    -2.454499   176.145813
	   30 D(2,3,5,10)     =    -61.762047     0.000003    -2.416383   -64.178430
	   31 D(4,2,3,5)      =     41.354208     0.000019     2.535107    43.889315
	   32 D(4,2,3,6)      =    160.885216     0.000003     1.500845   162.386061
	   33 D(4,2,3,7)      =    -81.493523     0.000016     2.669072   -78.824451
	   34 D(6,3,5,8)      =    -60.628982    -0.000004    -2.205131   -62.834113
	   35 D(6,3,5,9)      =     59.997897    -0.000009    -2.458089    57.539808
	   36 D(6,3,5,10)     =    179.635539    -0.000008    -2.419973   177.215565
	   37 D(7,3,5,8)      =   -177.066014     0.000000    -2.334759  -179.400774
	   38 D(7,3,5,9)      =    -56.439136    -0.000004    -2.587717   -59.026853
	   39 D(7,3,5,10)     =     63.198506    -0.000003    -2.549601    60.648905
	 ---------------------------------------------------------------------------

  ==> Convergence Check <==

  Measures of convergence in internal coordinates in au.
  Criteria marked as inactive (o), active & met (*), and active & unmet ( ).
  --------------------------------------------------------------------------------------------- ~
   Step     Total Energy     Delta E     MAX Force     RMS Force      MAX Disp      RMS Disp    ~
  --------------------------------------------------------------------------------------------- ~
    Convergence Criteria    1.00e-06 *    3.00e-04 *             o    1.20e-03 *             o  ~
  --------------------------------------------------------------------------------------------- ~
      1    -134.30365245   -1.34e+02      1.68e-03      6.17e-04 o    4.66e-02      2.40e-02 o  ~
  ---------------------------------------------------------------------------------------------

	Writing optimization data to binary file.
	Structure for next step:
	Cartesian Geometry (in Angstrom)
	    H    -2.0137405031   0.1183928819   0.2324839896
	    N    -1.1787564202  -0.3063005174  -0.1104284535
	    C    -0.0282577450   0.5686828841   0.0716087419
	    H    -1.0598283138  -1.1488659850   0.4117733441
	    C     1.2657010117  -0.2222604232  -0.0182401508
	    H    -0.0303641121   1.3066304584  -0.7235142116
	    H    -0.0527982664   1.1093455914   1.0169901297
	    H     1.3196227870  -0.7620601129  -0.9562335290
	    H     2.1249239517   0.4342220122   0.0492024245
	    H     1.3355546197  -0.9435142211   0.7903852675
			--------------------------
			 OPTKING Finished Execution 
			--------------------------

    Structure for next step:
    Molecular point group: c1
    Full point group: C1

    Geometry (in Angstrom), charge = 0, multiplicity = 1:

    H           -2.013278252286     0.118770951828     0.234224007310
    N           -1.178294233147    -0.305922415075    -0.108688409562
    C           -0.027795645868     0.569060919625     0.073348771894
    H           -1.059366135862    -1.148487818384     0.413513348118
    C            1.266163012020    -0.221882327310    -0.016500113871
    H           -0.029902012781     1.307008437578    -0.721774120871
    H           -0.052336165333     1.109723585561     1.018730087548
    H            1.320084783296    -0.761681975771    -0.954493420462
    H            2.125385886487     0.434600057979     0.050942456273
    H            1.336016614737    -0.943136070154     0.792125242660

gradient() will perform analytic gradient computation.

*** tstart() called on cx1-27-1-1
*** at Fri Sep  9 20:11:18 2016


         ---------------------------------------------------------
                                   SCF
            by Justin Turney, Rob Parrish, and Andy Simmonett
                              RHF Reference
                        4 Threads,   2000 MiB Core
         ---------------------------------------------------------

  ==> Geometry <==

    Molecular point group: c1
    Full point group: C1

    Geometry (in Angstrom), charge = 0, multiplicity = 1:

       Center              X                  Y                   Z               Mass       
    ------------   -----------------  -----------------  -----------------  -----------------
           H         -2.013278252286     0.118770951828     0.234224007310     1.007825032070
           N         -1.178294233147    -0.305922415075    -0.108688409562    14.003074004780
           C         -0.027795645868     0.569060919625     0.073348771894    12.000000000000
           H         -1.059366135862    -1.148487818384     0.413513348118     1.007825032070
           C          1.266163012020    -0.221882327310    -0.016500113871    12.000000000000
           H         -0.029902012781     1.307008437578    -0.721774120871     1.007825032070
           H         -0.052336165333     1.109723585561     1.018730087548     1.007825032070
           H          1.320084783296    -0.761681975771    -0.954493420462     1.007825032070
           H          2.125385886487     0.434600057979     0.050942456273     1.007825032070
           H          1.336016614737    -0.943136070154     0.792125242660     1.007825032070

  Running in c1 symmetry.

  Rotational constants: A =      1.10043  B =      0.30341  C =      0.26401 [cm^-1]
  Rotational constants: A =  32989.95168  B =   9095.93019  C =   7914.75861 [MHz]
  Nuclear repulsion =   83.544892240639953

  Charge       = 0
  Multiplicity = 1
  Electrons    = 26
  Nalpha       = 13
  Nbeta        = 13

  ==> Algorithm <==

  SCF Algorithm Type is DF.
  DIIS enabled.
  MOM disabled.
  Fractional occupation disabled.
  Guess Type is READ.
  Energy threshold   = 1.00e-08
  Density threshold  = 1.00e-08
  Integral threshold = 0.00e+00

  ==> Primary Basis <==

  Basis Set: CC-PVTZ
    Number of shells: 72
    Number of basis function: 188
    Number of Cartesian functions: 210
    Spherical Harmonics?: true
    Max angular momentum: 3

  ==> Pre-Iterations <==

   -------------------------------------------------------
    Irrep   Nso     Nmo     Nalpha   Nbeta   Ndocc  Nsocc
   -------------------------------------------------------
     A        188     188       0       0       0       0
   -------------------------------------------------------
    Total     188     188      13      13      13       0
   -------------------------------------------------------

 OEINTS: Overlap, kinetic, potential, dipole, and quadrupole integrals
         stored in file 35.

  ==> Integral Setup <==

  ==> DFJK: Density-Fitted J/K Matrices <==

    J tasked:                  Yes
    K tasked:                  Yes
    wK tasked:                  No
    OpenMP threads:              4
    Integrals threads:           4
    Memory (MB):              1430
    Algorithm:                Core
    Integral Cache:           NONE
    Schwarz Cutoff:          1E-12
    Fitting Condition:       1E-12

   => Auxiliary Basis Set <=

  Basis Set: 
    Number of shells: 145
    Number of basis function: 447
    Number of Cartesian functions: 533
    Spherical Harmonics?: true
    Max angular momentum: 4

  Minimum eigenvalue in the overlap matrix is 7.6610521305E-04.
  Using Symmetric Orthogonalization.
  SCF Guess: Reading in previously saved MOs, projecting if necessary.

  Using orbitals from previous SCF, no projection.
  Recomputing DOCC and SOCC from number of alpha and beta electrons from previous calculation.
              A 
    DOCC [    13 ]

  ==> Iterations <==

                           Total Energy        Delta E     RMS |[F,P]|

   @DF-RHF iter   0:  -134.30116945185370   -1.34301e+02   1.55102e-04 
   @DF-RHF iter   1:  -134.30372706097677   -2.55761e-03   3.21324e-05 
   @DF-RHF iter   2:  -134.30375808720288   -3.10262e-05   1.12498e-05 DIIS
   @DF-RHF iter   3:  -134.30376275335510   -4.66615e-06   4.95156e-06 DIIS
   @DF-RHF iter   4:  -134.30376337981488   -6.26460e-07   9.98176e-07 DIIS
   @DF-RHF iter   5:  -134.30376342801912   -4.82042e-08   3.12020e-07 DIIS
   @DF-RHF iter   6:  -134.30376343308211   -5.06299e-09   9.99972e-08 DIIS
   @DF-RHF iter   7:  -134.30376343354970   -4.67594e-10   2.77734e-08 DIIS
   @DF-RHF iter   8:  -134.30376343358392   -3.42197e-11   5.33789e-09 DIIS

  ==> Post-Iterations <==

    Orbital Energies (a.u.)
    -----------------------

    Doubly Occupied:                                                      

       1A    -15.526830     2A    -11.240881     3A    -11.208245  
       4A     -1.178258     5A     -0.990067     6A     -0.826636  
       7A     -0.658491     8A     -0.632591     9A     -0.588794  
      10A     -0.520010    11A     -0.503523    12A     -0.492221  
      13A     -0.385935  

    Virtual:                                                              

      14A      0.140805    15A      0.173118    16A      0.180705  
      17A      0.206167    18A      0.222710    19A      0.237246  
      20A      0.251719    21A      0.321510    22A      0.345739  
      23A      0.386297    24A      0.405699    25A      0.463547  
      26A      0.483087    27A      0.515751    28A      0.563787  
      29A      0.589977    30A      0.596583    31A      0.628373  
      32A      0.639275    33A      0.642834    34A      0.665839  
      35A      0.678038    36A      0.694947    37A      0.731464  
      38A      0.734408    39A      0.758214    40A      0.806461  
      41A      0.820017    42A      0.863076    43A      0.961168  
      44A      0.979047    45A      1.004294    46A      1.044712  
      47A      1.107379    48A      1.138420    49A      1.166937  
      50A      1.174423    51A      1.241417    52A      1.254176  
      53A      1.266647    54A      1.286159    55A      1.334410  
      56A      1.348744    57A      1.371580    58A      1.386864  
      59A      1.394802    60A      1.430923    61A      1.466814  
      62A      1.505187    63A      1.520397    64A      1.555348  
      65A      1.563318    66A      1.602635    67A      1.628936  
      68A      1.661619    69A      1.736854    70A      1.754991  
      71A      1.784964    72A      1.826427    73A      1.857341  
      74A      1.906910    75A      1.975161    76A      2.046346  
      77A      2.106242    78A      2.503933    79A      2.588180  
      80A      2.608705    81A      2.650047    82A      2.701166  
      83A      2.728590    84A      2.784655    85A      2.852758  
      86A      2.875568    87A      2.930472    88A      2.977320  
      89A      3.044368    90A      3.107056    91A      3.121276  
      92A      3.131078    93A      3.169048    94A      3.201472  
      95A      3.216929    96A      3.265808    97A      3.300780  
      98A      3.316928    99A      3.343036   100A      3.365736  
     101A      3.400797   102A      3.410296   103A      3.434566  
     104A      3.457567   105A      3.478872   106A      3.545447  
     107A      3.589211   108A      3.610960   109A      3.641694  
     110A      3.682320   111A      3.704802   112A      3.721664  
     113A      3.730544   114A      3.762169   115A      3.802394  
     116A      3.816698   117A      3.840042   118A      3.840762  
     119A      3.858788   120A      3.905353   121A      3.949643  
     122A      4.010950   123A      4.038804   124A      4.083540  
     125A      4.106821   126A      4.139894   127A      4.151049  
     128A      4.162327   129A      4.185617   130A      4.210946  
     131A      4.220130   132A      4.264664   133A      4.294097  
     134A      4.309318   135A      4.349595   136A      4.379084  
     137A      4.400789   138A      4.417824   139A      4.465311  
     140A      4.479769   141A      4.503706   142A      4.509466  
     143A      4.550073   144A      4.591237   145A      4.644732  
     146A      4.667064   147A      4.689792   148A      4.720229  
     149A      4.775785   150A      4.824463   151A      4.875881  
     152A      4.933001   153A      5.069524   154A      5.101469  
     155A      5.189742   156A      5.220479   157A      5.239313  
     158A      5.249830   159A      5.269960   160A      5.329806  
     161A      5.358750   162A      5.440942   163A      5.484169  
     164A      5.530826   165A      5.595266   166A      5.654961  
     167A      5.710709   168A      5.733558   169A      5.774951  
     170A      5.779844   171A      5.802321   172A      5.856475  
     173A      5.925313   174A      5.943802   175A      6.040071  
     176A      6.140560   177A      6.229629   178A      6.264969  
     179A      6.294459   180A      6.333716   181A      6.389587  
     182A      6.502241   183A      6.589889   184A      6.703098  
     185A      7.363406   186A     12.926463   187A     13.783358  
     188A     14.249230  

    Final Occupation by Irrep:
              A 
    DOCC [    13 ]

  Energy converged.

  @DF-RHF Final Energy:  -134.30376343358392

   => Energetics <=

    Nuclear Repulsion Energy =             83.5448922406399532
    One-Electron Energy =                -346.1923460721778838
    Two-Electron Energy =                 128.3436903979539352
    DFT Exchange-Correlation Energy =       0.0000000000000000
    Empirical Dispersion Energy =           0.0000000000000000
    PCM Polarization Energy =               0.0000000000000000
    EFP Energy =                            0.0000000000000000
    Total Energy =                       -134.3037634335839812

    Alert: EFP and PCM quantities not currently incorporated into SCF psivars.

Properties will be evaluated at   0.000000,   0.000000,   0.000000 Bohr
  ==> Properties <==


Properties computed using the SCF density matrix

  Nuclear Dipole Moment: (a.u.)
     X:     1.5283      Y:     0.1104      Z:     0.7815

  Electronic Dipole Moment: (a.u.)
     X:    -1.4911      Y:    -0.0050      Z:    -0.2715

  Dipole Moment: (a.u.)
     X:     0.0372      Y:     0.1054      Z:     0.5100     Total:     0.5221

  Dipole Moment: (Debye)
     X:     0.0945      Y:     0.2679      Z:     1.2962     Total:     1.3270


  Saving occupied orbitals to File 180.

*** tstop() called on cx1-27-1-1 at Fri Sep  9 20:11:22 2016
Module time:
	user time   =       9.59 seconds =       0.16 minutes
	system time =       0.18 seconds =       0.00 minutes
	total time  =          4 seconds =       0.07 minutes
Total time:
	user time   =      39.68 seconds =       0.66 minutes
	system time =       0.68 seconds =       0.01 minutes
	total time  =         13 seconds =       0.22 minutes

*** tstart() called on cx1-27-1-1
*** at Fri Sep  9 20:11:22 2016


         ------------------------------------------------------------
                                   SCF GRAD                          
                          Rob Parrish, Justin Turney,                
                       Andy Simmonett, and Alex Sokolov              
         ------------------------------------------------------------

  ==> Geometry <==

    Molecular point group: c1
    Full point group: C1

    Geometry (in Angstrom), charge = 0, multiplicity = 1:

       Center              X                  Y                   Z               Mass       
    ------------   -----------------  -----------------  -----------------  -----------------
           H         -2.013278252286     0.118770951828     0.234224007310     1.007825032070
           N         -1.178294233147    -0.305922415075    -0.108688409562    14.003074004780
           C         -0.027795645868     0.569060919625     0.073348771894    12.000000000000
           H         -1.059366135862    -1.148487818384     0.413513348118     1.007825032070
           C          1.266163012020    -0.221882327310    -0.016500113871    12.000000000000
           H         -0.029902012781     1.307008437578    -0.721774120871     1.007825032070
           H         -0.052336165333     1.109723585561     1.018730087548     1.007825032070
           H          1.320084783296    -0.761681975771    -0.954493420462     1.007825032070
           H          2.125385886487     0.434600057979     0.050942456273     1.007825032070
           H          1.336016614737    -0.943136070154     0.792125242660     1.007825032070

  Nuclear repulsion =   83.544892240639953

  ==> Basis Set <==

  Basis Set: CC-PVTZ
    Number of shells: 72
    Number of basis function: 188
    Number of Cartesian functions: 210
    Spherical Harmonics?: true
    Max angular momentum: 3

  ==> DFJKGrad: Density-Fitted SCF Gradients <==

    Gradient:                    1
    J tasked:                  Yes
    K tasked:                  Yes
    wK tasked:                  No
    OpenMP threads:              4
    Integrals threads:           4
    Memory (MB):              1430
    Schwarz Cutoff:          0E+00
    Fitting Condition:       1E-12

   => Auxiliary Basis Set <=

  Basis Set: 
    Number of shells: 145
    Number of basis function: 447
    Number of Cartesian functions: 533
    Spherical Harmonics?: true
    Max angular momentum: 4


  -Total Gradient:
     Atom            X                  Y                   Z
    ------   -----------------  -----------------  -----------------
       1        0.000817519830    -0.001508459127     0.002171777695
       2       -0.000691580535     0.000760122736    -0.002329713407
       3       -0.001538584892     0.000607711600     0.002334600829
       4       -0.000204753695     0.000535003281    -0.000536527792
       5       -0.000146335493     0.000734930956    -0.000538029077
       6        0.001915122615    -0.001310171665    -0.001447164018
       7        0.000021634402     0.000217614822     0.000244503856
       8        0.000146219486    -0.000142716237     0.000024987232
       9       -0.000026764433    -0.000112067901    -0.000026139584
      10       -0.000292477282     0.000218031534     0.000101704265


*** tstop() called on cx1-27-1-1 at Fri Sep  9 20:11:27 2016
Module time:
	user time   =      20.33 seconds =       0.34 minutes
	system time =       0.35 seconds =       0.01 minutes
	total time  =          5 seconds =       0.08 minutes
Total time:
	user time   =      60.03 seconds =       1.00 minutes
	system time =       1.03 seconds =       0.02 minutes
	total time  =         18 seconds =       0.30 minutes
CURRENT ENERGY: -134.3037634336

			-----------------------------------------
			 OPTKING 2.0: for geometry optimizations 
			  - R.A. King,  Bethel University        
			-----------------------------------------

	Previous internal coordinate definitions found.
	---Fragment 1 Geometry and Gradient---
	 H          -3.8045445261        0.2244445715        0.4426192276
	 N          -2.2266534046       -0.5781095824       -0.2053913279
	 C          -0.0525261584        1.0753692910        0.1386090911
	 H          -2.0019118712       -2.1703274437        0.7814269802
	 C           2.3927013323       -0.4192968323       -0.0311806964
	 H          -0.0565066150        2.4698880004       -1.3639554182
	 H          -0.0989010193        2.0970736599        1.9251208688
	 H           2.4945987126       -1.4393703346       -1.8037311603
	 H           4.0163972522        0.8212750869        0.0962672909
	 H           2.5247055108       -1.7822688786        1.4968997716
	             0.0008175198       -0.0015084591        0.0021717777
	            -0.0006915805        0.0007601227       -0.0023297134
	            -0.0015385849        0.0006077116        0.0023346008
	            -0.0002047537        0.0005350033       -0.0005365278
	            -0.0001463355        0.0007349310       -0.0005380291
	             0.0019151226       -0.0013101717       -0.0014471640
	             0.0000216344        0.0002176148        0.0002445039
	             0.0001462195       -0.0001427162        0.0000249872
	            -0.0000267644       -0.0001120679       -0.0000261396
	            -0.0002924773        0.0002180315        0.0001017043

	---Fragment 1 Intrafragment Coordinates---
	 - Coordinate -           - BOHR/RAD -       - ANG/DEG -
	 R(1,2)           =         1.885140	       0.997573
	 R(2,3)           =         2.753027	       1.456839
	 R(2,4)           =         1.886658	       0.998376
	 R(3,5)           =         2.870887	       1.519208
	 R(3,6)           =         2.049975	       1.084800
	 R(3,7)           =         2.058556	       1.089341
	 R(5,8)           =         2.047649	       1.083569
	 R(5,9)           =         2.047352	       1.083412
	 R(5,10)          =         2.051864	       1.085800
	 B(1,2,3)         =         1.941600	     111.245479
	 B(1,2,4)         =         1.853752	     106.212191
	 B(2,3,5)         =         1.931092	     110.643398
	 B(2,3,6)         =         1.891724	     108.387822
	 B(2,3,7)         =         1.970062	     112.876245
	 B(3,2,4)         =         1.925637	     110.330883
	 B(3,5,8)         =         1.931510	     110.667348
	 B(3,5,9)         =         1.935137	     110.875177
	 B(3,5,10)        =         1.935405	     110.890522
	 B(5,3,6)         =         1.888587	     108.208041
	 B(5,3,7)         =         1.905948	     109.202792
	 B(6,3,7)         =         1.873845	     107.363432
	 B(8,5,9)         =         1.892603	     108.438168
	 B(8,5,10)        =         1.886578	     108.092977
	 B(9,5,10)        =         1.880862	     107.765444
	 D(1,2,3,5)       =         2.818763	     161.503214
	*D(1,2,3,6)       =        -1.396264	     -80.000040
	 D(1,2,3,7)       =         0.677004	      38.789448
	 D(2,3,5,8)       =         0.973403	      55.771892
	 D(2,3,5,9)       =         3.074324	     176.145813
	 D(2,3,5,10)      =        -1.120125	     -64.178430
	 D(4,2,3,5)       =         0.766013	      43.889315
	 D(4,2,3,6)       =         2.834171	     162.386061
	 D(4,2,3,7)       =        -1.375746	     -78.824451
	 D(6,3,5,8)       =        -1.096662	     -62.834113
	 D(6,3,5,9)       =         1.004259	      57.539808
	 D(6,3,5,10)      =         3.092995	     177.215565
	 D(7,3,5,8)       =        -3.131134	    -179.400774
	 D(7,3,5,9)       =        -1.030213	     -59.026853
	 D(7,3,5,10)      =         1.058523	      60.648905

	Current energy   :      -134.3037634336

	Energy change for the previous step:
		Projected    :        -0.0002437984
		Actual       :        -0.0001109790

	Performing BFGS update.
	Previous computed or guess Hessian on step 1.
	Steps to be used in Hessian update: 1
	Taking RFO optimization step.
	Going to follow RFO solution 1.
	Using RFO vector 1.
	Norm of target step-size    0.03011
	Projected energy change by RFO approximation:        -0.0000123436

	Back-transformation to cartesian coordinates...
	Successfully converged to displaced geometry.

	Back-transformation to cartesian coordinates to adjust frozen coordinates...
	Successfully converged to displaced geometry.

	--- Internal Coordinate Step in ANG or DEG, aJ/ANG or AJ/DEG ---
	 ---------------------------------------------------------------------------
	   Coordinate                Previous        Force       Change         New 
	   ----------                --------       ------       ------       ------
	    1 R(1,2)          =      0.997573     0.004778     0.000563     0.998136
	    2 R(2,3)          =      1.456839    -0.002283    -0.000204     1.456635
	    3 R(2,4)          =      0.998376     0.006233     0.000737     0.999113
	    4 R(3,5)          =      1.519208     0.005023     0.000957     1.520165
	    5 R(3,6)          =      1.084800    -0.001366    -0.000184     1.084616
	    6 R(3,7)          =      1.089341    -0.002634    -0.000502     1.088839
	    7 R(5,8)          =      1.083569    -0.000468    -0.000030     1.083540
	    8 R(5,9)          =      1.083412     0.000748     0.000078     1.083490
	    9 R(5,10)         =      1.085800     0.000724     0.000126     1.085926
	   10 B(1,2,3)        =    111.245479    -0.000025    -0.157487   111.087992
	   11 B(1,2,4)        =    106.212191     0.000011    -0.122373   106.089818
	   12 B(2,3,5)        =    110.643398    -0.000022    -0.093593   110.549805
	   13 B(2,3,6)        =    108.387822    -0.000021    -0.138508   108.249314
	   14 B(2,3,7)        =    112.876245     0.000008    -0.021273   112.854972
	   15 B(3,2,4)        =    110.330883    -0.000021    -0.179469   110.151414
	   16 B(3,5,8)        =    110.667348    -0.000028    -0.137009   110.530339
	   17 B(3,5,9)        =    110.875177    -0.000012    -0.057516   110.817661
	   18 B(3,5,10)       =    110.890522     0.000047     0.233082   111.123604
	   19 B(5,3,6)        =    108.208041     0.000034     0.135183   108.343224
	   20 B(5,3,7)        =    109.202792     0.000003     0.019784   109.222576
	   21 B(6,3,7)        =    107.363432     0.000001     0.110821   107.474253
	   22 B(8,5,9)        =    108.438168     0.000011    -0.037237   108.400931
	   23 B(8,5,10)       =    108.092977    -0.000007    -0.007676   108.085301
	   24 B(9,5,10)       =    107.765444    -0.000011     0.005575   107.771019
	   25 D(1,2,3,5)      =    161.503214    -0.000004    -0.025873   161.477341
	   26 *D(1,2,3,6)     =    -80.000040    -0.000000     0.000000   -80.000040
	   27 D(1,2,3,7)      =     38.789448    -0.000002     0.033108    38.822556
	   28 D(2,3,5,8)      =     55.771892     0.000001     0.551489    56.323381
	   29 D(2,3,5,9)      =    176.145813    -0.000002     0.376401   176.522214
	   30 D(2,3,5,10)     =    -64.178430    -0.000000     0.498808   -63.679622
	   31 D(4,2,3,5)      =     43.889315    -0.000000     0.335226    44.224541
	   32 D(4,2,3,6)      =    162.386061     0.000004     0.361099   162.747160
	   33 D(4,2,3,7)      =    -78.824451     0.000002     0.394207   -78.430244
	   34 D(6,3,5,8)      =    -62.834113     0.000005     0.692078   -62.142035
	   35 D(6,3,5,9)      =     57.539808     0.000002     0.516990    58.056798
	   36 D(6,3,5,10)     =    177.215565     0.000004     0.639397   177.854962
	   37 D(7,3,5,8)      =   -179.400774    -0.000000     0.474182  -178.926592
	   38 D(7,3,5,9)      =    -59.026853    -0.000003     0.299094   -58.727759
	   39 D(7,3,5,10)     =     60.648905    -0.000001     0.421500    61.070405
	 ---------------------------------------------------------------------------

  ==> Convergence Check <==

  Measures of convergence in internal coordinates in au.
  Criteria marked as inactive (o), active & met (*), and active & unmet ( ).
  ---------------------------------------------------------------------------------------------
   Step     Total Energy     Delta E     MAX Force     RMS Force      MAX Disp      RMS Disp   
  ---------------------------------------------------------------------------------------------
    Convergence Criteria    1.00e-06 *    3.00e-04 *             o    1.20e-03 *             o
  ---------------------------------------------------------------------------------------------
      2    -134.30376343   -1.11e-04      7.57e-04      2.76e-04 o    1.21e-02      4.82e-03 o  ~
  ---------------------------------------------------------------------------------------------

	Writing optimization data to binary file.
	Structure for next step:
	Cartesian Geometry (in Angstrom)
	    H    -2.0121145195   0.1199114356   0.2338758219
	    N    -1.1774806057  -0.3068763983  -0.1089278495
	    C    -0.0281905336   0.5695616651   0.0721113829
	    H    -1.0576234761  -1.1455110730   0.4207450696
	    C     1.2661806514  -0.2227701609  -0.0157266721
	    H    -0.0329788901   1.3050046016  -0.7250666945
	    H    -0.0537628811   1.1108838207   1.0165090128
	    H     1.3222900005  -0.7557794392  -0.9574331537
	    H     2.1251494833   0.4335539339   0.0575030818
	    H     1.3352087510  -0.9499250277   0.7878379094
			--------------------------
			 OPTKING Finished Execution 
			--------------------------

    Structure for next step:
    Molecular point group: c1
    Full point group: C1

    Geometry (in Angstrom), charge = 0, multiplicity = 1:

    H           -2.012256996772     0.120280999710     0.234058043282
    N           -1.177623146656    -0.306506801584    -0.108745601890
    C           -0.028333162316     0.569931194880     0.072293616671
    H           -1.057766026222    -1.145141412309     0.420927276756
    C            1.266037923812    -0.222400570628    -0.015544431608
    H           -0.033121518469     1.305374075168    -0.724884399916
    H           -0.053905507881     1.111253309109     1.016691174405
    H            1.322147268659    -0.755409808272    -0.957250841379
    H            2.125006690129     0.433923474023     0.057685316658
    H            1.335066018161    -0.949555381894     0.788020088523

gradient() will perform analytic gradient computation.

*** tstart() called on cx1-27-1-1
*** at Fri Sep  9 20:11:28 2016


         ---------------------------------------------------------
                                   SCF
            by Justin Turney, Rob Parrish, and Andy Simmonett
                              RHF Reference
                        4 Threads,   2000 MiB Core
         ---------------------------------------------------------

  ==> Geometry <==

    Molecular point group: c1
    Full point group: C1

    Geometry (in Angstrom), charge = 0, multiplicity = 1:

       Center              X                  Y                   Z               Mass       
    ------------   -----------------  -----------------  -----------------  -----------------
           H         -2.012256996772     0.120280999710     0.234058043282     1.007825032070
           N         -1.177623146656    -0.306506801584    -0.108745601890    14.003074004780
           C         -0.028333162316     0.569931194880     0.072293616671    12.000000000000
           H         -1.057766026222    -1.145141412309     0.420927276756     1.007825032070
           C          1.266037923812    -0.222400570628    -0.015544431608    12.000000000000
           H         -0.033121518469     1.305374075168    -0.724884399916     1.007825032070
           H         -0.053905507881     1.111253309109     1.016691174405     1.007825032070
           H          1.322147268659    -0.755409808272    -0.957250841379     1.007825032070
           H          2.125006690129     0.433923474023     0.057685316658     1.007825032070
           H          1.335066018161    -0.949555381894     0.788020088523     1.007825032070

  Running in c1 symmetry.

  Rotational constants: A =      1.09911  B =      0.30354  C =      0.26410 [cm^-1]
  Rotational constants: A =  32950.56293  B =   9100.00158  C =   7917.41580 [MHz]
  Nuclear repulsion =   83.541311538888635

  Charge       = 0
  Multiplicity = 1
  Electrons    = 26
  Nalpha       = 13
  Nbeta        = 13

  ==> Algorithm <==

  SCF Algorithm Type is DF.
  DIIS enabled.
  MOM disabled.
  Fractional occupation disabled.
  Guess Type is READ.
  Energy threshold   = 1.00e-08
  Density threshold  = 1.00e-08
  Integral threshold = 0.00e+00

  ==> Primary Basis <==

  Basis Set: CC-PVTZ
    Number of shells: 72
    Number of basis function: 188
    Number of Cartesian functions: 210
    Spherical Harmonics?: true
    Max angular momentum: 3

  ==> Pre-Iterations <==

   -------------------------------------------------------
    Irrep   Nso     Nmo     Nalpha   Nbeta   Ndocc  Nsocc
   -------------------------------------------------------
     A        188     188       0       0       0       0
   -------------------------------------------------------
    Total     188     188      13      13      13       0
   -------------------------------------------------------

 OEINTS: Overlap, kinetic, potential, dipole, and quadrupole integrals
         stored in file 35.

  ==> Integral Setup <==

  ==> DFJK: Density-Fitted J/K Matrices <==

    J tasked:                  Yes
    K tasked:                  Yes
    wK tasked:                  No
    OpenMP threads:              4
    Integrals threads:           4
    Memory (MB):              1430
    Algorithm:                Core
    Integral Cache:           NONE
    Schwarz Cutoff:          1E-12
    Fitting Condition:       1E-12

   => Auxiliary Basis Set <=

  Basis Set: 
    Number of shells: 145
    Number of basis function: 447
    Number of Cartesian functions: 533
    Spherical Harmonics?: true
    Max angular momentum: 4

  Minimum eigenvalue in the overlap matrix is 7.6746298710E-04.
  Using Symmetric Orthogonalization.
  SCF Guess: Reading in previously saved MOs, projecting if necessary.

  Using orbitals from previous SCF, no projection.
  Recomputing DOCC and SOCC from number of alpha and beta electrons from previous calculation.
              A 
    DOCC [    13 ]

  ==> Iterations <==

                           Total Energy        Delta E     RMS |[F,P]|

   @DF-RHF iter   0:  -134.30296300383361   -1.34303e+02   3.80659e-05 
   @DF-RHF iter   1:  -134.30376936075766   -8.06357e-04   8.15131e-06 
   @DF-RHF iter   2:  -134.30377125519988   -1.89444e-06   2.84185e-06 DIIS
   @DF-RHF iter   3:  -134.30377154643281   -2.91233e-07   1.28238e-06 DIIS
   @DF-RHF iter   4:  -134.30377159213054   -4.56977e-08   2.91309e-07 DIIS
   @DF-RHF iter   5:  -134.30377159618379   -4.05325e-09   8.23693e-08 DIIS
   @DF-RHF iter   6:  -134.30377159658647   -4.02679e-10   2.57048e-08 DIIS
   @DF-RHF iter   7:  -134.30377159661776   -3.12923e-11   7.85026e-09 DIIS

  ==> Post-Iterations <==

    Orbital Energies (a.u.)
    -----------------------

    Doubly Occupied:                                                      

       1A    -15.527006     2A    -11.240861     3A    -11.208325  
       4A     -1.178409     5A     -0.989725     6A     -0.826697  
       7A     -0.658227     8A     -0.632831     9A     -0.588285  
      10A     -0.519960    11A     -0.503293    12A     -0.492406  
      13A     -0.386336  

    Virtual:                                                              

      14A      0.140768    15A      0.173101    16A      0.180702  
      17A      0.206184    18A      0.222609    19A      0.237422  
      20A      0.251776    21A      0.321290    22A      0.345604  
      23A      0.386411    24A      0.405646    25A      0.463584  
      26A      0.483168    27A      0.515630    28A      0.563337  
      29A      0.589965    30A      0.596714    31A      0.628401  
      32A      0.639024    33A      0.642647    34A      0.665717  
      35A      0.677850    36A      0.694585    37A      0.731517  
      38A      0.734556    39A      0.758048    40A      0.806009  
      41A      0.819721    42A      0.863788    43A      0.960698  
      44A      0.979049    45A      1.004345    46A      1.044201  
      47A      1.107053    48A      1.138645    49A      1.166707  
      50A      1.174881    51A      1.241033    52A      1.254481  
      53A      1.266655    54A      1.285508    55A      1.335720  
      56A      1.349038    57A      1.370383    58A      1.385672  
      59A      1.396501    60A      1.429649    61A      1.467297  
      62A      1.504884    63A      1.520712    64A      1.555110  
      65A      1.563883    66A      1.602482    67A      1.628450  
      68A      1.661939    69A      1.737448    70A      1.755260  
      71A      1.785197    72A      1.826606    73A      1.857728  
      74A      1.906159    75A      1.974729    76A      2.044926  
      77A      2.105951    78A      2.503152    79A      2.587947  
      80A      2.609485    81A      2.650238    82A      2.700937  
      83A      2.727915    84A      2.783636    85A      2.852294  
      86A      2.875653    87A      2.929911    88A      2.977512  
      89A      3.043903    90A      3.106868    91A      3.121411  
      92A      3.131288    93A      3.169022    94A      3.201731  
      95A      3.217509    96A      3.266034    97A      3.298614  
      98A      3.315712    99A      3.342787   100A      3.366009  
     101A      3.400620   102A      3.411171   103A      3.434528  
     104A      3.456599   105A      3.479631   106A      3.545180  
     107A      3.588397   108A      3.610773   109A      3.641275  
     110A      3.683322   111A      3.705131   112A      3.722200  
     113A      3.731122   114A      3.762129   115A      3.802511  
     116A      3.816898   117A      3.838911   118A      3.841668  
     119A      3.858667   120A      3.904013   121A      3.949063  
     122A      4.011412   123A      4.039192   124A      4.082830  
     125A      4.105832   126A      4.139300   127A      4.150980  
     128A      4.161921   129A      4.186670   130A      4.208614  
     131A      4.219282   132A      4.263391   133A      4.293434  
     134A      4.309643   135A      4.349904   136A      4.379681  
     137A      4.399752   138A      4.416837   139A      4.465650  
     140A      4.479694   141A      4.502983   142A      4.509031  
     143A      4.548862   144A      4.591208   145A      4.644328  
     146A      4.667685   147A      4.689778   148A      4.718937  
     149A      4.773711   150A      4.824639   151A      4.877982  
     152A      4.933782   153A      5.069898   154A      5.104109  
     155A      5.189894   156A      5.221118   157A      5.239726  
     158A      5.250237   159A      5.269526   160A      5.330864  
     161A      5.358856   162A      5.440847   163A      5.482946  
     164A      5.530382   165A      5.596000   166A      5.654696  
     167A      5.709578   168A      5.733116   169A      5.773337  
     170A      5.780707   171A      5.801733   172A      5.853915  
     173A      5.923936   174A      5.942912   175A      6.038844  
     176A      6.137760   177A      6.229580   178A      6.266094  
     179A      6.294203   180A      6.332560   181A      6.387036  
     182A      6.501208   183A      6.587541   184A      6.703607  
     185A      7.363176   186A     12.925483   187A     13.779299  
     188A     14.239502  

    Final Occupation by Irrep:
              A 
    DOCC [    13 ]

  Energy converged.

  @DF-RHF Final Energy:  -134.30377159661776

   => Energetics <=

    Nuclear Repulsion Energy =             83.5413115388886354
    One-Electron Energy =                -346.1854437697431877
    Two-Electron Energy =                 128.3403606342369017
    DFT Exchange-Correlation Energy =       0.0000000000000000
    Empirical Dispersion Energy =           0.0000000000000000
    PCM Polarization Energy =               0.0000000000000000
    EFP Energy =                            0.0000000000000000
    Total Energy =                       -134.3037715966176506

    Alert: EFP and PCM quantities not currently incorporated into SCF psivars.

Properties will be evaluated at   0.000000,   0.000000,   0.000000 Bohr
  ==> Properties <==


Properties computed using the SCF density matrix

  Nuclear Dipole Moment: (a.u.)
     X:     1.5270      Y:     0.1141      Z:     0.7833

  Electronic Dipole Moment: (a.u.)
     X:    -1.4895      Y:    -0.0045      Z:    -0.2711

  Dipole Moment: (a.u.)
     X:     0.0375      Y:     0.1096      Z:     0.5122     Total:     0.5252

  Dipole Moment: (Debye)
     X:     0.0953      Y:     0.2786      Z:     1.3020     Total:     1.3349


  Saving occupied orbitals to File 180.

*** tstop() called on cx1-27-1-1 at Fri Sep  9 20:11:31 2016
Module time:
	user time   =       9.56 seconds =       0.16 minutes
	system time =       0.17 seconds =       0.00 minutes
	total time  =          3 seconds =       0.05 minutes
Total time:
	user time   =      70.16 seconds =       1.17 minutes
	system time =       1.22 seconds =       0.02 minutes
	total time  =         22 seconds =       0.37 minutes

*** tstart() called on cx1-27-1-1
*** at Fri Sep  9 20:11:31 2016


         ------------------------------------------------------------
                                   SCF GRAD                          
                          Rob Parrish, Justin Turney,                
                       Andy Simmonett, and Alex Sokolov              
         ------------------------------------------------------------

  ==> Geometry <==

    Molecular point group: c1
    Full point group: C1

    Geometry (in Angstrom), charge = 0, multiplicity = 1:

       Center              X                  Y                   Z               Mass       
    ------------   -----------------  -----------------  -----------------  -----------------
           H         -2.012256996772     0.120280999710     0.234058043282     1.007825032070
           N         -1.177623146656    -0.306506801584    -0.108745601890    14.003074004780
           C         -0.028333162316     0.569931194880     0.072293616671    12.000000000000
           H         -1.057766026222    -1.145141412309     0.420927276756     1.007825032070
           C          1.266037923812    -0.222400570628    -0.015544431608    12.000000000000
           H         -0.033121518469     1.305374075168    -0.724884399916     1.007825032070
           H         -0.053905507881     1.111253309109     1.016691174405     1.007825032070
           H          1.322147268659    -0.755409808272    -0.957250841379     1.007825032070
           H          2.125006690129     0.433923474023     0.057685316658     1.007825032070
           H          1.335066018161    -0.949555381894     0.788020088523     1.007825032070

  Nuclear repulsion =   83.541311538888635

  ==> Basis Set <==

  Basis Set: CC-PVTZ
    Number of shells: 72
    Number of basis function: 188
    Number of Cartesian functions: 210
    Spherical Harmonics?: true
    Max angular momentum: 3

  ==> DFJKGrad: Density-Fitted SCF Gradients <==

    Gradient:                    1
    J tasked:                  Yes
    K tasked:                  Yes
    wK tasked:                  No
    OpenMP threads:              4
    Integrals threads:           4
    Memory (MB):              1430
    Schwarz Cutoff:          0E+00
    Fitting Condition:       1E-12

   => Auxiliary Basis Set <=

  Basis Set: 
    Number of shells: 145
    Number of basis function: 447
    Number of Cartesian functions: 533
    Spherical Harmonics?: true
    Max angular momentum: 4


  -Total Gradient:
     Atom            X                  Y                   Z
    ------   -----------------  -----------------  -----------------
       1        0.000619068810    -0.001230766341     0.002480125588
       2       -0.000140470236     0.001188836269    -0.003292499237
       3       -0.001877541914     0.001481137574     0.002281786889
       4        0.000028894270     0.000180245812    -0.000079630718
       5       -0.000080251064     0.000007409326     0.000108033795
       6        0.001411450461    -0.001478344256    -0.001514947996
       7        0.000001869535    -0.000055962029     0.000043402070
       8        0.000045004233     0.000018981883    -0.000023527043
       9       -0.000071420953    -0.000037908820    -0.000046544963
      10        0.000063396858    -0.000073629418     0.000043801615


*** tstop() called on cx1-27-1-1 at Fri Sep  9 20:11:37 2016
Module time:
	user time   =      20.53 seconds =       0.34 minutes
	system time =       0.29 seconds =       0.00 minutes
	total time  =          6 seconds =       0.10 minutes
Total time:
	user time   =      90.71 seconds =       1.51 minutes
	system time =       1.51 seconds =       0.03 minutes
	total time  =         28 seconds =       0.47 minutes
CURRENT ENERGY: -134.3037715966

			-----------------------------------------
			 OPTKING 2.0: for geometry optimizations 
			  - R.A. King,  Bethel University        
			-----------------------------------------

	Previous internal coordinate definitions found.
	---Fragment 1 Geometry and Gradient---
	 H          -3.8026146329        0.2272981484        0.4423056010
	 N          -2.2253852349       -0.5792139129       -0.2054994057
	 C          -0.0535419173        1.0770138729        0.1366151367
	 H          -1.9988881022       -2.1640036527        0.7954372749
	 C           2.3924649499       -0.4202761703       -0.0293747186
	 H          -0.0625905990        2.4667995030       -1.3698329938
	 H          -0.1018666469        2.0999644185        1.9212678813
	 H           2.4984962451       -1.4275176557       -1.8089419307
	 H           4.0156806749        0.8199965285        0.1090094504
	 H           2.5229091436       -1.7943996198        1.4891421545
	             0.0006190688       -0.0012307663        0.0024801256
	            -0.0001404702        0.0011888363       -0.0032924992
	            -0.0018775419        0.0014811376        0.0022817869
	             0.0000288943        0.0001802458       -0.0000796307
	            -0.0000802511        0.0000074093        0.0001080338
	             0.0014114505       -0.0014783443       -0.0015149480
	             0.0000018695       -0.0000559620        0.0000434021
	             0.0000450042        0.0000189819       -0.0000235270
	            -0.0000714210       -0.0000379088       -0.0000465450
	             0.0000633969       -0.0000736294        0.0000438016

	---Fragment 1 Intrafragment Coordinates---
	 - Coordinate -           - BOHR/RAD -       - ANG/DEG -
	 R(1,2)           =         1.886204	       0.998136
	 R(2,3)           =         2.752642	       1.456635
	 R(2,4)           =         1.888050	       0.999113
	 R(3,5)           =         2.872696	       1.520165
	 R(3,6)           =         2.049627	       1.084616
	 R(3,7)           =         2.057607	       1.088839
	 R(5,8)           =         2.047593	       1.083540
	 R(5,9)           =         2.047500	       1.083490
	 R(5,10)          =         2.052102	       1.085926
	 B(1,2,3)         =         1.938851	     111.087992
	 B(1,2,4)         =         1.851617	     106.089818
	 B(2,3,5)         =         1.929458	     110.549805
	 B(2,3,6)         =         1.889307	     108.249314
	 B(2,3,7)         =         1.969691	     112.854972
	 B(3,2,4)         =         1.922505	     110.151414
	 B(3,5,8)         =         1.929118	     110.530339
	 B(3,5,9)         =         1.934133	     110.817661
	 B(3,5,10)        =         1.939473	     111.123604
	 B(5,3,6)         =         1.890946	     108.343224
	 B(5,3,7)         =         1.906294	     109.222576
	 B(6,3,7)         =         1.875780	     107.474253
	 B(8,5,9)         =         1.891953	     108.400931
	 B(8,5,10)        =         1.886444	     108.085301
	 B(9,5,10)        =         1.880959	     107.771019
	 D(1,2,3,5)       =         2.818311	     161.477341
	*D(1,2,3,6)       =        -1.396264	     -80.000040
	 D(1,2,3,7)       =         0.677581	      38.822556
	 D(2,3,5,8)       =         0.983028	      56.323381
	 D(2,3,5,9)       =         3.080894	     176.522214
	 D(2,3,5,10)      =        -1.111419	     -63.679622
	 D(4,2,3,5)       =         0.771864	      44.224541
	 D(4,2,3,6)       =         2.840474	     162.747160
	 D(4,2,3,7)       =        -1.368866	     -78.430244
	 D(6,3,5,8)       =        -1.084583	     -62.142035
	 D(6,3,5,9)       =         1.013282	      58.056798
	 D(6,3,5,10)      =         3.104155	     177.854962
	 D(7,3,5,8)       =        -3.122858	    -178.926592
	 D(7,3,5,9)       =        -1.024993	     -58.727759
	 D(7,3,5,10)      =         1.065880	      61.070405

	Current energy   :      -134.3037715966

	Energy change for the previous step:
		Projected    :        -0.0000123436
		Actual       :        -0.0000081630

	Performing BFGS update.
	Previous computed or guess Hessian on step 1.
	Steps to be used in Hessian update: 2 1
	Taking RFO optimization step.
	Going to follow RFO solution 1.
	Using RFO vector 1.
	Norm of target step-size    0.00323
	Projected energy change by RFO approximation:        -0.0000003116

	Back-transformation to cartesian coordinates...
	Successfully converged to displaced geometry.

	Back-transformation to cartesian coordinates to adjust frozen coordinates...
	Successfully converged to displaced geometry.

	--- Internal Coordinate Step in ANG or DEG, aJ/ANG or AJ/DEG ---
	 ---------------------------------------------------------------------------
	   Coordinate                Previous        Force       Change         New 
	   ----------                --------       ------       ------       ------
	    1 R(1,2)          =      0.998136     0.001583     0.000232     0.998369
	    2 R(2,3)          =      1.456635     0.003071     0.000486     1.457121
	    3 R(2,4)          =      0.999113     0.001566     0.000241     0.999354
	    4 R(3,5)          =      1.520165    -0.000023     0.000052     1.520217
	    5 R(3,6)          =      1.084616    -0.000864    -0.000157     1.084459
	    6 R(3,7)          =      1.088839    -0.000081    -0.000045     1.088794
	    7 R(5,8)          =      1.083540    -0.000111    -0.000019     1.083520
	    8 R(5,9)          =      1.083490     0.000682     0.000120     1.083610
	    9 R(5,10)         =      1.085926    -0.000706    -0.000114     1.085812
	   10 B(1,2,3)        =    111.087992    -0.000003    -0.017555   111.070437
	   11 B(1,2,4)        =    106.089818    -0.000002    -0.008354   106.081464
	   12 B(2,3,5)        =    110.549805     0.000005     0.015564   110.565369
	   13 B(2,3,6)        =    108.249314    -0.000002    -0.035607   108.213708
	   14 B(2,3,7)        =    112.854972     0.000000     0.025888   112.880860
	   15 B(3,2,4)        =    110.151414     0.000008     0.026772   110.178187
	   16 B(3,5,8)        =    110.530339    -0.000002    -0.011331   110.519008
	   17 B(3,5,9)        =    110.817661     0.000003     0.019513   110.837174
	   18 B(3,5,10)       =    111.123604    -0.000008    -0.032138   111.091466
	   19 B(5,3,6)        =    108.343224    -0.000003    -0.025717   108.317507
	   20 B(5,3,7)        =    109.222576     0.000001     0.028230   109.250806
	   21 B(6,3,7)        =    107.474253    -0.000000    -0.012177   107.462076
	   22 B(8,5,9)        =    108.400931     0.000002     0.029158   108.430088
	   23 B(8,5,10)       =    108.085301     0.000003    -0.003612   108.081689
	   24 B(9,5,10)       =    107.771019     0.000001    -0.000436   107.770583
	   25 D(1,2,3,5)      =    161.477341     0.000001     0.043797   161.521138
	   26 *D(1,2,3,6)     =    -80.000040    -0.000000     0.000000   -80.000040
	   27 D(1,2,3,7)      =     38.822556    -0.000000    -0.023000    38.799556
	   28 D(2,3,5,8)      =     56.323381    -0.000001    -0.033822    56.289558
	   29 D(2,3,5,9)      =    176.522214    -0.000000     0.008072   176.530285
	   30 D(2,3,5,10)     =    -63.679622    -0.000000    -0.000738   -63.680360
	   31 D(4,2,3,5)      =     44.224541     0.000000     0.048170    44.272711
	   32 D(4,2,3,6)      =    162.747160    -0.000000     0.004373   162.751533
	   33 D(4,2,3,7)      =    -78.430244    -0.000001    -0.018627   -78.448871
	   34 D(6,3,5,8)      =    -62.142035    -0.000001     0.016008   -62.126027
	   35 D(6,3,5,9)      =     58.056798     0.000000     0.057902    58.114700
	   36 D(6,3,5,10)     =    177.854962     0.000000     0.049092   177.904054
	   37 D(7,3,5,8)      =   -178.926592    -0.000000     0.029429  -178.897163
	   38 D(7,3,5,9)      =    -58.727759     0.000001     0.071323   -58.656436
	   39 D(7,3,5,10)     =     61.070405     0.000001     0.062513    61.132918
	 ---------------------------------------------------------------------------

  ==> Convergence Check <==

  Measures of convergence in internal coordinates in au.
  Criteria marked as inactive (o), active & met (*), and active & unmet ( ).
  ---------------------------------------------------------------------------------------------
   Step     Total Energy     Delta E     MAX Force     RMS Force      MAX Disp      RMS Disp   
  ---------------------------------------------------------------------------------------------
    Convergence Criteria    1.00e-06 *    3.00e-04 *             o    1.20e-03 *             o
  ---------------------------------------------------------------------------------------------
      3    -134.30377160   -8.16e-06      3.73e-04      8.54e-05 o    1.24e-03      5.17e-04 o  ~
  ---------------------------------------------------------------------------------------------

	Writing optimization data to binary file.
	Structure for next step:
	Cartesian Geometry (in Angstrom)
	    H    -2.0125892380   0.1205161354   0.2338795460
	    N    -1.1778603837  -0.3067725453  -0.1087454565
	    C    -0.0281330519   0.5698281249   0.0726373746
	    H    -1.0587122994  -1.1456830963   0.4211050576
	    C     1.2664583659  -0.2221911728  -0.0156698145
	    H    -0.0331110995   1.3047882908  -0.7247709987
	    H    -0.0537307178   1.1117684615   1.0166274143
	    H     1.3221582242  -0.7551286396  -0.9574190036
	    H     2.1256011142   0.4340624085   0.0579217767
	    H     1.3351707572  -0.9494388765   0.7876844055
			--------------------------
			 OPTKING Finished Execution 
			--------------------------

    Structure for next step:
    Molecular point group: c1
    Full point group: C1

    Geometry (in Angstrom), charge = 0, multiplicity = 1:

    H           -2.012672053160     0.120566830282     0.233826210741
    N           -1.177943262540    -0.306721817758    -0.108798765596
    C           -0.028216018634     0.569878785560     0.072584051732
    H           -1.058795187418    -1.145632304710     0.421051708038
    C            1.266375300397    -0.222140451751    -0.015723130700
    H           -0.033194065849     1.304838895302    -0.724824260686
    H           -0.053813682557     1.111819080772     1.016574019304
    H            1.322075154441    -0.755077877851    -0.957472247844
    H            2.125517983048     0.434113079522     0.057868454872
    H            1.335087686371    -0.949388099866     0.787631028008

gradient() will perform analytic gradient computation.

*** tstart() called on cx1-27-1-1
*** at Fri Sep  9 20:11:37 2016


         ---------------------------------------------------------
                                   SCF
            by Justin Turney, Rob Parrish, and Andy Simmonett
                              RHF Reference
                        4 Threads,   2000 MiB Core
         ---------------------------------------------------------

  ==> Geometry <==

    Molecular point group: c1
    Full point group: C1

    Geometry (in Angstrom), charge = 0, multiplicity = 1:

       Center              X                  Y                   Z               Mass       
    ------------   -----------------  -----------------  -----------------  -----------------
           H         -2.012672053160     0.120566830282     0.233826210741     1.007825032070
           N         -1.177943262540    -0.306721817758    -0.108798765596    14.003074004780
           C         -0.028216018634     0.569878785560     0.072584051732    12.000000000000
           H         -1.058795187418    -1.145632304710     0.421051708038     1.007825032070
           C          1.266375300397    -0.222140451751    -0.015723130700    12.000000000000
           H         -0.033194065849     1.304838895302    -0.724824260686     1.007825032070
           H         -0.053813682557     1.111819080772     1.016574019304     1.007825032070
           H          1.322075154441    -0.755077877851    -0.957472247844     1.007825032070
           H          2.125517983048     0.434113079522     0.057868454872     1.007825032070
           H          1.335087686371    -0.949388099866     0.787631028008     1.007825032070

  Running in c1 symmetry.

  Rotational constants: A =      1.09912  B =      0.30340  C =      0.26398 [cm^-1]
  Rotational constants: A =  32950.84487  B =   9095.61908  C =   7914.01211 [MHz]
  Nuclear repulsion =   83.528871844954637

  Charge       = 0
  Multiplicity = 1
  Electrons    = 26
  Nalpha       = 13
  Nbeta        = 13

  ==> Algorithm <==

  SCF Algorithm Type is DF.
  DIIS enabled.
  MOM disabled.
  Fractional occupation disabled.
  Guess Type is READ.
[...]
     134A      4.309638   135A      4.349922   136A      4.379444  
     137A      4.399726   138A      4.416658   139A      4.465464  
     140A      4.479426   141A      4.503026   142A      4.508885  
     143A      4.548550   144A      4.591087   145A      4.644231  
     146A      4.667526   147A      4.689530   148A      4.718910  
     149A      4.773209   150A      4.824303   151A      4.877531  
     152A      4.934015   153A      5.069633   154A      5.103779  
     155A      5.189664   156A      5.221161   157A      5.239900  
     158A      5.250273   159A      5.269016   160A      5.330924  
     161A      5.358577   162A      5.440711   163A      5.483002  
     164A      5.529807   165A      5.595255   166A      5.654406  
     167A      5.709614   168A      5.732768   169A      5.773390  
     170A      5.780719   171A      5.801623   172A      5.853805  
     173A      5.923857   174A      5.943049   175A      6.037889  
     176A      6.136731   177A      6.228950   178A      6.265686  
     179A      6.293974   180A      6.332215   181A      6.386183  
     182A      6.500506   183A      6.586742   184A      6.702366  
     185A      7.362459   186A     12.924105   187A     13.773211  
     188A     14.239170  

    Final Occupation by Irrep:
              A 
    DOCC [    13 ]

  Energy converged.

  @DF-RHF Final Energy:  -134.30377206265365

   => Energetics <=

    Nuclear Repulsion Energy =             83.5288718449546366
    One-Electron Energy =                -346.1612660313513743
    Two-Electron Energy =                 128.3286221237431164
    DFT Exchange-Correlation Energy =       0.0000000000000000
    Empirical Dispersion Energy =           0.0000000000000000
    PCM Polarization Energy =               0.0000000000000000
    EFP Energy =                            0.0000000000000000
    Total Energy =                       -134.3037720626535929

    Alert: EFP and PCM quantities not currently incorporated into SCF psivars.

Properties will be evaluated at   0.000000,   0.000000,   0.000000 Bohr
  ==> Properties <==


Properties computed using the SCF density matrix

  Nuclear Dipole Moment: (a.u.)
     X:     1.5261      Y:     0.1145      Z:     0.7828

  Electronic Dipole Moment: (a.u.)
     X:    -1.4885      Y:    -0.0047      Z:    -0.2705

  Dipole Moment: (a.u.)
     X:     0.0375      Y:     0.1098      Z:     0.5123     Total:     0.5253

  Dipole Moment: (Debye)
     X:     0.0954      Y:     0.2791      Z:     1.3021     Total:     1.3351


  Saving occupied orbitals to File 180.

*** tstop() called on cx1-27-1-1 at Fri Sep  9 20:11:40 2016
Module time:
	user time   =       8.95 seconds =       0.15 minutes
	system time =       0.19 seconds =       0.00 minutes
	total time  =          3 seconds =       0.05 minutes
Total time:
	user time   =     100.21 seconds =       1.67 minutes
	system time =       1.72 seconds =       0.03 minutes
	total time  =         31 seconds =       0.52 minutes

*** tstart() called on cx1-27-1-1
*** at Fri Sep  9 20:11:40 2016


         ------------------------------------------------------------
                                   SCF GRAD                          
                          Rob Parrish, Justin Turney,                
                       Andy Simmonett, and Alex Sokolov              
         ------------------------------------------------------------

  ==> Geometry <==

    Molecular point group: c1
    Full point group: C1

    Geometry (in Angstrom), charge = 0, multiplicity = 1:

       Center              X                  Y                   Z               Mass       
    ------------   -----------------  -----------------  -----------------  -----------------
           H         -2.012672053160     0.120566830282     0.233826210741     1.007825032070
           N         -1.177943262540    -0.306721817758    -0.108798765596    14.003074004780
           C         -0.028216018634     0.569878785560     0.072584051732    12.000000000000
           H         -1.058795187418    -1.145632304710     0.421051708038     1.007825032070
           C          1.266375300397    -0.222140451751    -0.015723130700    12.000000000000
           H         -0.033194065849     1.304838895302    -0.724824260686     1.007825032070
           H         -0.053813682557     1.111819080772     1.016574019304     1.007825032070
           H          1.322075154441    -0.755077877851    -0.957472247844     1.007825032070
           H          2.125517983048     0.434113079522     0.057868454872     1.007825032070
           H          1.335087686371    -0.949388099866     0.787631028008     1.007825032070

  Nuclear repulsion =   83.528871844954637

  ==> Basis Set <==

  Basis Set: CC-PVTZ
    Number of shells: 72
    Number of basis function: 188
    Number of Cartesian functions: 210
    Spherical Harmonics?: true
    Max angular momentum: 3

  ==> DFJKGrad: Density-Fitted SCF Gradients <==

    Gradient:                    1
    J tasked:                  Yes
    K tasked:                  Yes
    wK tasked:                  No
    OpenMP threads:              4
    Integrals threads:           4
    Memory (MB):              1430
    Schwarz Cutoff:          0E+00
    Fitting Condition:       1E-12

   => Auxiliary Basis Set <=

  Basis Set: 
    Number of shells: 145
    Number of basis function: 447
    Number of Cartesian functions: 533
    Spherical Harmonics?: true
    Max angular momentum: 4


  -Total Gradient:
     Atom            X                  Y                   Z
    ------   -----------------  -----------------  -----------------
       1        0.000437418934    -0.001135164297     0.002547532488
       2       -0.000218466106     0.001103507062    -0.003537955066
       3       -0.001720533860     0.001617140141     0.002440682124
       4        0.000001493809    -0.000029101282     0.000012821078
       5        0.000017053503     0.000007622761     0.000016712058
       6        0.001429205416    -0.001576736474    -0.001448608223
       7        0.000023541662     0.000017910240    -0.000006047013
       8        0.000006180415    -0.000002103756    -0.000010870620
       9        0.000019216058    -0.000000371958    -0.000006654299
      10        0.000004890169    -0.000002702437    -0.000007612527


*** tstop() called on cx1-27-1-1 at Fri Sep  9 20:11:45 2016
Module time:
	user time   =      19.83 seconds =       0.33 minutes
	system time =       0.35 seconds =       0.01 minutes
	total time  =          5 seconds =       0.08 minutes
Total time:
	user time   =     120.07 seconds =       2.00 minutes
	system time =       2.07 seconds =       0.03 minutes
	total time  =         36 seconds =       0.60 minutes
CURRENT ENERGY: -134.3037720627

			-----------------------------------------
			 OPTKING 2.0: for geometry optimizations 
			  - R.A. King,  Bethel University        
			-----------------------------------------

	Previous internal coordinate definitions found.
	---Fragment 1 Geometry and Gradient---
	 H          -3.8033989758        0.2278382899        0.4418675010
	 N          -2.2259901663       -0.5796202345       -0.2055998706
	 C          -0.0533205478        1.0769148336        0.1371639794
	 H          -2.0008329350       -2.1649313049        0.7956724160
	 C           2.3931024992       -0.4197846168       -0.0297124110
	 H          -0.0627276937        2.4657881597       -1.3697193472
	 H          -0.1016931222        2.1010335720        1.9210464903
	 H           2.4983599690       -1.4268903981       -1.8093603283
	 H           4.0166468785        0.8203548310        0.1093555314
	 H           2.5229500906       -1.7940835026        1.4884069367
	             0.0004374189       -0.0011351643        0.0025475325
	            -0.0002184661        0.0011035071       -0.0035379551
	            -0.0017205339        0.0016171401        0.0024406821
	             0.0000014938       -0.0000291013        0.0000128211
	             0.0000170535        0.0000076228        0.0000167121
	             0.0014292054       -0.0015767365       -0.0014486082
	             0.0000235417        0.0000179102       -0.0000060470
	             0.0000061804       -0.0000021038       -0.0000108706
	             0.0000192161       -0.0000003720       -0.0000066543
	             0.0000048902       -0.0000027024       -0.0000076125

	---Fragment 1 Intrafragment Coordinates---
	 - Coordinate -           - BOHR/RAD -       - ANG/DEG -
	 R(1,2)           =         1.886643	       0.998369
	 R(2,3)           =         2.753559	       1.457121
	 R(2,4)           =         1.888506	       0.999354
	 R(3,5)           =         2.872794	       1.520217
	 R(3,6)           =         2.049330	       1.084459
	 R(3,7)           =         2.057522	       1.088794
	 R(5,8)           =         2.047557	       1.083520
	 R(5,9)           =         2.047726	       1.083610
	 R(5,10)          =         2.051888	       1.085812
	 B(1,2,3)         =         1.938545	     111.070437
	 B(1,2,4)         =         1.851471	     106.081464
	 B(2,3,5)         =         1.929730	     110.565369
	 B(2,3,6)         =         1.888685	     108.213708
	 B(2,3,7)         =         1.970143	     112.880860
	 B(3,2,4)         =         1.922972	     110.178187
	 B(3,5,8)         =         1.928921	     110.519008
	 B(3,5,9)         =         1.934474	     110.837174
	 B(3,5,10)        =         1.938912	     111.091466
	 B(5,3,6)         =         1.890497	     108.317507
	 B(5,3,7)         =         1.906786	     109.250806
	 B(6,3,7)         =         1.875567	     107.462076
	 B(8,5,9)         =         1.892462	     108.430088
	 B(8,5,10)        =         1.886381	     108.081689
	 B(9,5,10)        =         1.880952	     107.770583
	 D(1,2,3,5)       =         2.819076	     161.521138
	*D(1,2,3,6)       =        -1.396264	     -80.000040
	 D(1,2,3,7)       =         0.677180	      38.799556
	 D(2,3,5,8)       =         0.982438	      56.289558
	 D(2,3,5,9)       =         3.081035	     176.530285
	 D(2,3,5,10)      =        -1.111432	     -63.680360
	 D(4,2,3,5)       =         0.772705	      44.272711
	 D(4,2,3,6)       =         2.840550	     162.751533
	 D(4,2,3,7)       =        -1.369191	     -78.448871
	 D(6,3,5,8)       =        -1.084304	     -62.126027
	 D(6,3,5,9)       =         1.014293	      58.114700
	 D(6,3,5,10)      =         3.105011	     177.904054
	 D(7,3,5,8)       =        -3.122345	    -178.897163
	 D(7,3,5,9)       =        -1.023748	     -58.656436
	 D(7,3,5,10)      =         1.066971	      61.132918

	Current energy   :      -134.3037720627

	Energy change for the previous step:
		Projected    :        -0.0000003116
		Actual       :        -0.0000004660
	Energy ratio indicates good step: Trust radius increased to 1.000e+00.


	Performing BFGS update.
	Previous computed or guess Hessian on step 1.
	Steps to be used in Hessian update: 3 2
	Taking RFO optimization step.
	Going to follow RFO solution 1.
	Using RFO vector 1.
	Norm of target step-size    0.00104
	Projected energy change by RFO approximation:        -0.0000000397

	Back-transformation to cartesian coordinates...
	Successfully converged to displaced geometry.

	Back-transformation to cartesian coordinates to adjust frozen coordinates...
	Successfully converged to displaced geometry.

	--- Internal Coordinate Step in ANG or DEG, aJ/ANG or AJ/DEG ---
	 ---------------------------------------------------------------------------
	   Coordinate                Previous        Force       Change         New 
	   ----------                --------       ------       ------       ------
	    1 R(1,2)          =      0.998369    -0.000187    -0.000011     0.998358
	    2 R(2,3)          =      1.457121     0.000129     0.000043     1.457164
	    3 R(2,4)          =      0.999354    -0.000259    -0.000019     0.999335
	    4 R(3,5)          =      1.520217    -0.000326    -0.000060     1.520157
	    5 R(3,6)          =      1.084459     0.000082     0.000005     1.084464
	    6 R(3,7)          =      1.088794    -0.000026    -0.000006     1.088787
	    7 R(5,8)          =      1.083520    -0.000089    -0.000016     1.083504
	    8 R(5,9)          =      1.083610    -0.000120    -0.000013     1.083597
	    9 R(5,10)         =      1.085812     0.000029    -0.000001     1.085812
	   10 B(1,2,3)        =    111.070437    -0.000002    -0.009192   111.061245
	   11 B(1,2,4)        =    106.081464     0.000000     0.000611   106.082075
	   12 B(2,3,5)        =    110.565369    -0.000002    -0.006017   110.559352
	   13 B(2,3,6)        =    108.213708     0.000001     0.006227   108.219934
	   14 B(2,3,7)        =    112.880860    -0.000001    -0.016491   112.864369
	   15 B(3,2,4)        =    110.178187    -0.000000    -0.000768   110.177419
	   16 B(3,5,8)        =    110.519008     0.000000     0.001161   110.520169
	   17 B(3,5,9)        =    110.837174    -0.000001    -0.004491   110.832683
	   18 B(3,5,10)       =    111.091466    -0.000001    -0.005586   111.085881
	   19 B(5,3,6)        =    108.317507     0.000001     0.014777   108.332284
	   20 B(5,3,7)        =    109.250806     0.000001     0.001477   109.252283
	   21 B(6,3,7)        =    107.462076    -0.000000     0.001627   107.463703
	   22 B(8,5,9)        =    108.430088     0.000001     0.007460   108.437549
	   23 B(8,5,10)       =    108.081689     0.000000     0.001916   108.083605
	   24 B(9,5,10)       =    107.770583     0.000001    -0.000035   107.770548
	   25 D(1,2,3,5)      =    161.521138    -0.000000    -0.018237   161.502901
	   26 *D(1,2,3,6)     =    -80.000040    -0.000000     0.000000   -80.000040
	   27 D(1,2,3,7)      =     38.799556    -0.000000    -0.003870    38.795686
	   28 D(2,3,5,8)      =     56.289558     0.000000    -0.001677    56.287882
	   29 D(2,3,5,9)      =    176.530285     0.000000     0.005506   176.535791
	   30 D(2,3,5,10)     =    -63.680360     0.000000    -0.001195   -63.681555
	   31 D(4,2,3,5)      =     44.272711    -0.000000    -0.012890    44.259821
	   32 D(4,2,3,6)      =    162.751533     0.000000     0.005347   162.756880
	   33 D(4,2,3,7)      =    -78.448871     0.000000     0.001477   -78.447394
	   34 D(6,3,5,8)      =    -62.126027     0.000000    -0.014707   -62.140734
	   35 D(6,3,5,9)      =     58.114700     0.000000    -0.007525    58.107175
	   36 D(6,3,5,10)     =    177.904054    -0.000000    -0.014225   177.889829
	   37 D(7,3,5,8)      =   -178.897163    -0.000000    -0.025705  -178.922868
	   38 D(7,3,5,9)      =    -58.656436    -0.000000    -0.018523   -58.674959
	   39 D(7,3,5,10)     =     61.132918    -0.000000    -0.025223    61.107695
	 ---------------------------------------------------------------------------

  ==> Convergence Check <==

  Measures of convergence in internal coordinates in au.
  Criteria marked as inactive (o), active & met (*), and active & unmet ( ).
  ---------------------------------------------------------------------------------------------
   Step     Total Energy     Delta E     MAX Force     RMS Force      MAX Disp      RMS Disp   
  ---------------------------------------------------------------------------------------------
    Convergence Criteria    1.00e-06 *    3.00e-04 *             o    1.20e-03 *             o
  ---------------------------------------------------------------------------------------------
      4    -134.30377206   -4.66e-07 *    3.95e-05 *    1.43e-05 o    4.49e-04 *    1.66e-04 o  ~
  ---------------------------------------------------------------------------------------------


  **** Optimization is complete! (in 4 steps) ****

  ==> Optimization Summary <==

  Measures of convergence in internal coordinates in au.
  --------------------------------------------------------------------------------------------------------------- ~
   Step         Total Energy             Delta E       MAX Force       RMS Force        MAX Disp        RMS Disp  ~
  --------------------------------------------------------------------------------------------------------------- ~
      1    -134.303652454627   -134.303652454627      0.00167655      0.00061674      0.04658409      0.02401780  ~
      2    -134.303763433584     -0.000110978957      0.00075653      0.00027574      0.01207904      0.00482107  ~
      3    -134.303771596618     -0.000008163034      0.00037277      0.00008537      0.00124481      0.00051726  ~
      4    -134.303772062654     -0.000000466036      0.00003953      0.00001431      0.00044864      0.00016622  ~
  --------------------------------------------------------------------------------------------------------------- ~

	Writing optimization data to binary file.
	Final energy is   -134.3037720626536
	Final (previous) structure:
	Cartesian Geometry (in Angstrom)
	    H    -2.0126722069   0.1205668395   0.2338262286
	    N    -1.1779433525  -0.3067218412  -0.1087987739
	    C    -0.0282160208   0.5698788291   0.0725840573
	    H    -1.0587952683  -1.1456323922   0.4210517402
	    C     1.2663753971  -0.2221404687  -0.0157231319
	    H    -0.0331940684   1.3048389949  -0.7248243160
	    H    -0.0538136867   1.1118191657   1.0165740969
	    H     1.3220752554  -0.7550779355  -0.9574723210
	    H     2.1255181454   0.4341131127   0.0578684593
	    H     1.3350877883  -0.9493881724   0.7876310882
	Saving final (previous) structure.
			--------------------------
			 OPTKING Finished Execution 
			--------------------------

    Final optimized geometry and variables:
    Molecular point group: c1
    Full point group: C1

    Geometry (in Angstrom), charge = 0, multiplicity = 1:

    H           -2.012672053160     0.120566830282     0.233826210741
    N           -1.177943262540    -0.306721817758    -0.108798765596
    C           -0.028216018634     0.569878785560     0.072584051732
    H           -1.058795187418    -1.145632304710     0.421051708038
    C            1.266375300397    -0.222140451751    -0.015723130700
    H           -0.033194065849     1.304838895302    -0.724824260686
    H           -0.053813682557     1.111819080772     1.016574019304
    H            1.322075154441    -0.755077877851    -0.957472247844
    H            2.125517983048     0.434113079522     0.057868454872
    H            1.335087686371    -0.949388099866     0.787631028008

	Cleaning optimization helper files.


Properties will be evaluated at   0.000000,   0.000000,   0.000000 Bohr

Properties computed using the  density matrix

  Nuclear Dipole Moment: (a.u.)
     X:     1.5261      Y:     0.1145      Z:     0.7828

  Electronic Dipole Moment: (a.u.)
     X:    -1.4885      Y:    -0.0047      Z:    -0.2705

  Dipole Moment: (a.u.)
     X:     0.0375      Y:     0.1098      Z:     0.5123     Total:     0.5253

  Dipole Moment: (Debye)
     X:     0.0954      Y:     0.2791      Z:     1.3021     Total:     1.3351

  Quadrupole Moment: (Debye Ang)
    XX:   -20.0438     YY:   -20.0423     ZZ:   -21.6333
    XY:    -0.4094     XZ:    -2.1700     YZ:    -1.1712

  Traceless Quadrupole Moment: (Debye Ang)
    XX:     0.5293     YY:     0.5308     ZZ:    -1.0601
    XY:    -0.4094     XZ:    -2.1700     YZ:    -1.1712

  Mulliken Charges: (a.u.)
   Center  Symbol    Alpha    Beta     Spin     Total
       1     H     0.43145  0.43145  0.00000  0.13711
       2     N     3.68641  3.68641  0.00000 -0.37281
       3     C     3.01472  3.01472  0.00000 -0.02943
       4     H     0.43202  0.43202  0.00000  0.13597
       5     C     3.14337  3.14337  0.00000 -0.28675
       6     H     0.46008  0.46008  0.00000  0.07984
       7     H     0.46943  0.46943  0.00000  0.06113
       8     H     0.44881  0.44881  0.00000  0.10239
       9     H     0.45292  0.45292  0.00000  0.09417
      10     H     0.46081  0.46081  0.00000  0.07839

   Total alpha = 13.00000, Total beta = 13.00000, Total charge = -0.00000


*** PSI4 exiting successfully. Buy a developer a beer!
