    -----------------------------------------------------------------------
          Psi4: An Open-Source Ab Initio Electronic Structure Package
                              Psi4 (no tag) Driver

                          Git: Rev {detached?}  

    J. M. Turney, A. C. Simmonett, R. M. Parrish, E. G. Hohenstein,
    F. A. Evangelista, J. T. Fermann, B. J. Mintz, L. A. Burns, J. J. Wilke,
    M. L. Abrams, N. J. Russ, M. L. Leininger, C. L. Janssen, E. T. Seidl,
    W. D. Allen, H. F. Schaefer, R. A. King, E. F. Valeev, C. D. Sherrill,
    and T. D. Crawford, WIREs Comput. Mol. Sci. 2, 556-565 (2012)
    (doi: 10.1002/wcms.93)

                         Additional Contributions by
    A. E. DePrince, M. Saitow, U. Bozkaya, A. Yu. Sokolov
    -----------------------------------------------------------------------


    Psi4 started on: Fri Sep  9 20:43:46 2016

    Process ID:  30175
    PSI4DATADIR: /export131/home/mjharvey/miniconda3/share
    Memory level set to 256.000 MB

  ==> Input File <==

--------------------------------------------------------------------------
set {
	reference rhf
	basis cc-pvtz
}


set_num_threads( 4 )
memory 2 gb

molecule MOL {
0 1

H	 -2.676180	 0.721373	 0.053424
O	 -2.313989	 -0.142475	 -0.025864
C	 -0.943808	 -0.065018	 -0.330000
H	 -0.812293	 -0.225641	 -1.398673
C	 -0.231030	 -1.182113	 0.407592
C	 -0.353797	 1.300461	 0.050970
H	 -0.312800	 -0.992012	 1.473041
H	 -0.738841	 -2.119564	 0.220514
C	 1.246176	 -1.268044	 -0.015480
H	 -0.539537	 2.008579	 -0.751815
H	 -0.889989	 1.662858	 0.920677
C	 1.153605	 1.231851	 0.356834
H	 1.823096	 -1.684665	 0.802361
H	 1.352335	 -1.958223	 -0.845114
C	 1.826409	 0.100723	 -0.416008
H	 1.622968	 2.181508	 0.128734
H	 1.301983	 1.066493	 1.419367
H	 2.897299	 0.112407	 -0.249665
H	 1.683458	 0.265621	 -1.480024

	symmetry c1
}
set optking {
	frozen_dihedral = ("
		1 2 3 4
	")
}

ee = optimize('scf')
oeprop('DIPOLE', 'QUADRUPOLE', 'MULLIKEN_CHARGES')
f=open( 'psi4out.xyz', 'w' )
f.write( "19  " )
f.write( str(ee) + "\n" )
f.write( MOL.save_string_xyz() )
f.close()
--------------------------------------------------------------------------

  Memory set to   2.000 GiB by Python script.
gradient() will perform analytic gradient computation.

*** tstart() called on cx1-27-1-4
*** at Fri Sep  9 20:43:46 2016


         ---------------------------------------------------------
                                   SCF
            by Justin Turney, Rob Parrish, and Andy Simmonett
                              RHF Reference
                        4 Threads,   2000 MiB Core
         ---------------------------------------------------------

  ==> Geometry <==

    Molecular point group: c1
    Full point group: C1

    Geometry (in Angstrom), charge = 0, multiplicity = 1:

       Center              X                  Y                   Z               Mass       
    ------------   -----------------  -----------------  -----------------  -----------------
           H         -2.677248752239     0.719551551056     0.048145469038     1.007825032070
           O         -2.315057752239    -0.144296448944    -0.031142530962    15.994914619560
           C         -0.944876752239    -0.066839448944    -0.335278530962    12.000000000000
           H         -0.813361752239    -0.227462448944    -1.403951530962     1.007825032070
           C         -0.232098752239    -1.183934448944     0.402313469038    12.000000000000
           C         -0.354865752239     1.298639551056     0.045691469038    12.000000000000
           H         -0.313868752239    -0.993833448944     1.467762469038     1.007825032070
           H         -0.739909752239    -2.121385448944     0.215235469038     1.007825032070
           C          1.245107247761    -1.269865448944    -0.020758530962    12.000000000000
           H         -0.540605752239     2.006757551056    -0.757093530962     1.007825032070
           H         -0.891057752239     1.661036551056     0.915398469038     1.007825032070
           C          1.152536247761     1.230029551056     0.351555469038    12.000000000000
           H          1.822027247761    -1.686486448944     0.797082469038     1.007825032070
           H          1.351266247761    -1.960044448944    -0.850392530962     1.007825032070
           C          1.825340247761     0.098901551056    -0.421286530962    12.000000000000
           H          1.621899247761     2.179686551056     0.123455469038     1.007825032070
           H          1.300914247761     1.064671551056     1.414088469038     1.007825032070
           H          2.896230247761     0.110585551056    -0.254943530962     1.007825032070
           H          1.682389247761     0.263799551056    -1.485302530962     1.007825032070

  Running in c1 symmetry.

  Rotational constants: A =      0.14168  B =      0.07597  C =      0.05538 [cm^-1]
  Rotational constants: A =   4247.37235  B =   2277.54684  C =   1660.27788 [MHz]
  Nuclear repulsion =  332.220116963795249

  Charge       = 0
  Multiplicity = 1
  Electrons    = 56
  Nalpha       = 28
  Nbeta        = 28

  ==> Algorithm <==

  SCF Algorithm Type is DF.
  DIIS enabled.
  MOM disabled.
  Fractional occupation disabled.
  Guess Type is CORE.
  Energy threshold   = 1.00e-08
  Density threshold  = 1.00e-08
  Integral threshold = 0.00e+00

  ==> Primary Basis <==

  Basis Set: CC-PVTZ
    Number of shells: 142
    Number of basis function: 378
    Number of Cartesian functions: 425
    Spherical Harmonics?: true
    Max angular momentum: 3

  ==> Pre-Iterations <==

   -------------------------------------------------------
    Irrep   Nso     Nmo     Nalpha   Nbeta   Ndocc  Nsocc
   -------------------------------------------------------
     A        378     378       0       0       0       0
   -------------------------------------------------------
    Total     378     378      28      28      28       0
   -------------------------------------------------------

 OEINTS: Overlap, kinetic, potential, dipole, and quadrupole integrals
         stored in file 35.

  ==> Integral Setup <==

  ==> DFJK: Density-Fitted J/K Matrices <==

    J tasked:                  Yes
    K tasked:                  Yes
    wK tasked:                  No
    OpenMP threads:              4
    Integrals threads:           4
    Memory (MB):              1430
    Algorithm:                Core
    Integral Cache:           NONE
    Schwarz Cutoff:          1E-12
    Fitting Condition:       1E-12

   => Auxiliary Basis Set <=

  Basis Set: 
    Number of shells: 295
    Number of basis function: 913
    Number of Cartesian functions: 1092
    Spherical Harmonics?: true
    Max angular momentum: 4

  Minimum eigenvalue in the overlap matrix is 1.3848772633E-04.
  Using Symmetric Orthogonalization.
  SCF Guess: Core (One-Electron) Hamiltonian.

  ==> Iterations <==

                           Total Energy        Delta E     RMS |[F,P]|

   @DF-RHF iter   1:  -227.60420476252079   -2.27604e+02   3.63643e-02 
   @DF-RHF iter   2:  -191.20506758575857    3.63991e+01   2.25639e-02 DIIS
   @DF-RHF iter   3:  -212.53370722581133   -2.13286e+01   2.86349e-02 DIIS
   @DF-RHF iter   4:  -289.38041160809405   -7.68467e+01   1.34235e-02 DIIS
   @DF-RHF iter   5:  -307.11745782438550   -1.77370e+01   5.56590e-03 DIIS
   @DF-RHF iter   6:  -309.06403289525963   -1.94658e+00   1.17502e-03 DIIS
   @DF-RHF iter   7:  -309.15732742655871   -9.32945e-02   1.92146e-04 DIIS
   @DF-RHF iter   8:  -309.16154976288544   -4.22234e-03   7.23992e-05 DIIS
   @DF-RHF iter   9:  -309.16202676882369   -4.77006e-04   2.73538e-05 DIIS
   @DF-RHF iter  10:  -309.16209156186790   -6.47930e-05   6.65050e-06 DIIS
   @DF-RHF iter  11:  -309.16209689772847   -5.33586e-06   2.51014e-06 DIIS
   @DF-RHF iter  12:  -309.16209760326285   -7.05534e-07   6.76961e-07 DIIS
   @DF-RHF iter  13:  -309.16209765920075   -5.59379e-08   1.76325e-07 DIIS
   @DF-RHF iter  14:  -309.16209766351983   -4.31908e-09   5.60046e-08 DIIS
   @DF-RHF iter  15:  -309.16209766398538   -4.65548e-10   1.65527e-08 DIIS
   @DF-RHF iter  16:  -309.16209766402778   -4.24052e-11   3.89421e-09 DIIS

  ==> Post-Iterations <==

    Orbital Energies (a.u.)
    -----------------------

    Doubly Occupied:                                                      

       1A    -20.542025     2A    -11.267071     3A    -11.218539  
       4A    -11.217901     5A    -11.214938     6A    -11.213114  
       7A    -11.205682     8A     -1.362895     9A     -1.111238  
      10A     -1.005414    11A     -0.989838    12A     -0.847790  
      13A     -0.839466    14A     -0.741267    15A     -0.683253  
      16A     -0.669700    17A     -0.627027    18A     -0.600543  
      19A     -0.583019    20A     -0.551077    21A     -0.528243  
      22A     -0.520978    23A     -0.502031    24A     -0.486907  
      25A     -0.469157    26A     -0.450261    27A     -0.427302  
      28A     -0.415094  

    Virtual:                                                              

      29A      0.137425    30A      0.152295    31A      0.156074  
      32A      0.173080    33A      0.191255    34A      0.202640  
      35A      0.213008    36A      0.220502    37A      0.231312  
      38A      0.239831    39A      0.255630    40A      0.265906  
      41A      0.305205    42A      0.336505    43A      0.349527  
      44A      0.370673    45A      0.385507    46A      0.387202  
      47A      0.400953    48A      0.411179    49A      0.430275  
      50A      0.440406    51A      0.452820    52A      0.468337  
      53A      0.491468    54A      0.505296    55A      0.548652  
      56A      0.558218    57A      0.564661    58A      0.580796  
      59A      0.586946    60A      0.592704    61A      0.603927  
      62A      0.612639    63A      0.621119    64A      0.625519  
      65A      0.630231    66A      0.653192    67A      0.656957  
      68A      0.665896    69A      0.676241    70A      0.678545  
      71A      0.685894    72A      0.692526    73A      0.720497  
      74A      0.723809    75A      0.736449    76A      0.750788  
      77A      0.754195    78A      0.769103    79A      0.842050  
      80A      0.845514    81A      0.870837    82A      0.884420  
      83A      0.905636    84A      0.914742    85A      0.940908  
      86A      0.977718    87A      0.995423    88A      1.003869  
      89A      1.018816    90A      1.040204    91A      1.075914  
      92A      1.090498    93A      1.107478    94A      1.130286  
      95A      1.142177    96A      1.153806    97A      1.175241  
      98A      1.198054    99A      1.220711   100A      1.230868  
     101A      1.246273   102A      1.250598   103A      1.253834  
     104A      1.280922   105A      1.294081   106A      1.300555  
     107A      1.305154   108A      1.323226   109A      1.332661  
     110A      1.347298   111A      1.349352   112A      1.368718  
     113A      1.384908   114A      1.395769   115A      1.411111  
     116A      1.422214   117A      1.431715   118A      1.457866  
     119A      1.465073   120A      1.480320   121A      1.487831  
     122A      1.493528   123A      1.502765   124A      1.520782  
     125A      1.537045   126A      1.542705   127A      1.561203  
     128A      1.575396   129A      1.586592   130A      1.591852  
     131A      1.619587   132A      1.626058   133A      1.643831  
     134A      1.662931   135A      1.676535   136A      1.688826  
     137A      1.714919   138A      1.721001   139A      1.735722  
     140A      1.744880   141A      1.754740   142A      1.807901  
     143A      1.837092   144A      1.839424   145A      1.885320  
     146A      1.895226   147A      1.915668   148A      1.942076  
     149A      1.964696   150A      1.988219   151A      2.009881  
     152A      2.093661   153A      2.131692   154A      2.212108  
     155A      2.305993   156A      2.335861   157A      2.370605  
     158A      2.480763   159A      2.588321   160A      2.597515  
     161A      2.628047   162A      2.665120   163A      2.683564  
     164A      2.708339   165A      2.728289   166A      2.740767  
     167A      2.770363   168A      2.784298   169A      2.828943  
     170A      2.841677   171A      2.854472   172A      2.873108  
     173A      2.896731   174A      2.901734   175A      2.922127  
     176A      2.944636   177A      2.951886   178A      2.965304  
     179A      2.969806   180A      2.985836   181A      2.994991  
     182A      3.005491   183A      3.025340   184A      3.050422  
     185A      3.071477   186A      3.088709   187A      3.106801  
     188A      3.118586   189A      3.153429   190A      3.176459  
     191A      3.192853   192A      3.219420   193A      3.249065  
     194A      3.253040   195A      3.259016   196A      3.273612  
     197A      3.294723   198A      3.299387   199A      3.331763  
     200A      3.349623   201A      3.361347   202A      3.368619  
     203A      3.385575   204A      3.392596   205A      3.412093  
     206A      3.415389   207A      3.437350   208A      3.443231  
     209A      3.446352   210A      3.469053   211A      3.475377  
     212A      3.485548   213A      3.496077   214A      3.506505  
     215A      3.525172   216A      3.538466   217A      3.547675  
     218A      3.551667   219A      3.563420   220A      3.575209  
     221A      3.597955   222A      3.601285   223A      3.624682  
     224A      3.641814   225A      3.662274   226A      3.677863  
     227A      3.699061   228A      3.720700   229A      3.742735  
     230A      3.760922   231A      3.773283   232A      3.788539  
     233A      3.816326   234A      3.837779   235A      3.844711  
     236A      3.870015   237A      3.889735   238A      3.905552  
     239A      3.906290   240A      3.924434   241A      3.952187  
     242A      3.966520   243A      3.978643   244A      3.991756  
     245A      4.007374   246A      4.023667   247A      4.035905  
     248A      4.051219   249A      4.066065   250A      4.072367  
     251A      4.086614   252A      4.094519   253A      4.117209  
     254A      4.133186   255A      4.139973   256A      4.148716  
     257A      4.171518   258A      4.182809   259A      4.188257  
     260A      4.208782   261A      4.231169   262A      4.237205  
     263A      4.257246   264A      4.274092   265A      4.305550  
     266A      4.312019   267A      4.330054   268A      4.346998  
     269A      4.353852   270A      4.356284   271A      4.376211  
     272A      4.389062   273A      4.395562   274A      4.403655  
     275A      4.418465   276A      4.430882   277A      4.458724  
     278A      4.478976   279A      4.491716   280A      4.504756  
     281A      4.516739   282A      4.535714   283A      4.544054  
     284A      4.558416   285A      4.574448   286A      4.592879  
     287A      4.599644   288A      4.615526   289A      4.635103  
     290A      4.638148   291A      4.651817   292A      4.661062  
     293A      4.674248   294A      4.683687   295A      4.705077  
     296A      4.710893   297A      4.719966   298A      4.755749  
     299A      4.774261   300A      4.785820   301A      4.818718  
     302A      4.843969   303A      4.905212   304A      4.929592  
     305A      4.934339   306A      4.962230   307A      4.990425  
     308A      5.001963   309A      5.051953   310A      5.075656  
     311A      5.092103   312A      5.105050   313A      5.165324  
     314A      5.188813   315A      5.204754   316A      5.229635  
     317A      5.258240   318A      5.265708   319A      5.275955  
     320A      5.285067   321A      5.334414   322A      5.346622  
     323A      5.364693   324A      5.385206   325A      5.404791  
     326A      5.419302   327A      5.428914   328A      5.437932  
     329A      5.463177   330A      5.481461   331A      5.496812  
     332A      5.525557   333A      5.561977   334A      5.589948  
     335A      5.654311   336A      5.661107   337A      5.673585  
     338A      5.702466   339A      5.719762   340A      5.740515  
     341A      5.756766   342A      5.767309   343A      5.816389  
     344A      5.847275   345A      5.886713   346A      5.902895  
     347A      5.936860   348A      5.956608   349A      5.964599  
     350A      6.013651   351A      6.051353   352A      6.108864  
     353A      6.109050   354A      6.153233   355A      6.225938  
     356A      6.235121   357A      6.355528   358A      6.385531  
     359A      6.431635   360A      6.452966   361A      6.513044  
     362A      6.539915   363A      6.759883   364A      7.096509  
     365A      7.191561   366A      7.261198   367A      7.332591  
     368A      7.475072   369A      7.595765   370A      7.813630  
     371A      8.071155   372A     12.040943   373A     12.559921  
     374A     12.941435   375A     13.209066   376A     13.623687  
     377A     13.758556   378A     14.122881  

    Final Occupation by Irrep:
              A 
    DOCC [    28 ]

  Energy converged.

  @DF-RHF Final Energy:  -309.16209766402778

   => Energetics <=

    Nuclear Repulsion Energy =            332.2201169637952489
    One-Electron Energy =               -1078.1808832285958033
    Two-Electron Energy =                 436.7986686007728849
    DFT Exchange-Correlation Energy =       0.0000000000000000
    Empirical Dispersion Energy =           0.0000000000000000
    PCM Polarization Energy =               0.0000000000000000
    EFP Energy =                            0.0000000000000000
    Total Energy =                       -309.1620976640276695

    Alert: EFP and PCM quantities not currently incorporated into SCF psivars.

Properties will be evaluated at   0.000000,   0.000000,   0.000000 Bohr
  ==> Properties <==


Properties computed using the SCF density matrix

  Nuclear Dipole Moment: (a.u.)
     X:     4.3937      Y:     0.9526      Z:     0.2150

  Electronic Dipole Moment: (a.u.)
     X:    -3.9729      Y:    -0.3985      Z:    -0.2544

  Dipole Moment: (a.u.)
     X:     0.4208      Y:     0.5541      Z:    -0.0395     Total:     0.6969

  Dipole Moment: (Debye)
     X:     1.0695      Y:     1.4085      Z:    -0.1003     Total:     1.7714


  Saving occupied orbitals to File 180.

*** tstop() called on cx1-27-1-4 at Fri Sep  9 20:44:06 2016
Module time:
	user time   =      65.40 seconds =       1.09 minutes
	system time =       0.92 seconds =       0.02 minutes
	total time  =         20 seconds =       0.33 minutes
Total time:
	user time   =      65.40 seconds =       1.09 minutes
	system time =       0.92 seconds =       0.02 minutes
	total time  =         20 seconds =       0.33 minutes

*** tstart() called on cx1-27-1-4
*** at Fri Sep  9 20:44:06 2016


         ------------------------------------------------------------
                                   SCF GRAD                          
                          Rob Parrish, Justin Turney,                
                       Andy Simmonett, and Alex Sokolov              
         ------------------------------------------------------------

  ==> Geometry <==

    Molecular point group: c1
    Full point group: C1

    Geometry (in Angstrom), charge = 0, multiplicity = 1:

       Center              X                  Y                   Z               Mass       
    ------------   -----------------  -----------------  -----------------  -----------------
           H         -2.677248752239     0.719551551056     0.048145469038     1.007825032070
           O         -2.315057752239    -0.144296448944    -0.031142530962    15.994914619560
           C         -0.944876752239    -0.066839448944    -0.335278530962    12.000000000000
           H         -0.813361752239    -0.227462448944    -1.403951530962     1.007825032070
           C         -0.232098752239    -1.183934448944     0.402313469038    12.000000000000
           C         -0.354865752239     1.298639551056     0.045691469038    12.000000000000
           H         -0.313868752239    -0.993833448944     1.467762469038     1.007825032070
           H         -0.739909752239    -2.121385448944     0.215235469038     1.007825032070
           C          1.245107247761    -1.269865448944    -0.020758530962    12.000000000000
           H         -0.540605752239     2.006757551056    -0.757093530962     1.007825032070
           H         -0.891057752239     1.661036551056     0.915398469038     1.007825032070
           C          1.152536247761     1.230029551056     0.351555469038    12.000000000000
           H          1.822027247761    -1.686486448944     0.797082469038     1.007825032070
           H          1.351266247761    -1.960044448944    -0.850392530962     1.007825032070
           C          1.825340247761     0.098901551056    -0.421286530962    12.000000000000
           H          1.621899247761     2.179686551056     0.123455469038     1.007825032070
           H          1.300914247761     1.064671551056     1.414088469038     1.007825032070
           H          2.896230247761     0.110585551056    -0.254943530962     1.007825032070
           H          1.682389247761     0.263799551056    -1.485302530962     1.007825032070

  Nuclear repulsion =  332.220116963795249

  ==> Basis Set <==

  Basis Set: CC-PVTZ
    Number of shells: 142
    Number of basis function: 378
    Number of Cartesian functions: 425
    Spherical Harmonics?: true
    Max angular momentum: 3

  ==> DFJKGrad: Density-Fitted SCF Gradients <==

    Gradient:                    1
    J tasked:                  Yes
    K tasked:                  Yes
    wK tasked:                  No
    OpenMP threads:              4
    Integrals threads:           4
    Memory (MB):              1430
    Schwarz Cutoff:          0E+00
    Fitting Condition:       1E-12

   => Auxiliary Basis Set <=

  Basis Set: 
    Number of shells: 295
    Number of basis function: 913
    Number of Cartesian functions: 1092
    Spherical Harmonics?: true
    Max angular momentum: 4


  -Total Gradient:
     Atom            X                  Y                   Z
    ------   -----------------  -----------------  -----------------
       1        0.000914927512     0.001823239059     0.001925759311
       2        0.001562872912    -0.002909507355     0.000463742200
       3       -0.001002140171     0.001046708728    -0.002503275146
       4        0.001551000966    -0.000808174700    -0.000463325595
       5       -0.002615054829    -0.000084061427     0.000707191348
       6       -0.000539280192     0.000882388515     0.002359328767
       7        0.000131388101    -0.000039147463    -0.000052169979
       8        0.000137439363     0.000007896587    -0.000001440951
       9        0.000024053916     0.000754462209    -0.000004105865
      10        0.000173046838     0.000431365974    -0.000268333758
      11       -0.000671589880    -0.000926304927    -0.001591513733
      12        0.000021001877    -0.000169849451    -0.000773332023
      13       -0.000149225853     0.000026644482     0.000042287819
      14       -0.000146708406    -0.000050472085     0.000022898965
      15        0.000328239802     0.000236982574     0.000270216258
      16        0.000207590606    -0.000007205505     0.000041655403
      17       -0.000014076423     0.000016776303     0.000043888776
      18        0.000086901324    -0.000196271543    -0.000115283541
      19       -0.000000387463    -0.000035469973    -0.000104188255


*** tstop() called on cx1-27-1-4 at Fri Sep  9 20:44:37 2016
Module time:
	user time   =     120.07 seconds =       2.00 minutes
	system time =       0.73 seconds =       0.01 minutes
	total time  =         31 seconds =       0.52 minutes
Total time:
	user time   =     185.48 seconds =       3.09 minutes
	system time =       1.65 seconds =       0.03 minutes
	total time  =         51 seconds =       0.85 minutes
CURRENT ENERGY: -309.1620976640

			-----------------------------------------
			 OPTKING 2.0: for geometry optimizations 
			  - R.A. King,  Bethel University        
			-----------------------------------------

	Internal coordinates to be generated automatically.
	Detected frag with atoms:  1 2 3 4 5 6 7 8 9 10 11 12 13 14 15 16 17 18 19
	---Fragment 1 Bond Connectivity---
	 1 : 2
	 2 : 1 3
	 3 : 2 4 5 6
	 4 : 3
	 5 : 3 7 8 9
	 6 : 3 10 11 12
	 7 : 5
	 8 : 5
	 9 : 5 13 14 15
	 10 : 6
	 11 : 6
	 12 : 6 15 16 17
	 13 : 9
	 14 : 9
	 15 : 9 12 18 19
	 16 : 12
	 17 : 12
	 18 : 15
	 19 : 15

	Assuming in current code that numbering for constraints corresponds to unified fragment.
	Frozen dihedral atom list: 
	     1     2     3     4
	---Fragment 1 Geometry and Gradient---
	 H          -5.0592669313        1.3597553700        0.0909817510
	 O          -4.3748251335       -0.2726807705       -0.0588508546
	 C          -1.7855582911       -0.1263082534       -0.6335846018
	 H          -1.5370309587       -0.4298417340       -2.6530838974
	 C          -0.4386030775       -2.2373118678        0.7602622761
	 C          -0.6705990857        2.4540730968        0.0863443631
	 H          -0.5931259834       -1.8780730402        2.7736690946
	 H          -1.3982267948       -4.0088375208        0.4067360906
	 C           2.3529117043       -2.3996979241       -0.0392279384
	 H          -1.0215968176        3.7922221866       -1.4306994305
	 H          -1.6838551203        3.1389041782        1.7298524089
	 C           2.1779778665        2.3244189869        0.6643435570
	 H           3.4431325049       -3.1869975153        1.5062675718
	 H           2.5535231409       -3.7039472168       -1.6070089890
	 C           3.4493931676        0.1868968456       -0.7961161670
	 H           3.0649453934        4.1190106370        0.2332970261
	 H           2.4583716506        2.0119376530        2.6722399342
	 H           5.4730819860        0.2089764057       -0.4817734529
	 H           3.1792549272        0.4985089055       -2.8068150080
	             0.0009149275        0.0018232391        0.0019257593
	             0.0015628729       -0.0029095074        0.0004637422
	            -0.0010021402        0.0010467087       -0.0025032751
	             0.0015510010       -0.0008081747       -0.0004633256
	            -0.0026150548       -0.0000840614        0.0007071913
	            -0.0005392802        0.0008823885        0.0023593288
	             0.0001313881       -0.0000391475       -0.0000521700
	             0.0001374394        0.0000078966       -0.0000014410
	             0.0000240539        0.0007544622       -0.0000041059
	             0.0001730468        0.0004313660       -0.0002683338
	            -0.0006715899       -0.0009263049       -0.0015915137
	             0.0000210019       -0.0001698495       -0.0007733320
	            -0.0001492259        0.0000266445        0.0000422878
	            -0.0001467084       -0.0000504721        0.0000228990
	             0.0003282398        0.0002369826        0.0002702163
	             0.0002075906       -0.0000072055        0.0000416554
	            -0.0000140764        0.0000167763        0.0000438888
	             0.0000869013       -0.0001962715       -0.0001152835
	            -0.0000003875       -0.0000354700       -0.0001041883

	Previous optimization step data not found.  Starting new optimization.

	---Fragment 1 Intrafragment Coordinates---
	 - Coordinate -           - BOHR/RAD -       - ANG/DEG -
	 R(1,2)           =         1.776445	       0.940054
	 R(2,3)           =         2.656322	       1.405665
	 R(3,4)           =         2.057250	       1.088650
	 R(3,5)           =         2.865909	       1.516574
	 R(3,6)           =         2.901689	       1.535508
	 R(5,7)           =         2.051033	       1.085360
	 R(5,8)           =         2.045522	       1.082444
	 R(5,9)           =         2.908283	       1.538997
	 R(6,10)          =         2.053111	       1.086460
	 R(6,11)          =         2.048609	       1.084077
	 R(6,12)          =         2.909516	       1.539650
	 R(9,13)          =         2.048653	       1.084100
	 R(9,14)          =         2.049207	       1.084394
	 R(9,15)          =         2.909575	       1.539681
	 R(12,15)         =         2.884171	       1.526237
	 R(12,16)         =         2.047699	       1.083596
	 R(12,17)         =         2.051320	       1.085512
	 R(15,18)         =         2.048076	       1.083795
	 R(15,19)         =         2.052556	       1.086166
	 B(1,2,3)         =         1.921090	     110.070361
	 B(2,3,4)         =         1.898659	     108.785138
	 B(2,3,5)         =         1.888420	     108.198469
	 B(2,3,6)         =         1.949660	     111.707318
	 B(3,5,7)         =         1.889156	     108.240669
	 B(3,5,8)         =         1.910682	     109.474040
	 B(3,5,9)         =         1.937511	     111.011226
	 B(3,6,10)        =         1.907714	     109.303944
	 B(3,6,11)        =         1.882068	     107.834541
	 B(3,6,12)        =         1.966934	     112.697001
	 B(4,3,5)         =         1.888065	     108.178162
	 B(4,3,6)         =         1.905343	     109.168103
	 B(5,3,6)         =         1.932393	     110.717935
	 B(5,9,13)        =         1.901672	     108.957800
	 B(5,9,14)        =         1.917524	     109.866023
	 B(5,9,15)        =         1.964484	     112.556637
	 B(6,12,15)       =         1.943381	     111.347501
	 B(6,12,16)       =         1.921127	     110.072497
	 B(6,12,17)       =         1.912473	     109.576650
	 B(7,5,8)         =         1.860850	     106.618844
	 B(7,5,9)         =         1.930452	     110.606747
	 B(8,5,9)         =         1.933101	     110.758546
	 B(9,15,12)       =         1.940137	     111.161684
	 B(9,15,18)       =         1.919865	     110.000181
	 B(9,15,19)       =         1.917924	     109.888961
	 B(10,6,11)       =         1.865389	     106.878890
	 B(10,6,12)       =         1.921130	     110.072621
	 B(11,6,12)       =         1.917468	     109.862826
	 B(12,15,18)      =         1.928226	     110.479221
	 B(12,15,19)      =         1.902350	     108.996632
	 B(13,9,14)       =         1.855082	     106.288372
	 B(13,9,15)       =         1.914886	     109.714897
	 B(14,9,15)       =         1.906993	     109.262638
	 B(15,12,16)      =         1.930479	     110.608320
	 B(15,12,17)      =         1.899165	     108.814121
	 B(16,12,17)      =         1.854947	     106.280623
	 B(18,15,19)      =         1.853298	     106.186144
	*D(1,2,3,4)       =        -1.745329	    -100.000007
	 D(1,2,3,5)       =         2.490530	     142.696865
	 D(1,2,3,6)       =         0.359134	      20.576868
	 D(2,3,5,7)       =        -1.143456	     -65.515187
	 D(2,3,5,8)       =         0.878431	      50.330375
	 D(2,3,5,9)       =         3.017919	     172.914026
	 D(2,3,6,10)      =        -1.464390	     -83.903338
	 D(2,3,6,11)      =         0.557411	      31.937292
	 D(2,3,6,12)      =         2.676751	     153.366514
	 D(3,5,9,13)      =         2.662824	     152.568574
	 D(3,5,9,14)      =        -1.594591	     -91.363332
	 D(3,5,9,15)      =         0.534705	      30.636330
	 D(3,6,12,15)     =         0.495872	      28.411346
	 D(3,6,12,16)     =         2.643246	     151.446853
	 D(3,6,12,17)     =        -1.606036	     -92.019060
	 D(4,3,5,7)       =         3.085601	     176.791930
	 D(4,3,5,8)       =        -1.175698	     -67.362508
	 D(4,3,5,9)       =         0.963791	      55.221143
	 D(4,3,6,10)      =         0.636167	      36.449657
	 D(4,3,6,11)      =         2.657967	     152.290287
	 D(4,3,6,12)      =        -1.505879	     -86.280491
	 D(5,3,6,10)      =         2.712863	     155.435617
	 D(5,3,6,11)      =        -1.548522	     -88.723753
	 D(5,3,6,12)      =         0.570818	      32.705470
	 D(5,9,15,12)     =         0.532025	      30.482790
	 D(5,9,15,18)     =         2.673426	     153.176020
	 D(5,9,15,19)     =        -1.575394	     -90.263447
	 D(6,3,5,7)       =         0.998492	      57.209398
	 D(6,3,5,8)       =         3.020379	     173.054960
	 D(6,3,5,9)       =        -1.123318	     -64.361390
	 D(6,12,15,9)     =        -1.080403	     -61.902510
	 D(6,12,15,18)    =         3.066211	     175.680928
	 D(6,12,15,19)    =         1.036163	      59.367789
	 D(7,5,9,13)      =         0.565373	      32.393471
	 D(7,5,9,14)      =         2.591143	     148.461566
	 D(7,5,9,15)      =        -1.562746	     -89.538772
	 D(8,5,9,13)      =        -1.493908	     -85.594605
	 D(8,5,9,14)      =         0.531863	      30.473490
	 D(8,5,9,15)      =         2.661159	     152.473152
	 D(9,15,12,16)    =         3.060771	     175.369243
	 D(9,15,12,17)    =         1.029322	      58.975818
	 D(10,6,12,15)    =        -1.638642	     -93.887295
	 D(10,6,12,16)    =         0.508732	      29.148211
	 D(10,6,12,17)    =         2.542636	     145.682298
	 D(11,6,12,15)    =         2.594977	     148.681242
	 D(11,6,12,16)    =        -1.540833	     -88.283251
	 D(11,6,12,17)    =         0.493070	      28.250836
	 D(12,15,9,13)    =        -1.588591	     -91.019582
	 D(12,15,9,14)    =         2.667271	     152.823361
	 D(13,9,15,18)    =         0.552809	      31.673648
	 D(13,9,15,19)    =         2.587175	     148.234182
	 D(14,9,15,18)    =        -1.474514	     -84.483409
	 D(14,9,15,19)    =         0.559851	      32.077125
	 D(16,12,15,18)   =         0.924199	      52.952681
	 D(16,12,15,19)   =        -1.105849	     -63.360457
	 D(17,12,15,18)   =        -1.107250	     -63.440744
	 D(17,12,15,19)   =        -3.137297	    -179.753882

	Current energy   :      -309.1620976640

	Generating empirical Hessian (Schlegel '84) for each fragment.
	Taking RFO optimization step.
	Going to follow RFO solution 1.
	Using RFO vector 1.
	Norm of target step-size    0.14428
	Projected energy change by RFO approximation:        -0.0023683750

	Back-transformation to cartesian coordinates...
	Successfully converged to displaced geometry.

	Back-transformation to cartesian coordinates to adjust frozen coordinates...
	Successfully converged to displaced geometry.

	--- Internal Coordinate Step in ANG or DEG, aJ/ANG or AJ/DEG ---
	 ---------------------------------------------------------------------------
	   Coordinate                Previous        Force       Change         New 
	   ----------                --------       ------       ------       ------
	    1 R(1,2)          =      0.940054    -0.012237    -0.001309     0.938745
	    2 R(2,3)          =      1.405665     0.015146     0.002175     1.407840
	    3 R(3,4)          =      1.088650    -0.006273    -0.001151     1.087499
	    4 R(3,5)          =      1.516574     0.011190     0.001679     1.518253
	    5 R(3,6)          =      1.535508     0.000949    -0.000318     1.535190
	    6 R(5,7)          =      1.085360     0.000560     0.000102     1.085462
	    7 R(5,8)          =      1.082444     0.000586     0.000105     1.082549
	    8 R(5,9)          =      1.538997    -0.000569     0.000099     1.539096
	    9 R(6,10)         =      1.086460    -0.003706    -0.000675     1.085785
	   10 R(6,11)         =      1.084077     0.010334     0.001867     1.085945
	   11 R(6,12)         =      1.539650    -0.001838    -0.000400     1.539250
	   12 R(9,13)         =      1.084100     0.000476     0.000086     1.084186
	   13 R(9,14)         =      1.084394    -0.000002    -0.000000     1.084393
	   14 R(9,15)         =      1.539681    -0.002131     0.000324     1.540004
	   15 R(12,15)        =      1.526237     0.000571     0.000307     1.526545
	   16 R(12,16)        =      1.083596    -0.000617    -0.000111     1.083485
	   17 R(12,17)        =      1.085512    -0.000317    -0.000058     1.085454
	   18 R(15,18)        =      1.083795    -0.000544    -0.000098     1.083697
	   19 R(15,19)        =      1.086166    -0.000797    -0.000145     1.086021
	   20 B(1,2,3)        =    110.070361     0.000156     0.733232   110.803593
	   21 B(2,3,4)        =    108.785138    -0.000126    -1.360338   107.424800
	   22 B(2,3,5)        =    108.198469     0.000124     1.205007   109.403475
	   23 B(2,3,6)        =    111.707318     0.000051     0.817804   112.525122
	   24 B(3,5,7)        =    108.240669    -0.000022    -0.010944   108.229725
	   25 B(3,5,8)        =    109.474040    -0.000036    -0.063161   109.410880
	   26 B(3,5,9)        =    111.011226     0.000079    -0.037504   110.973722
	   27 B(3,6,10)       =    109.303944    -0.000033    -0.049627   109.254317
	   28 B(3,6,11)       =    107.834541     0.000055     0.536124   108.370664
	   29 B(3,6,12)       =    112.697001     0.000045    -0.097167   112.599834
	   30 B(4,3,5)        =    108.178162    -0.000020    -0.683342   107.494820
	   31 B(4,3,6)        =    109.168103     0.000050     0.067270   109.235373
	   32 B(5,3,6)        =    110.717935    -0.000083    -0.135253   110.582683
	   33 B(5,9,13)       =    108.957800     0.000020     0.140603   109.098403
	   34 B(5,9,14)       =    109.866023     0.000020     0.073923   109.939946
	   35 B(5,9,15)       =    112.556637    -0.000045    -0.196023   112.360614
	   36 B(6,12,15)      =    111.347501     0.000009     0.023146   111.370647
	   37 B(6,12,16)      =    110.072497    -0.000017    -0.094924   109.977574
	   38 B(6,12,17)      =    109.576650     0.000004     0.011179   109.587830
	   39 B(7,5,8)        =    106.618844     0.000011    -0.010521   106.608324
	   40 B(7,5,9)        =    110.606747    -0.000015     0.134126   110.740873
	   41 B(8,5,9)        =    110.758546    -0.000019    -0.012207   110.746339
	   42 B(9,15,12)      =    111.161684     0.000015     0.071348   111.233032
	   43 B(9,15,18)      =    110.000181     0.000002     0.026870   110.027050
	   44 B(9,15,19)      =    109.888961    -0.000000     0.037453   109.926414
	   45 B(10,6,11)      =    106.878890     0.000014     0.109213   106.988103
	   46 B(10,6,12)      =    110.072621     0.000001     0.201556   110.274178
	   47 B(11,6,12)      =    109.862826    -0.000082    -0.684273   109.178553
	   48 B(12,15,18)     =    110.479221    -0.000018    -0.158481   110.320740
	   49 B(12,15,19)     =    108.996632    -0.000004     0.004470   109.001102
	   50 B(13,9,14)      =    106.288372    -0.000009    -0.000421   106.287951
	   51 B(13,9,15)      =    109.714897     0.000003     0.039577   109.754474
	   52 B(14,9,15)      =    109.262638     0.000013    -0.045972   109.216666
	   53 B(15,12,16)     =    110.608320    -0.000003     0.065438   110.673758
	   54 B(15,12,17)     =    108.814121     0.000003    -0.030321   108.783801
	   55 B(16,12,17)     =    106.280623     0.000003     0.025981   106.306604
	   56 B(18,15,19)     =    106.186144     0.000004     0.015742   106.201886
	   57 *D(1,2,3,4)     =   -100.000007    -0.000000    -0.000000  -100.000007
	   58 D(1,2,3,5)      =    142.696865     0.000006     0.905426   143.602291
	   59 D(1,2,3,6)      =     20.576868     0.000003    -0.313389    20.263479
	   60 D(2,3,5,7)      =    -65.515187    -0.000012    -2.045943   -67.561130
	   61 D(2,3,5,8)      =     50.330375    -0.000016    -2.098388    48.231987
	   62 D(2,3,5,9)      =    172.914026    -0.000016    -2.181631   170.732395
	   63 D(2,3,6,10)     =    -83.903338     0.000020     2.935363   -80.967976
	   64 D(2,3,6,11)     =     31.937292     0.000027     3.332777    35.270069
	   65 D(2,3,6,12)     =    153.366514     0.000018     2.779368   156.145882
	   66 D(3,5,9,13)     =    152.568574     0.000001    -0.212941   152.355633
	   67 D(3,5,9,14)     =    -91.363332     0.000004    -0.091437   -91.454768
	   68 D(3,5,9,15)     =     30.636330     0.000004    -0.231726    30.404604
	   69 D(3,6,12,15)    =     28.411346    -0.000001    -0.646170    27.765177
	   70 D(3,6,12,16)    =    151.446853    -0.000003    -0.613520   150.833333
	   71 D(3,6,12,17)    =    -92.019060    -0.000004    -0.630504   -92.649563
	   72 D(4,3,5,7)      =    176.791930     0.000009    -0.706348   176.085582
	   73 D(4,3,5,8)      =    -67.362508     0.000005    -0.758793   -68.121302
	   74 D(4,3,5,9)      =     55.221143     0.000006    -0.842036    54.379106
	   75 D(4,3,6,10)     =     36.449657    -0.000001     1.795795    38.245451
	   76 D(4,3,6,11)     =    152.290287     0.000006     2.193210   154.483496
	   77 D(4,3,6,12)     =    -86.280491    -0.000003     1.639800   -84.640690
	   78 D(5,3,6,10)     =    155.435617    -0.000011     0.918051   156.353668
	   79 D(5,3,6,11)     =    -88.723753    -0.000005     1.315465   -87.408287
	   80 D(5,3,6,12)     =     32.705470    -0.000013     0.762056    33.467526
	   81 D(5,9,15,12)    =     30.482790     0.000001     0.394397    30.877187
	   82 D(5,9,15,18)    =    153.176020    -0.000002     0.260277   153.436297
	   83 D(5,9,15,19)    =    -90.263447    -0.000000     0.317236   -89.946210
	   84 D(6,3,5,7)      =     57.209398     0.000010    -0.290253    56.919144
	   85 D(6,3,5,8)      =    173.054960     0.000005    -0.342699   172.712261
	   86 D(6,3,5,9)      =    -64.361390     0.000006    -0.425942   -64.787331
	   87 D(6,12,15,9)    =    -61.902510    -0.000003    -0.052637   -61.955147
	   88 D(6,12,15,18)   =    175.680928    -0.000004    -0.025641   175.655287
	   89 D(6,12,15,19)   =     59.367789    -0.000002     0.042679    59.410469
	   90 D(7,5,9,13)     =     32.393471    -0.000002    -0.263427    32.130044
	   91 D(7,5,9,14)     =    148.461566     0.000000    -0.141923   148.319643
	   92 D(7,5,9,15)     =    -89.538772     0.000001    -0.282213   -89.820985
	   93 D(8,5,9,13)     =    -85.594605    -0.000000    -0.327199   -85.921804
	   94 D(8,5,9,14)     =     30.473490     0.000002    -0.205695    30.267795
	   95 D(8,5,9,15)     =    152.473152     0.000002    -0.345985   152.127167
	   96 D(9,15,12,16)   =    175.369243     0.000001     0.006560   175.375803
	   97 D(9,15,12,17)   =     58.975818    -0.000000    -0.044111    58.931707
	   98 D(10,6,12,15)   =    -93.887295     0.000002    -0.660643   -94.547939
	   99 D(10,6,12,16)   =     29.148211    -0.000001    -0.627993    28.520218
	  100 D(10,6,12,17)   =    145.682298    -0.000001    -0.644977   145.037321
	  101 D(11,6,12,15)   =    148.681242     0.000009    -0.503815   148.177427
	  102 D(11,6,12,16)   =    -88.283251     0.000007    -0.471165   -88.754416
	  103 D(11,6,12,17)   =     28.250836     0.000006    -0.488149    27.762687
	  104 D(12,15,9,13)   =    -91.019582     0.000001     0.319441   -90.700141
	  105 D(12,15,9,14)   =    152.823361     0.000002     0.323839   153.147200
	  106 D(13,9,15,18)   =     31.673648    -0.000001     0.185321    31.858970
	  107 D(13,9,15,19)   =    148.234182     0.000000     0.242280   148.476462
	  108 D(14,9,15,18)   =    -84.483409    -0.000001     0.189719   -84.293690
	  109 D(14,9,15,19)   =     32.077125     0.000001     0.246678    32.323803
	  110 D(16,12,15,18)  =     52.952681     0.000001     0.033556    52.986237
	  111 D(16,12,15,19)  =    -63.360457     0.000002     0.101876   -63.258581
	  112 D(17,12,15,18)  =    -63.440744    -0.000000    -0.017116   -63.457859
	  113 D(17,12,15,19)  =   -179.753882     0.000001     0.051205  -179.702678
	 ---------------------------------------------------------------------------

  ==> Convergence Check <==

  Measures of convergence in internal coordinates in au.
  Criteria marked as inactive (o), active & met (*), and active & unmet ( ).
  --------------------------------------------------------------------------------------------- ~
   Step     Total Energy     Delta E     MAX Force     RMS Force      MAX Disp      RMS Disp    ~
  --------------------------------------------------------------------------------------------- ~
    Convergence Criteria    1.00e-06 *    3.00e-04 *             o    1.20e-03 *             o  ~
  --------------------------------------------------------------------------------------------- ~
      1    -309.16209766   -3.09e+02      2.05e-03      5.66e-04 o    5.82e-02      1.36e-02 o  ~
  ---------------------------------------------------------------------------------------------

	Writing optimization data to binary file.
	Structure for next step:
	Cartesian Geometry (in Angstrom)
	    H    -2.7034666142   0.7127576116  -0.0051483623
	    O    -2.3260455182  -0.1442128542  -0.0714620688
	    C    -0.9435774450  -0.0634668239  -0.3249874094
	    H    -0.7976481517  -0.2279839665  -1.3900189983
	    C    -0.2294564849  -1.1825348032   0.4117696675
	    C    -0.3533911484   1.2999691919   0.0617040622
	    H    -0.3082645185  -0.9919048397   1.4774509418
	    H    -0.7403294825  -2.1187620457   0.2262976239
	    C     1.2456161604  -1.2718275234  -0.0183502398
	    H    -0.5522682756   2.0141917188  -0.7315564144
	    H    -0.8698180543   1.6576498697   0.9475051706
	    C     1.1569341324   1.2303504134   0.3504269126
	    H     1.8285291533  -1.6849455995   0.7971288542
	    H     1.3480465018  -1.9641653240  -0.8466528100
	    C     1.8203855878   0.0969715973  -0.4277915807
	    H     1.6229208578   2.1798188716   0.1152571563
	    H     1.3174353438   1.0665731705   1.4113827417
	    H     2.8927358540   0.1108316584  -0.2719970283
	    H     1.6664211970   0.2602012217  -1.4903792902
			--------------------------
			 OPTKING Finished Execution 
			--------------------------

    Structure for next step:
    Molecular point group: c1
    Full point group: C1

    Geometry (in Angstrom), charge = 0, multiplicity = 1:

    H           -2.702410697652     0.712467101938    -0.002464437180
    O           -2.324989630495    -0.144503298333    -0.068778138616
    C           -0.942521662856    -0.063757274245    -0.322303459910
    H           -0.796592380750    -0.228274404251    -1.387334967497
    C           -0.228400757332    -1.182825168063     0.414453560743
    C           -0.352335411333     1.299678637433     0.064387982181
    H           -0.307208784932    -0.992195219147     1.480134753652
    H           -0.739273715888    -2.119052339090     0.228981531359
    C            1.246671775307    -1.272117881496    -0.015666313688
    H           -0.551212523390     2.013901109774    -0.728872433862
    H           -0.868762277801     1.657359287936     0.950189022966
    C            1.157989754061     1.230059864248     0.353110810498
    H            1.829584723718    -1.685235925998     0.799812717994
    H            1.349102108955    -1.964455629213    -0.843968820639
    C            1.821441158824     0.096681134703    -0.425107623319
    H            1.623976443932     2.179528249987     0.117941072209
    H            1.318490953247     1.066282633862     1.414066558647
    H            2.893791343157     0.110541194726    -0.269313082809
    H            1.667476779785     0.259910746661    -1.487695251638

gradient() will perform analytic gradient computation.

*** tstart() called on cx1-27-1-4
*** at Fri Sep  9 20:44:38 2016


         ---------------------------------------------------------
                                   SCF
            by Justin Turney, Rob Parrish, and Andy Simmonett
                              RHF Reference
                        4 Threads,   2000 MiB Core
         ---------------------------------------------------------

  ==> Geometry <==

    Molecular point group: c1
    Full point group: C1

    Geometry (in Angstrom), charge = 0, multiplicity = 1:

       Center              X                  Y                   Z               Mass       
    ------------   -----------------  -----------------  -----------------  -----------------
           H         -2.702410697652     0.712467101938    -0.002464437180     1.007825032070
           O         -2.324989630495    -0.144503298333    -0.068778138616    15.994914619560
           C         -0.942521662856    -0.063757274245    -0.322303459910    12.000000000000
           H         -0.796592380750    -0.228274404251    -1.387334967497     1.007825032070
           C         -0.228400757332    -1.182825168063     0.414453560743    12.000000000000
           C         -0.352335411333     1.299678637433     0.064387982181    12.000000000000
           H         -0.307208784932    -0.992195219147     1.480134753652     1.007825032070
           H         -0.739273715888    -2.119052339090     0.228981531359     1.007825032070
           C          1.246671775307    -1.272117881496    -0.015666313688    12.000000000000
           H         -0.551212523390     2.013901109774    -0.728872433862     1.007825032070
           H         -0.868762277801     1.657359287936     0.950189022966     1.007825032070
           C          1.157989754061     1.230059864248     0.353110810498    12.000000000000
           H          1.829584723718    -1.685235925998     0.799812717994     1.007825032070
           H          1.349102108955    -1.964455629213    -0.843968820639     1.007825032070
           C          1.821441158824     0.096681134703    -0.425107623319    12.000000000000
           H          1.623976443932     2.179528249987     0.117941072209     1.007825032070
           H          1.318490953247     1.066282633862     1.414066558647     1.007825032070
           H          2.893791343157     0.110541194726    -0.269313082809     1.007825032070
           H          1.667476779785     0.259910746661    -1.487695251638     1.007825032070

  Running in c1 symmetry.

  Rotational constants: A =      0.14136  B =      0.07565  C =      0.05523 [cm^-1]
  Rotational constants: A =   4237.97906  B =   2268.06724  C =   1655.88005 [MHz]
  Nuclear repulsion =  331.914928151286915

  Charge       = 0
  Multiplicity = 1
  Electrons    = 56
  Nalpha       = 28
  Nbeta        = 28

  ==> Algorithm <==

  SCF Algorithm Type is DF.
  DIIS enabled.
  MOM disabled.
  Fractional occupation disabled.
  Guess Type is READ.
  Energy threshold   = 1.00e-08
  Density threshold  = 1.00e-08
  Integral threshold = 0.00e+00

  ==> Primary Basis <==

  Basis Set: CC-PVTZ
    Number of shells: 142
    Number of basis function: 378
    Number of Cartesian functions: 425
    Spherical Harmonics?: true
    Max angular momentum: 3

  ==> Pre-Iterations <==

   -------------------------------------------------------
    Irrep   Nso     Nmo     Nalpha   Nbeta   Ndocc  Nsocc
   -------------------------------------------------------
     A        378     378       0       0       0       0
   -------------------------------------------------------
    Total     378     378      28      28      28       0
   -------------------------------------------------------

 OEINTS: Overlap, kinetic, potential, dipole, and quadrupole integrals
         stored in file 35.

  ==> Integral Setup <==

  ==> DFJK: Density-Fitted J/K Matrices <==

    J tasked:                  Yes
    K tasked:                  Yes
    wK tasked:                  No
    OpenMP threads:              4
    Integrals threads:           4
    Memory (MB):              1430
    Algorithm:                Core
    Integral Cache:           NONE
    Schwarz Cutoff:          1E-12
    Fitting Condition:       1E-12

   => Auxiliary Basis Set <=

  Basis Set: 
    Number of shells: 295
    Number of basis function: 913
    Number of Cartesian functions: 1092
    Spherical Harmonics?: true
    Max angular momentum: 4

  Minimum eigenvalue in the overlap matrix is 1.3902944670E-04.
  Using Symmetric Orthogonalization.
  SCF Guess: Reading in previously saved MOs, projecting if necessary.

  Using orbitals from previous SCF, no projection.
  Recomputing DOCC and SOCC from number of alpha and beta electrons from previous calculation.
              A 
    DOCC [    28 ]

  ==> Iterations <==

                           Total Energy        Delta E     RMS |[F,P]|

   @DF-RHF iter   0:  -309.16043402788108   -3.09160e+02   1.60952e-04 
   @DF-RHF iter   1:  -309.16210638944193   -1.67236e-03   2.50640e-05 
   @DF-RHF iter   2:  -309.16218872754399   -8.23381e-05   9.41408e-06 DIIS
   @DF-RHF iter   3:  -309.16220301356083   -1.42860e-05   3.79959e-06 DIIS
   @DF-RHF iter   4:  -309.16220430418383   -1.29062e-06   9.23732e-07 DIIS
   @DF-RHF iter   5:  -309.16220443848914   -1.34305e-07   3.35912e-07 DIIS
   @DF-RHF iter   6:  -309.16220445474374   -1.62546e-08   1.04296e-07 DIIS
   @DF-RHF iter   7:  -309.16220445640596   -1.66222e-09   2.33825e-08 DIIS
   @DF-RHF iter   8:  -309.16220445649805   -9.20863e-11   6.60387e-09 DIIS

  ==> Post-Iterations <==

    Orbital Energies (a.u.)
    -----------------------

    Doubly Occupied:                                                      

       1A    -20.541761     2A    -11.267256     3A    -11.218607  
       4A    -11.217912     5A    -11.214901     6A    -11.213718  
       7A    -11.206321     8A     -1.361479     9A     -1.111651  
      10A     -1.005452    11A     -0.989955    12A     -0.846973  
      13A     -0.839946    14A     -0.741877    15A     -0.683380  
      16A     -0.669240    17A     -0.626189    18A     -0.599672  
      19A     -0.582917    20A     -0.550987    21A     -0.529250  
      22A     -0.521282    23A     -0.502134    24A     -0.486801  
      25A     -0.468770    26A     -0.450190    27A     -0.427333  
      28A     -0.414622  

    Virtual:                                                              

      29A      0.137570    30A      0.151860    31A      0.156162  
      32A      0.172808    33A      0.191322    34A      0.202399  
      35A      0.213262    36A      0.220415    37A      0.232094  
      38A      0.239148    39A      0.256092    40A      0.265485  
      41A      0.305142    42A      0.337146    43A      0.349855  
      44A      0.370667    45A      0.384635    46A      0.388021  
      47A      0.401788    48A      0.410759    49A      0.430050  
      50A      0.441020    51A      0.453334    52A      0.468000  
      53A      0.490619    54A      0.504728    55A      0.548482  
      56A      0.559163    57A      0.563528    58A      0.580775  
      59A      0.586805    60A      0.592993    61A      0.603981  
      62A      0.612418    63A      0.620985    64A      0.624701  
      65A      0.631426    66A      0.652845    67A      0.656894  
      68A      0.665350    69A      0.677280    70A      0.678347  
      71A      0.687794    72A      0.692279    73A      0.720075  
      74A      0.723840    75A      0.735568    76A      0.751017  
      77A      0.752394    78A      0.768746    79A      0.844870  
      80A      0.847207    81A      0.869720    82A      0.883479  
      83A      0.905720    84A      0.915376    85A      0.942812  
      86A      0.978507    87A      0.993259    88A      1.005108  
      89A      1.022493    90A      1.034456    91A      1.075448  
      92A      1.087402    93A      1.106556    94A      1.128155  
      95A      1.141945    96A      1.154806    97A      1.172979  
      98A      1.201443    99A      1.220338   100A      1.232509  
     101A      1.242568   102A      1.252682   103A      1.253837  
     104A      1.279996   105A      1.294274   106A      1.301082  
     107A      1.304440   108A      1.321610   109A      1.331929  
     110A      1.347545   111A      1.352793   112A      1.363435  
     113A      1.385966   114A      1.395326   115A      1.411896  
     116A      1.423203   117A      1.435670   118A      1.459075  
     119A      1.465456   120A      1.481655   121A      1.489068  
     122A      1.492422   123A      1.501885   124A      1.519746  
     125A      1.536983   126A      1.541953   127A      1.562378  
     128A      1.573282   129A      1.587587   130A      1.594115  
     131A      1.621627   132A      1.626909   133A      1.642341  
     134A      1.663617   135A      1.676958   136A      1.688174  
     137A      1.716295   138A      1.719107   139A      1.736233  
     140A      1.744737   141A      1.755702   142A      1.807726  
     143A      1.837485   144A      1.840077   145A      1.880788  
     146A      1.893593   147A      1.917149   148A      1.940362  
     149A      1.960504   150A      1.981642   151A      2.012174  
     152A      2.089180   153A      2.129770   154A      2.208562  
     155A      2.304834   156A      2.333258   157A      2.375601  
     158A      2.484470   159A      2.586541   160A      2.599870  
     161A      2.627379   162A      2.665626   163A      2.684965  
     164A      2.706636   165A      2.727815   166A      2.740192  
     167A      2.773341   168A      2.784150   169A      2.828276  
     170A      2.845865   171A      2.857293   172A      2.869839  
     173A      2.895765   174A      2.901171   175A      2.922999  
     176A      2.945003   177A      2.951196   178A      2.963114  
     179A      2.971026   180A      2.987468   181A      2.995510  
     182A      3.004671   183A      3.025984   184A      3.050848  
     185A      3.069493   186A      3.088195   187A      3.106081  
     188A      3.117177   189A      3.150644   190A      3.175833  
     191A      3.193036   192A      3.217049   193A      3.252286  
     194A      3.252895   195A      3.258742   196A      3.270846  
     197A      3.292539   198A      3.301882   199A      3.330906  
     200A      3.348746   201A      3.361142   202A      3.368173  
     203A      3.386081   204A      3.393237   205A      3.412470  
     206A      3.416722   207A      3.437977   208A      3.442452  
     209A      3.446328   210A      3.469372   211A      3.475481  
     212A      3.484905   213A      3.495581   214A      3.504585  
     215A      3.525763   216A      3.534082   217A      3.546971  
     218A      3.553089   219A      3.564134   220A      3.572730  
     221A      3.599363   222A      3.601238   223A      3.623042  
     224A      3.639659   225A      3.657634   226A      3.678204  
     227A      3.697839   228A      3.718464   229A      3.739904  
     230A      3.760226   231A      3.769557   232A      3.786749  
     233A      3.818095   234A      3.837898   235A      3.841257  
     236A      3.870840   237A      3.894676   238A      3.906288  
     239A      3.908155   240A      3.924145   241A      3.949835  
     242A      3.968008   243A      3.977704   244A      3.991053  
     245A      4.005219   246A      4.023181   247A      4.037125  
     248A      4.048223   249A      4.066141   250A      4.072667  
     251A      4.085605   252A      4.094912   253A      4.117669  
     254A      4.129682   255A      4.141758   256A      4.149244  
     257A      4.171386   258A      4.181529   259A      4.187806  
     260A      4.210593   261A      4.231476   262A      4.234677  
     263A      4.257707   264A      4.275123   265A      4.300307  
     266A      4.308683   267A      4.331658   268A      4.342223  
     269A      4.351572   270A      4.356523   271A      4.374797  
     272A      4.389970   273A      4.395376   274A      4.403820  
     275A      4.414825   276A      4.430640   277A      4.459365  
     278A      4.476050   279A      4.487781   280A      4.503256  
     281A      4.515569   282A      4.534363   283A      4.544754  
     284A      4.555984   285A      4.575970   286A      4.594676  
     287A      4.598732   288A      4.614260   289A      4.631425  
     290A      4.635617   291A      4.650827   292A      4.663038  
     293A      4.675549   294A      4.685169   295A      4.706829  
     296A      4.711128   297A      4.724041   298A      4.755665  
     299A      4.774581   300A      4.784744   301A      4.822469  
     302A      4.844445   303A      4.903434   304A      4.931281  
     305A      4.933694   306A      4.959179   307A      4.990634  
     308A      5.003620   309A      5.047153   310A      5.076376  
     311A      5.086388   312A      5.107897   313A      5.164093  
     314A      5.190566   315A      5.206106   316A      5.227388  
     317A      5.256911   318A      5.264835   319A      5.275363  
     320A      5.283669   321A      5.332073   322A      5.349065  
     323A      5.364000   324A      5.384033   325A      5.401549  
     326A      5.417878   327A      5.430874   328A      5.439242  
     329A      5.465403   330A      5.481411   331A      5.496316  
     332A      5.524539   333A      5.564158   334A      5.589094  
     335A      5.655925   336A      5.660226   337A      5.672909  
     338A      5.704976   339A      5.717371   340A      5.739881  
     341A      5.754994   342A      5.764850   343A      5.812814  
     344A      5.850774   345A      5.887407   346A      5.904232  
     347A      5.934426   348A      5.957866   349A      5.969097  
     350A      6.013761   351A      6.048989   352A      6.098185  
     353A      6.110388   354A      6.150276   355A      6.219718  
     356A      6.232753   357A      6.354363   358A      6.384500  
     359A      6.430131   360A      6.449783   361A      6.512294  
     362A      6.538959   363A      6.766360   364A      7.096815  
     365A      7.192129   366A      7.268642   367A      7.327057  
     368A      7.474365   369A      7.589257   370A      7.809587  
     371A      8.071087   372A     12.060815   373A     12.556254  
     374A     12.938576   375A     13.164160   376A     13.607819  
     377A     13.768866   378A     14.103123  

    Final Occupation by Irrep:
              A 
    DOCC [    28 ]

  Energy converged.

  @DF-RHF Final Energy:  -309.16220445649805

   => Energetics <=

    Nuclear Repulsion Energy =            331.9149281512869152
    One-Electron Energy =               -1077.5731161434396199
    Two-Electron Energy =                 436.4959835356548865
    DFT Exchange-Correlation Energy =       0.0000000000000000
    Empirical Dispersion Energy =           0.0000000000000000
    PCM Polarization Energy =               0.0000000000000000
    EFP Energy =                            0.0000000000000000
    Total Energy =                       -309.1622044564978751

    Alert: EFP and PCM quantities not currently incorporated into SCF psivars.

Properties will be evaluated at   0.000000,   0.000000,   0.000000 Bohr
  ==> Properties <==


Properties computed using the SCF density matrix

  Nuclear Dipole Moment: (a.u.)
     X:     4.4108      Y:     0.9469      Z:     0.2542

  Electronic Dipole Moment: (a.u.)
     X:    -3.9895      Y:    -0.3933      Z:    -0.2834

  Dipole Moment: (a.u.)
     X:     0.4213      Y:     0.5536      Z:    -0.0292     Total:     0.6963

  Dipole Moment: (Debye)
     X:     1.0709      Y:     1.4071      Z:    -0.0743     Total:     1.7698


  Saving occupied orbitals to File 180.

*** tstop() called on cx1-27-1-4 at Fri Sep  9 20:44:55 2016
Module time:
	user time   =      52.12 seconds =       0.87 minutes
	system time =       0.68 seconds =       0.01 minutes
	total time  =         17 seconds =       0.28 minutes
Total time:
	user time   =     239.25 seconds =       3.99 minutes
	system time =       2.41 seconds =       0.04 minutes
	total time  =         69 seconds =       1.15 minutes

*** tstart() called on cx1-27-1-4
*** at Fri Sep  9 20:44:55 2016


         ------------------------------------------------------------
                                   SCF GRAD                          
                          Rob Parrish, Justin Turney,                
                       Andy Simmonett, and Alex Sokolov              
         ------------------------------------------------------------

  ==> Geometry <==

    Molecular point group: c1
    Full point group: C1

    Geometry (in Angstrom), charge = 0, multiplicity = 1:

       Center              X                  Y                   Z               Mass       
    ------------   -----------------  -----------------  -----------------  -----------------
           H         -2.702410697652     0.712467101938    -0.002464437180     1.007825032070
           O         -2.324989630495    -0.144503298333    -0.068778138616    15.994914619560
           C         -0.942521662856    -0.063757274245    -0.322303459910    12.000000000000
           H         -0.796592380750    -0.228274404251    -1.387334967497     1.007825032070
           C         -0.228400757332    -1.182825168063     0.414453560743    12.000000000000
           C         -0.352335411333     1.299678637433     0.064387982181    12.000000000000
           H         -0.307208784932    -0.992195219147     1.480134753652     1.007825032070
           H         -0.739273715888    -2.119052339090     0.228981531359     1.007825032070
           C          1.246671775307    -1.272117881496    -0.015666313688    12.000000000000
           H         -0.551212523390     2.013901109774    -0.728872433862     1.007825032070
           H         -0.868762277801     1.657359287936     0.950189022966     1.007825032070
           C          1.157989754061     1.230059864248     0.353110810498    12.000000000000
           H          1.829584723718    -1.685235925998     0.799812717994     1.007825032070
           H          1.349102108955    -1.964455629213    -0.843968820639     1.007825032070
           C          1.821441158824     0.096681134703    -0.425107623319    12.000000000000
           H          1.623976443932     2.179528249987     0.117941072209     1.007825032070
           H          1.318490953247     1.066282633862     1.414066558647     1.007825032070
           H          2.893791343157     0.110541194726    -0.269313082809     1.007825032070
           H          1.667476779785     0.259910746661    -1.487695251638     1.007825032070

  Nuclear repulsion =  331.914928151286915

  ==> Basis Set <==

  Basis Set: CC-PVTZ
    Number of shells: 142
    Number of basis function: 378
    Number of Cartesian functions: 425
    Spherical Harmonics?: true
    Max angular momentum: 3

  ==> DFJKGrad: Density-Fitted SCF Gradients <==

    Gradient:                    1
    J tasked:                  Yes
    K tasked:                  Yes
    wK tasked:                  No
    OpenMP threads:              4
    Integrals threads:           4
    Memory (MB):              1430
    Schwarz Cutoff:          0E+00
    Fitting Condition:       1E-12

   => Auxiliary Basis Set <=

  Basis Set: 
    Number of shells: 295
    Number of basis function: 913
    Number of Cartesian functions: 1092
    Spherical Harmonics?: true
    Max angular momentum: 4


  -Total Gradient:
     Atom            X                  Y                   Z
    ------   -----------------  -----------------  -----------------
       1       -0.000168902808    -0.000295922883     0.001602616193
       2       -0.001351109459    -0.000043858454    -0.003265074539
       3       -0.000489045607     0.001172440979     0.002087495669
       4       -0.000419117345    -0.001825883816     0.000483982817
       5        0.001087810303    -0.000069373891    -0.000780368676
       6        0.001359569396     0.000792794615    -0.000069721920
       7       -0.000263445693     0.000340441567    -0.000338971135
       8        0.000061428203     0.000023921790    -0.000061373785
       9        0.000238535626    -0.000573683574     0.000279058008
      10        0.000088735774     0.000063758373    -0.000058305477
      11        0.000439120827    -0.000036252914     0.000059226010
      12       -0.000247150517     0.000541050341     0.000094156626
      13        0.000134234994    -0.000097932134    -0.000023873523
      14        0.000083400490    -0.000040657298    -0.000041550594
      15       -0.000457181764    -0.000081341952     0.000025429938
      16       -0.000031375115     0.000061860892     0.000066366790
      17        0.000056676638    -0.000013411307     0.000054388396
      18       -0.000082425146     0.000032805578     0.000009441695
      19       -0.000039758799     0.000049244089    -0.000122922491


*** tstop() called on cx1-27-1-4 at Fri Sep  9 20:45:26 2016
Module time:
	user time   =     119.19 seconds =       1.99 minutes
	system time =       0.72 seconds =       0.01 minutes
	total time  =         31 seconds =       0.52 minutes
Total time:
	user time   =     358.46 seconds =       5.97 minutes
	system time =       3.13 seconds =       0.05 minutes
	total time  =        100 seconds =       1.67 minutes
CURRENT ENERGY: -309.1622044565

			-----------------------------------------
			 OPTKING 2.0: for geometry optimizations 
			  - R.A. King,  Bethel University        
			-----------------------------------------

	Previous internal coordinate definitions found.
	---Fragment 1 Geometry and Gradient---
	 H          -5.1068161171        1.3463677014       -0.0046571113
	 O          -4.3935936634       -0.2730716591       -0.1299718459
	 C          -1.7811078171       -0.1204837873       -0.6090652709
	 H          -1.5053414392       -0.4313761072       -2.6216831431
	 C          -0.4316148799       -2.2352156307        0.7832037246
	 C          -0.6658174343        2.4560366855        0.1216756526
	 H          -0.5805404691       -1.8749772345        2.7970493242
	 H          -1.3970248603       -4.0044285821        0.4327123838
	 C           2.3558682329       -2.4039544048       -0.0296050424
	 H          -1.0416407102        3.8057215562       -1.3773692858
	 H          -1.6417227796        3.1319551580        1.7955970279
	 C           2.1882834999        2.3244762705        0.6672827264
	 H           3.4574140647       -3.1846343694        1.5114269946
	 H           2.5494335112       -3.7122831394       -1.5948699357
	 C           3.4420249573        0.1827008668       -0.8033369851
	 H           3.0688707253        4.1187114914        0.2228763263
	 H           2.4915868103        2.0149821583        2.6721985295
	 H           5.4684731243        0.2088925844       -0.5089279705
	 H           3.1510744467        0.4911601302       -2.8113365948
	            -0.0001689028       -0.0002959229        0.0016026162
	            -0.0013511095       -0.0000438585       -0.0032650745
	            -0.0004890456        0.0011724410        0.0020874957
	            -0.0004191173       -0.0018258838        0.0004839828
	             0.0010878103       -0.0000693739       -0.0007803687
	             0.0013595694        0.0007927946       -0.0000697219
	            -0.0002634457        0.0003404416       -0.0003389711
	             0.0000614282        0.0000239218       -0.0000613738
	             0.0002385356       -0.0005736836        0.0002790580
	             0.0000887358        0.0000637584       -0.0000583055
	             0.0004391208       -0.0000362529        0.0000592260
	            -0.0002471505        0.0005410503        0.0000941566
	             0.0001342350       -0.0000979321       -0.0000238735
	             0.0000834005       -0.0000406573       -0.0000415506
	            -0.0004571818       -0.0000813420        0.0000254299
	            -0.0000313751        0.0000618609        0.0000663668
	             0.0000566766       -0.0000134113        0.0000543884
	            -0.0000824251        0.0000328056        0.0000094417
	            -0.0000397588        0.0000492441       -0.0001229225

	---Fragment 1 Intrafragment Coordinates---
	 - Coordinate -           - BOHR/RAD -       - ANG/DEG -
	 R(1,2)           =         1.773971	       0.938745
	 R(2,3)           =         2.660432	       1.407840
	 R(3,4)           =         2.055075	       1.087499
	 R(3,5)           =         2.869083	       1.518253
	 R(3,6)           =         2.901088	       1.535190
	 R(5,7)           =         2.051225	       1.085462
	 R(5,8)           =         2.045721	       1.082549
	 R(5,9)           =         2.908469	       1.539096
	 R(6,10)          =         2.051835	       1.085785
	 R(6,11)          =         2.052138	       1.085945
	 R(6,12)          =         2.908760	       1.539250
	 R(9,13)          =         2.048815	       1.084186
	 R(9,14)          =         2.049206	       1.084393
	 R(9,15)          =         2.910186	       1.540004
	 R(12,15)         =         2.884752	       1.526545
	 R(12,16)         =         2.047489	       1.083485
	 R(12,17)         =         2.051211	       1.085454
	 R(15,18)         =         2.047890	       1.083697
	 R(15,19)         =         2.052282	       1.086021
	 B(1,2,3)         =         1.933888	     110.803593
	 B(2,3,4)         =         1.874916	     107.424800
	 B(2,3,5)         =         1.909451	     109.403475
	 B(2,3,6)         =         1.963934	     112.525122
	 B(3,5,7)         =         1.888965	     108.229725
	 B(3,5,8)         =         1.909580	     109.410880
	 B(3,5,9)         =         1.936857	     110.973722
	 B(3,6,10)        =         1.906848	     109.254317
	 B(3,6,11)        =         1.891425	     108.370664
	 B(3,6,12)        =         1.965238	     112.599834
	 B(4,3,5)         =         1.876139	     107.494820
	 B(4,3,6)         =         1.906517	     109.235373
	 B(5,3,6)         =         1.930032	     110.582683
	 B(5,9,13)        =         1.904126	     109.098403
	 B(5,9,14)        =         1.918814	     109.939946
	 B(5,9,15)        =         1.961063	     112.360614
	 B(6,12,15)       =         1.943784	     111.370647
	 B(6,12,16)       =         1.919471	     109.977574
	 B(6,12,17)       =         1.912668	     109.587830
	 B(7,5,8)         =         1.860666	     106.608324
	 B(7,5,9)         =         1.932793	     110.740873
	 B(8,5,9)         =         1.932888	     110.746339
	 B(9,15,12)       =         1.941383	     111.233032
	 B(9,15,18)       =         1.920334	     110.027050
	 B(9,15,19)       =         1.918578	     109.926414
	 B(10,6,11)       =         1.867295	     106.988103
	 B(10,6,12)       =         1.924647	     110.274178
	 B(11,6,12)       =         1.905525	     109.178553
	 B(12,15,18)      =         1.925460	     110.320740
	 B(12,15,19)      =         1.902428	     109.001102
	 B(13,9,14)       =         1.855075	     106.287951
	 B(13,9,15)       =         1.915577	     109.754474
	 B(14,9,15)       =         1.906190	     109.216666
	 B(15,12,16)      =         1.931621	     110.673758
	 B(15,12,17)      =         1.898635	     108.783801
	 B(16,12,17)      =         1.855400	     106.306604
	 B(18,15,19)      =         1.853573	     106.201886
	*D(1,2,3,4)       =        -1.745329	    -100.000007
	 D(1,2,3,5)       =         2.506333	     143.602291
	 D(1,2,3,6)       =         0.353664	      20.263479
	 D(2,3,5,7)       =        -1.179164	     -67.561130
	 D(2,3,5,8)       =         0.841807	      48.231987
	 D(2,3,5,9)       =         2.979842	     170.732395
	 D(2,3,6,10)      =        -1.413158	     -80.967976
	 D(2,3,6,11)      =         0.615579	      35.270069
	 D(2,3,6,12)      =         2.725260	     156.145882
	 D(3,5,9,13)      =         2.659107	     152.355633
	 D(3,5,9,14)      =        -1.596187	     -91.454768
	 D(3,5,9,15)      =         0.530660	      30.404604
	 D(3,6,12,15)     =         0.484594	      27.765177
	 D(3,6,12,16)     =         2.632538	     150.833333
	 D(3,6,12,17)     =        -1.617040	     -92.649563
	 D(4,3,5,7)       =         3.073273	     176.085582
	 D(4,3,5,8)       =        -1.188941	     -68.121302
	 D(4,3,5,9)       =         0.949094	      54.379106
	 D(4,3,6,10)      =         0.667509	      38.245451
	 D(4,3,6,11)      =         2.696246	     154.483496
	 D(4,3,6,12)      =        -1.477259	     -84.640690
	 D(5,3,6,10)      =         2.728886	     156.353668
	 D(5,3,6,11)      =        -1.525562	     -87.408287
	 D(5,3,6,12)      =         0.584119	      33.467526
	 D(5,9,15,12)     =         0.538909	      30.877187
	 D(5,9,15,18)     =         2.677969	     153.436297
	 D(5,9,15,19)     =        -1.569858	     -89.946210
	 D(6,3,5,7)       =         0.993426	      56.919144
	 D(6,3,5,8)       =         3.014398	     172.712261
	 D(6,3,5,9)       =        -1.130752	     -64.787331
	 D(6,12,15,9)     =        -1.081321	     -61.955147
	 D(6,12,15,18)    =         3.065763	     175.655287
	 D(6,12,15,19)    =         1.036908	      59.410469
	 D(7,5,9,13)      =         0.560775	      32.130044
	 D(7,5,9,14)      =         2.588666	     148.319643
	 D(7,5,9,15)      =        -1.567672	     -89.820985
	 D(8,5,9,13)      =        -1.499618	     -85.921804
	 D(8,5,9,14)      =         0.528273	      30.267795
	 D(8,5,9,15)      =         2.655120	     152.127167
	 D(9,15,12,16)    =         3.060885	     175.375803
	 D(9,15,12,17)    =         1.028552	      58.931707
	 D(10,6,12,15)    =        -1.650173	     -94.547939
	 D(10,6,12,16)    =         0.497772	      28.520218
	 D(10,6,12,17)    =         2.531379	     145.037321
	 D(11,6,12,15)    =         2.586184	     148.177427
	 D(11,6,12,16)    =        -1.549057	     -88.754416
	 D(11,6,12,17)    =         0.484550	      27.762687
	 D(12,15,9,13)    =        -1.583016	     -90.700141
	 D(12,15,9,14)    =         2.672923	     153.147200
	 D(13,9,15,18)    =         0.556044	      31.858970
	 D(13,9,15,19)    =         2.591403	     148.476462
	 D(14,9,15,18)    =        -1.471202	     -84.293690
	 D(14,9,15,19)    =         0.564157	      32.323803
	 D(16,12,15,18)   =         0.924784	      52.986237
	 D(16,12,15,19)   =        -1.104071	     -63.258581
	 D(17,12,15,18)   =        -1.107549	     -63.457859
	 D(17,12,15,19)   =        -3.136403	    -179.702678

	Current energy   :      -309.1622044565

	Energy change for the previous step:
		Projected    :        -0.0023683750
		Actual       :        -0.0001067925
	Energy ratio indicates iffy step: Trust radius decreased to 1.250e-01.


	Performing BFGS update.
	Previous computed or guess Hessian on step 1.
	Steps to be used in Hessian update: 1
	Taking RFO optimization step.
	Going to follow RFO solution 1.
	Using RFO vector 1.
	Norm of target step-size    0.04574
	Projected energy change by RFO approximation:         0.0001982409

	Back-transformation to cartesian coordinates...
	Successfully converged to displaced geometry.

	Back-transformation to cartesian coordinates to adjust frozen coordinates...
	Successfully converged to displaced geometry.

	--- Internal Coordinate Step in ANG or DEG, aJ/ANG or AJ/DEG ---
	 ---------------------------------------------------------------------------
	   Coordinate                Previous        Force       Change         New 
	   ----------                --------       ------       ------       ------
	    1 R(1,2)          =      0.938745     0.000733     0.000006     0.938752
	    2 R(2,3)          =      1.407840    -0.009991    -0.000906     1.406934
	    3 R(3,4)          =      1.087499     0.002093     0.000222     1.087720
	    4 R(3,5)          =      1.518253    -0.001251    -0.000064     1.518190
	    5 R(3,6)          =      1.535190    -0.012216    -0.001945     1.533245
	    6 R(5,7)          =      1.085462     0.002092     0.000264     1.085726
	    7 R(5,8)          =      1.082549     0.000323     0.000044     1.082593
	    8 R(5,9)          =      1.539096    -0.000920    -0.000214     1.538882
	    9 R(6,10)         =      1.085785    -0.000563    -0.000095     1.085690
	   10 R(6,11)         =      1.085945     0.001421     0.000244     1.086189
	   11 R(6,12)         =      1.539250     0.004318     0.000634     1.539884
	   12 R(9,13)         =      1.084186    -0.000754    -0.000090     1.084096
	   13 R(9,14)         =      1.084393    -0.000540    -0.000067     1.084326
	   14 R(9,15)         =      1.540004    -0.001288    -0.000214     1.539791
	   15 R(12,15)        =      1.526545    -0.001621    -0.000099     1.526446
	   16 R(12,16)        =      1.083485    -0.000217    -0.000031     1.083454
	   17 R(12,17)        =      1.085454    -0.000524    -0.000067     1.085387
	   18 R(15,18)        =      1.083697     0.000657     0.000078     1.083775
	   19 R(15,19)        =      1.086021    -0.001098    -0.000142     1.085878
	   20 B(1,2,3)        =    110.803593    -0.000073    -0.207413   110.596180
	   21 B(2,3,4)        =    107.424800     0.000060     0.388561   107.813362
[...]
	 B(15,12,16)      =         1.930852	     110.629662
	 B(15,12,17)      =         1.898777	     108.791891
	 B(16,12,17)      =         1.855473	     106.310784
	 B(18,15,19)      =         1.853587	     106.202735
	*D(1,2,3,4)       =        -1.745329	    -100.000007
	 D(1,2,3,5)       =         2.500796	     143.285054
	 D(1,2,3,6)       =         0.355577	      20.373037
	 D(2,3,5,7)       =        -1.171613	     -67.128498
	 D(2,3,5,8)       =         0.850513	      48.730823
	 D(2,3,5,9)       =         2.988075	     171.204074
	 D(2,3,6,10)      =        -1.425132	     -81.654023
	 D(2,3,6,11)      =         0.601966	      34.490116
	 D(2,3,6,12)      =         2.712977	     155.442107
	 D(3,5,9,13)      =         2.665294	     152.710101
	 D(3,5,9,14)      =        -1.590835	     -91.148111
	 D(3,5,9,15)      =         0.537271	      30.783388
	 D(3,6,12,15)     =         0.486399	      27.868587
	 D(3,6,12,16)     =         2.634357	     150.937511
	 D(3,6,12,17)     =        -1.615573	     -92.565519
	 D(4,3,5,7)       =         3.072783	     176.057488
	 D(4,3,5,8)       =        -1.188276	     -68.083191
	 D(4,3,5,9)       =         0.949286	      54.390060
	 D(4,3,6,10)      =         0.661708	      37.913099
	 D(4,3,6,11)      =         2.688806	     154.057238
	 D(4,3,6,12)      =        -1.483369	     -84.990771
	 D(5,3,6,10)      =         2.728090	     156.308044
	 D(5,3,6,11)      =        -1.527998	     -87.547817
	 D(5,3,6,12)      =         0.583013	      33.404174
	 D(5,9,15,12)     =         0.530920	      30.419452
	 D(5,9,15,18)     =         2.670022	     152.981004
	 D(5,9,15,19)     =        -1.577596	     -90.389587
	 D(6,3,5,7)       =         0.990102	      56.728691
	 D(6,3,5,8)       =         3.012229	     172.588011
	 D(6,3,5,9)       =        -1.133395	     -64.938738
	 D(6,12,15,9)     =        -1.077453	     -61.733514
	 D(6,12,15,18)    =         3.069535	     175.871375
	 D(6,12,15,19)    =         1.040500	      59.616263
	 D(7,5,9,13)      =         0.565187	      32.382842
	 D(7,5,9,14)      =         2.592244	     148.524630
	 D(7,5,9,15)      =        -1.562835	     -89.543872
	 D(8,5,9,13)      =        -1.494037	     -85.602020
	 D(8,5,9,14)      =         0.533020	      30.539768
	 D(8,5,9,15)      =         2.661126	     152.471267
	 D(9,15,12,16)    =         3.064173	     175.564164
	 D(9,15,12,17)    =         1.032105	      59.135252
	 D(10,6,12,15)    =        -1.648803	     -94.469468
	 D(10,6,12,16)    =         0.499155	      28.599456
	 D(10,6,12,17)    =         2.532410	     145.096426
	 D(11,6,12,15)    =         2.587647	     148.261236
	 D(11,6,12,16)    =        -1.547581	     -88.669839
	 D(11,6,12,17)    =         0.485675	      27.827130
	 D(12,15,9,13)    =        -1.590138	     -91.108210
	 D(12,15,9,14)    =         2.665616	     152.728521
	 D(13,9,15,18)    =         0.548964	      31.453342
	 D(13,9,15,19)    =         2.584532	     148.082751
	 D(14,9,15,18)    =        -1.478467	     -84.709927
	 D(14,9,15,19)    =         0.557100	      31.919482
	 D(16,12,15,18)   =         0.927975	      53.169052
	 D(16,12,15,19)   =        -1.101059	     -63.086059
	 D(17,12,15,18)   =        -1.104093	     -63.259859
	 D(17,12,15,19)   =        -3.133127	    -179.514971

	Current energy   :      -309.1622414008

	Energy change for the previous step:
		Projected    :         0.0000017451
		Actual       :        -0.0000006261

	Performing BFGS update.
	Previous computed or guess Hessian on step 1.
	Steps to be used in Hessian update: 3 2
	Taking RFO optimization step.
	Going to follow RFO solution 1.
	Using RFO vector 1.
	Norm of target step-size    0.00509
	Projected energy change by RFO approximation:        -0.0000014669

	Back-transformation to cartesian coordinates...
	Successfully converged to displaced geometry.

	Back-transformation to cartesian coordinates to adjust frozen coordinates...
	Successfully converged to displaced geometry.

	--- Internal Coordinate Step in ANG or DEG, aJ/ANG or AJ/DEG ---
	 ---------------------------------------------------------------------------
	   Coordinate                Previous        Force       Change         New 
	   ----------                --------       ------       ------       ------
	    1 R(1,2)          =      0.938781     0.000263     0.000026     0.938807
	    2 R(2,3)          =      1.406982    -0.000236    -0.000016     1.406966
	    3 R(3,4)          =      1.087722     0.000222     0.000032     1.087754
	    4 R(3,5)          =      1.518031     0.000307     0.000044     1.518075
	    5 R(3,6)          =      1.533229    -0.000595    -0.000101     1.533128
	    6 R(5,7)          =      1.085654     0.000158     0.000015     1.085669
	    7 R(5,8)          =      1.082634    -0.000181    -0.000024     1.082611
	    8 R(5,9)          =      1.538901     0.000116     0.000018     1.538919
	    9 R(6,10)         =      1.085740     0.000054     0.000013     1.085753
	   10 R(6,11)         =      1.086120    -0.000015    -0.000010     1.086109
	   11 R(6,12)         =      1.539953     0.000387     0.000074     1.540027
	   12 R(9,13)         =      1.084120    -0.000072    -0.000008     1.084112
	   13 R(9,14)         =      1.084308     0.000094     0.000013     1.084321
	   14 R(9,15)         =      1.540062    -0.000333    -0.000039     1.540022
	   15 R(12,15)        =      1.526435    -0.000036     0.000004     1.526438
	   16 R(12,16)        =      1.083496    -0.000124    -0.000014     1.083482
	   17 R(12,17)        =      1.085342     0.000050     0.000004     1.085346
	   18 R(15,18)        =      1.083743     0.000047     0.000003     1.083747
	   19 R(15,19)        =      1.085878    -0.000050    -0.000007     1.085871
	   20 B(1,2,3)        =    110.564398     0.000001     0.002709   110.567107
	   21 B(2,3,4)        =    107.864258    -0.000001    -0.007283   107.856975
	   22 B(2,3,5)        =    109.069270     0.000002     0.004559   109.073829
	   23 B(2,3,6)        =    112.199886    -0.000002    -0.009730   112.190156
	   24 B(3,5,7)        =    108.403508     0.000000     0.007606   108.411114
	   25 B(3,5,8)        =    109.427460    -0.000001    -0.007543   109.419917
	   26 B(3,5,9)        =    110.865578     0.000002     0.003499   110.869077
	   27 B(3,6,10)       =    109.274759    -0.000001    -0.001908   109.272852
	   28 B(3,6,11)       =    108.305067     0.000000    -0.004166   108.300901
	   29 B(3,6,12)       =    112.589851    -0.000001    -0.002595   112.587256
	   30 B(4,3,5)        =    107.708494     0.000001     0.009506   107.718000
	   31 B(4,3,6)        =    109.248637     0.000001     0.006122   109.254759
	   32 B(5,3,6)        =    110.611043    -0.000001    -0.002503   110.608541
	   33 B(5,9,13)       =    109.025508     0.000000     0.006290   109.031798
	   34 B(5,9,14)       =    109.907886     0.000001     0.002090   109.909976
	   35 B(5,9,15)       =    112.453412    -0.000001    -0.004020   112.449392
	   36 B(6,12,15)      =    111.441528     0.000002     0.007644   111.449173
	   37 B(6,12,16)      =    109.989202    -0.000001    -0.005404   109.983798
	   38 B(6,12,17)      =    109.533127     0.000000     0.003985   109.537112
	   39 B(7,5,8)        =    106.575841     0.000000     0.001262   106.577103
	   40 B(7,5,9)        =    110.672276    -0.000000     0.004266   110.676541
	   41 B(8,5,9)        =    110.772664    -0.000001    -0.008978   110.763686
	   42 B(9,15,12)      =    111.199150    -0.000001     0.002169   111.201319
	   43 B(9,15,18)      =    110.043624    -0.000000    -0.002285   110.041339
	   44 B(9,15,19)      =    109.928335    -0.000000    -0.006335   109.922000
	   45 B(10,6,11)      =    106.930330    -0.000000    -0.001025   106.929304
	   46 B(10,6,12)      =    110.281837     0.000001     0.003398   110.285235
	   47 B(11,6,12)      =    109.279969     0.000001     0.006248   109.286217
	   48 B(12,15,18)     =    110.331766     0.000001     0.001275   110.333041
	   49 B(12,15,19)     =    109.006282     0.000001     0.003418   109.009700
	   50 B(13,9,14)      =    106.297967    -0.000000     0.000899   106.298867
	   51 B(13,9,15)      =    109.727031    -0.000000    -0.001231   109.725800
	   52 B(14,9,15)      =    109.241283    -0.000000    -0.003734   109.237548
	   53 B(15,12,16)     =    110.629662    -0.000001    -0.012528   110.617134
	   54 B(15,12,17)     =    108.791891    -0.000001     0.005001   108.796891
	   55 B(16,12,17)     =    106.310784     0.000001     0.001252   106.312037
	   56 B(18,15,19)     =    106.202735     0.000000     0.001717   106.204452
	   57 *D(1,2,3,4)     =   -100.000007    -0.000000    -0.000000  -100.000007
	   58 D(1,2,3,5)      =    143.285054    -0.000000    -0.009708   143.275346
	   59 D(1,2,3,6)      =     20.373037    -0.000000    -0.003179    20.369858
	   60 D(2,3,5,7)      =    -67.128498     0.000000     0.012799   -67.115698
	   61 D(2,3,5,8)      =     48.730823     0.000000     0.014430    48.745253
	   62 D(2,3,5,9)      =    171.204074     0.000000     0.000350   171.204424
	   63 D(2,3,6,10)     =    -81.654023     0.000000    -0.041478   -81.695500
	   64 D(2,3,6,11)     =     34.490116     0.000000    -0.046026    34.444090
	   65 D(2,3,6,12)     =    155.442107     0.000000    -0.042677   155.399430
	   66 D(3,5,9,13)     =    152.710101     0.000000     0.055764   152.765865
	   67 D(3,5,9,14)     =    -91.148111     0.000000     0.061623   -91.086489
	   68 D(3,5,9,15)     =     30.783388     0.000000     0.055581    30.838968
	   69 D(3,6,12,15)    =     27.868587    -0.000000     0.036958    27.905544
	   70 D(3,6,12,16)    =    150.937511    -0.000000     0.022423   150.959934
	   71 D(3,6,12,17)    =    -92.565519    -0.000000     0.023141   -92.542378
	   72 D(4,3,5,7)      =    176.057488     0.000000     0.013781   176.071269
	   73 D(4,3,5,8)      =    -68.083191     0.000000     0.015412   -68.067779
	   74 D(4,3,5,9)      =     54.390060    -0.000000     0.001333    54.391392
	   75 D(4,3,6,10)     =     37.913099    -0.000000    -0.052669    37.860430
	   76 D(4,3,6,11)     =    154.057238    -0.000000    -0.057217   154.000021
	   77 D(4,3,6,12)     =    -84.990771    -0.000000    -0.053868   -85.044640
	   78 D(5,3,6,10)     =    156.308044     0.000000    -0.038748   156.269296
	   79 D(5,3,6,11)     =    -87.547817    -0.000000    -0.043297   -87.591114
	   80 D(5,3,6,12)     =     33.404174     0.000000    -0.039948    33.364226
	   81 D(5,9,15,12)    =     30.419452    -0.000000    -0.057449    30.362003
	   82 D(5,9,15,18)    =    152.981004    -0.000000    -0.055937   152.925067
	   83 D(5,9,15,19)    =    -90.389587    -0.000000    -0.058929   -90.448516
	   84 D(6,3,5,7)      =     56.728691    -0.000000     0.001985    56.730675
	   85 D(6,3,5,8)      =    172.588011    -0.000000     0.003616   172.591627
	   86 D(6,3,5,9)      =    -64.938738    -0.000000    -0.010464   -64.949202
	   87 D(6,12,15,9)    =    -61.733514    -0.000000     0.008617   -61.724897
	   88 D(6,12,15,18)   =    175.871375    -0.000000     0.009153   175.880527
	   89 D(6,12,15,19)   =     59.616263    -0.000000     0.004363    59.620626
	   90 D(7,5,9,13)     =     32.382842    -0.000000     0.041063    32.423905
	   91 D(7,5,9,14)     =    148.524630    -0.000000     0.046922   148.571552
	   92 D(7,5,9,15)     =    -89.543872    -0.000000     0.040880   -89.502991
	   93 D(8,5,9,13)     =    -85.602020    -0.000000     0.042456   -85.559564
	   94 D(8,5,9,14)     =     30.539768     0.000000     0.048315    30.588083
	   95 D(8,5,9,15)     =    152.471267    -0.000000     0.042273   152.513540
	   96 D(9,15,12,16)   =    175.564164    -0.000000     0.019073   175.583237
	   97 D(9,15,12,17)   =     59.135252     0.000000     0.021715    59.156968
	   98 D(10,6,12,15)   =    -94.469468     0.000000     0.038769   -94.430699
	   99 D(10,6,12,16)   =     28.599456     0.000000     0.024234    28.623690
	  100 D(10,6,12,17)   =    145.096426     0.000000     0.024952   145.121378
	  101 D(11,6,12,15)   =    148.261236     0.000000     0.034306   148.295542
	  102 D(11,6,12,16)   =    -88.669839    -0.000000     0.019771   -88.650069
	  103 D(11,6,12,17)   =     27.827130    -0.000000     0.020489    27.847619
	  104 D(12,15,9,13)   =    -91.108210    -0.000000    -0.061890   -91.170100
	  105 D(12,15,9,14)   =    152.728521    -0.000000    -0.060145   152.668376
	  106 D(13,9,15,18)   =     31.453342    -0.000000    -0.060378    31.392964
	  107 D(13,9,15,19)   =    148.082751    -0.000000    -0.063370   148.019380
	  108 D(14,9,15,18)   =    -84.709927     0.000000    -0.058632   -84.768560
	  109 D(14,9,15,19)   =     31.919482    -0.000000    -0.061625    31.857857
	  110 D(16,12,15,18)  =     53.169052     0.000000     0.019609    53.188661
	  111 D(16,12,15,19)  =    -63.086059    -0.000000     0.014820   -63.071240
	  112 D(17,12,15,18)  =    -63.259859     0.000000     0.022251   -63.237608
	  113 D(17,12,15,19)  =   -179.514971    -0.000000     0.017462  -179.497509
	 ---------------------------------------------------------------------------

  ==> Convergence Check <==

  Measures of convergence in internal coordinates in au.
  Criteria marked as inactive (o), active & met (*), and active & unmet ( ).
  ---------------------------------------------------------------------------------------------
   Step     Total Energy     Delta E     MAX Force     RMS Force      MAX Disp      RMS Disp   
  ---------------------------------------------------------------------------------------------
    Convergence Criteria    1.00e-06 *    3.00e-04 *             o    1.20e-03 *             o
  ---------------------------------------------------------------------------------------------
      4    -309.16224140   -6.26e-07 *    7.22e-05 *    1.53e-05 o    1.11e-03 *    4.79e-04 o  ~
  ---------------------------------------------------------------------------------------------


  **** Optimization is complete! (in 4 steps) ****

  ==> Optimization Summary <==

  Measures of convergence in internal coordinates in au.
  --------------------------------------------------------------------------------------------------------------- ~
   Step         Total Energy             Delta E       MAX Force       RMS Force        MAX Disp        RMS Disp  ~
  --------------------------------------------------------------------------------------------------------------- ~
      1    -309.162097664028   -309.162097664028      0.00205275      0.00056643      0.05816794      0.01357254  ~
      2    -309.162204456498     -0.000106792470      0.00148273      0.00032460      0.01504042      0.00430306  ~
      3    -309.162240774702     -0.000036318204      0.00014758      0.00003903      0.00274928      0.00092718  ~
      4    -309.162241400810     -0.000000626108      0.00007225      0.00001535      0.00110602      0.00047918  ~
  --------------------------------------------------------------------------------------------------------------- ~

	Writing optimization data to binary file.
	Final energy is   -309.1622414008100
	Final (previous) structure:
	Cartesian Geometry (in Angstrom)
	    H    -2.6935976091   0.7155016125   0.0102293319
	    O    -2.3214111896  -0.1435691037  -0.0589425523
	    C    -0.9422872464  -0.0646332737  -0.3261223633
	    H    -0.7989361389  -0.2287374887  -1.3917951759
	    C    -0.2291067455  -1.1822921508   0.4132215867
	    C    -0.3546659027   1.2981532948   0.0589801879
	    H    -0.3053287867  -0.9912891347   1.4792195530
	    H    -0.7403327679  -2.1188536456   0.2299248112
	    C     1.2452528617  -1.2716456002  -0.0186304285
	    H    -0.5518193659   2.0110054750  -0.7358803628
	    H    -0.8754433518   1.6569732740   0.9419835593
	    C     1.1555800194   1.2296462557   0.3521003417
	    H     1.8272871834  -1.6887174532   0.7953743616
	    H     1.3455665750  -1.9615477778  -0.8491097835
	    C     1.8236516959   0.0971355805  -0.4232074773
	    H     1.6217415513   2.1793380575   0.1181293628
	    H     1.3121759779   1.0665422731   1.4136284106
	    H     2.8950554320   0.1103570994  -0.2606682410
	    H     1.6764310769   0.2615143772  -1.4864274731
	Saving final (previous) structure.
			--------------------------
			 OPTKING Finished Execution 
			--------------------------

    Final optimized geometry and variables:
    Molecular point group: c1
    Full point group: C1

    Geometry (in Angstrom), charge = 0, multiplicity = 1:

    H           -2.693597403400     0.715501557901     0.010229331154
    O           -2.321411012282    -0.143569092692    -0.058942547764
    C           -0.942287174484    -0.064633268751    -0.326122338351
    H           -0.798936077909    -0.228737471216    -1.391795069586
    C           -0.229106728054    -1.182292060497     0.413221555170
    C           -0.354665875654     1.298153195648     0.058980183423
    H           -0.305328763415    -0.991289059018     1.479219440017
    H           -0.740332711325    -2.118853483828     0.229924793651
    C            1.245252766621    -1.271645503122    -0.018630427104
    H           -0.551819323752     2.011005321423    -0.735880306596
    H           -0.875443284898     1.656973147512     0.941983487342
    C            1.155579931166     1.229646161807     0.352100314857
    H            1.827287043844    -1.688717324283     0.795374300877
    H            1.345566472260    -1.961547628001    -0.849109718613
    C            1.823651556686     0.097135573096    -0.423207444973
    H            1.621741427479     2.179337891082     0.118129353738
    H            1.312175877707     1.066542191652     1.413628302635
    H            2.895055210931     0.110357090980    -0.260668221068
    H            1.676430948897     0.261514357200    -1.486427359562

	Cleaning optimization helper files.


Properties will be evaluated at   0.000000,   0.000000,   0.000000 Bohr

Properties computed using the  density matrix

  Nuclear Dipole Moment: (a.u.)
     X:     4.4070      Y:     0.9481      Z:     0.2478

  Electronic Dipole Moment: (a.u.)
     X:    -3.9852      Y:    -0.3947      Z:    -0.2801

  Dipole Moment: (a.u.)
     X:     0.4218      Y:     0.5534      Z:    -0.0323     Total:     0.6966

  Dipole Moment: (Debye)
     X:     1.0721      Y:     1.4067      Z:    -0.0822     Total:     1.7705

  Quadrupole Moment: (Debye Ang)
    XX:   -47.7502     YY:   -44.0996     ZZ:   -44.7358
    XY:    -4.1722     XZ:     0.1210     YZ:     0.0702

  Traceless Quadrupole Moment: (Debye Ang)
    XX:    -2.2217     YY:     1.4289     ZZ:     0.7927
    XY:    -4.1722     XZ:     0.1210     YZ:     0.0702

  Mulliken Charges: (a.u.)
   Center  Symbol    Alpha    Beta     Spin     Total
       1     H     0.39294  0.39294  0.00000  0.21412
       2     O     4.20601  4.20601  0.00000 -0.41202
       3     C     2.92245  2.92245  0.00000  0.15511
       4     H     0.45922  0.45922  0.00000  0.08156
       5     C     3.09552  3.09552  0.00000 -0.19103
       6     C     3.12646  3.12646  0.00000 -0.25292
       7     H     0.45726  0.45726  0.00000  0.08547
       8     H     0.44086  0.44086  0.00000  0.11828
       9     C     3.11410  3.11410  0.00000 -0.22820
      10     H     0.44511  0.44511  0.00000  0.10978
      11     H     0.45237  0.45237  0.00000  0.09526
      12     C     3.10055  3.10055  0.00000 -0.20111
      13     H     0.44710  0.44710  0.00000  0.10580
      14     H     0.44707  0.44707  0.00000  0.10587
      15     C     3.10251  3.10251  0.00000 -0.20501
      16     H     0.44206  0.44206  0.00000  0.11587
      17     H     0.45233  0.45233  0.00000  0.09534
      18     H     0.44272  0.44272  0.00000  0.11456
      19     H     0.45337  0.45337  0.00000  0.09327

   Total alpha = 28.00000, Total beta = 28.00000, Total charge = -0.00000


*** PSI4 exiting successfully. Buy a developer a beer!
