    -----------------------------------------------------------------------
          Psi4: An Open-Source Ab Initio Electronic Structure Package
                              Psi4 1.0.54 Driver

                          Git: Rev {master} 8d4cec3 dirty

    J. M. Turney, A. C. Simmonett, R. M. Parrish, E. G. Hohenstein,
    F. A. Evangelista, J. T. Fermann, B. J. Mintz, L. A. Burns, J. J. Wilke,
    M. L. Abrams, N. J. Russ, M. L. Leininger, C. L. Janssen, E. T. Seidl,
    W. D. Allen, H. F. Schaefer, R. A. King, E. F. Valeev, C. D. Sherrill,
    and T. D. Crawford, WIREs Comput. Mol. Sci. 2, 556-565 (2012)
    (doi: 10.1002/wcms.93)

                         Additional Contributions by
    A. E. DePrince, U. Bozkaya, A. Yu. Sokolov, D. G. A. Smith, R. Di Remigio,
    R. M. Richard, J. F. Gonthier, H. R. McAlexander, M. Saitow, and
    B. P. Pritchard
    -----------------------------------------------------------------------


    Psi4 started on: Sat Sep 10 15:49:33 2016

    Process ID:  36498
    PSI4DATADIR: /export131/home/mjharvey/miniconda3/share/psi4
    Memory level set to 256.000 MB

  ==> Input File <==

--------------------------------------------------------------------------
set {
	reference rhf
	basis cc-pvtz
}


set_num_threads( 4 )
memory 2 gb

molecule MOL {
0 1

H	 2.190573	 -0.629143	 -0.208718
O	 1.355408	 -0.529451	 0.208662
C	 0.700177	 0.619554	 -0.266242
C	 -0.713111	 0.588314	 0.266177
H	 0.678680	 0.627133	 -1.351786
H	 1.199747	 1.521489	 0.077736
O	 -1.421673	 -0.521378	 -0.196983
H	 -1.244794	 1.469161	 -0.069059
H	 -0.685100	 0.604721	 1.352683
H	 -0.856082	 -1.025961	 -0.755127

	symmetry c1
}
set optking {
	frozen_dihedral = ("
		10 7 4 3
	")
}

ee,wfn = optimize('scf', return_wfn=True)
oeprop( wfn, 'DIPOLE', 'QUADRUPOLE', 'MULLIKEN_CHARGES')
f=open( 'psi4out.xyz', 'w' )
f.write( "10  " )
f.write( str(ee) + "\n" )
f.write( MOL.save_string_xyz() )
f.close()
--------------------------------------------------------------------------

  Memory set to   2.000 GiB by Python script.
gradient() will perform analytic gradient computation.

*** tstart() called on cx1-27-1-2
*** at Sat Sep 10 15:49:33 2016


         ---------------------------------------------------------
                                   SCF
            by Justin Turney, Rob Parrish, and Andy Simmonett
                              RHF Reference
                        4 Threads,   2000 MiB Core
         ---------------------------------------------------------

  ==> Geometry <==

    Molecular point group: c1
    Full point group: C1

    Geometry (in Angstrom), charge = 0, multiplicity = 1:

       Center              X                  Y                   Z               Mass       
    ------------   -----------------  -----------------  -----------------  -----------------
           H          2.189316444012    -0.633559506709    -0.196213908065     1.007825032070
           O          1.354151444012    -0.533867506709     0.221166091935    15.994914619560
           C          0.698920444012     0.615137493291    -0.253737908065    12.000000000000
           C         -0.714367555988     0.583897493291     0.278681091935    12.000000000000
           H          0.677423444012     0.622716493291    -1.339281908065     1.007825032070
           H          1.198490444012     1.517072493291     0.090240091935     1.007825032070
           O         -1.422929555988    -0.525794506709    -0.184478908065    15.994914619560
           H         -1.246050555988     1.464744493291    -0.056554908065     1.007825032070
           H         -0.686356555988     0.600304493291     1.365187091935     1.007825032070
           H         -0.857338555988    -1.030377506709    -0.742622908065     1.007825032070

  Running in c1 symmetry.

  Rotational constants: A =      0.53469  B =      0.18623  C =      0.15654 [cm^-1]
  Rotational constants: A =  16029.68538  B =   5583.11214  C =   4692.87583 [MHz]
  Nuclear repulsion =  134.677058918639716

  Charge       = 0
  Multiplicity = 1
  Electrons    = 34
  Nalpha       = 17
  Nbeta        = 17

  ==> Algorithm <==

  SCF Algorithm Type is DF.
  DIIS enabled.
  MOM disabled.
  Fractional occupation disabled.
  Guess Type is SAD.
  Energy threshold   = 1.00e-08
  Density threshold  = 1.00e-08
  Integral threshold = 0.00e+00

  ==> Primary Basis <==

  Basis Set: CC-PVTZ
    Number of shells: 76
    Number of basis function: 204
    Number of Cartesian functions: 230
    Spherical Harmonics?: true
    Max angular momentum: 3

  ==> Pre-Iterations <==

   -------------------------------------------------------
    Irrep   Nso     Nmo     Nalpha   Nbeta   Ndocc  Nsocc
   -------------------------------------------------------
     A        204     204       0       0       0       0
   -------------------------------------------------------
    Total     204     204      17      17      17       0
   -------------------------------------------------------

  ==> Integral Setup <==

  ==> DFJK: Density-Fitted J/K Matrices <==

    J tasked:                  Yes
    K tasked:                  Yes
    wK tasked:                  No
    OpenMP threads:              4
    Integrals threads:           4
    Memory (MB):              1430
    Algorithm:                Core
    Integral Cache:           NONE
    Schwarz Cutoff:          1E-12
    Fitting Condition:       1E-12

   => Auxiliary Basis Set <=

  Basis Set: 
    Number of shells: 160
    Number of basis function: 496
    Number of Cartesian functions: 594
    Spherical Harmonics?: true
    Max angular momentum: 4

  Minimum eigenvalue in the overlap matrix is 6.8197878939E-04.
  Using Symmetric Orthogonalization.
  SCF Guess: Superposition of Atomic Densities via on-the-fly atomic UHF.

  ==> Iterations <==

                           Total Energy        Delta E     RMS |[F,P]|

   @DF-RHF iter   0:  -230.35673208519160   -2.30357e+02   1.88487e-02 
   @DF-RHF iter   1:  -228.92780953386529    1.42892e+00   1.89600e-03 
   @DF-RHF iter   2:  -229.00965057362652   -8.18410e-02   7.37758e-04 DIIS
   @DF-RHF iter   3:  -229.02033681695821   -1.06862e-02   3.10505e-04 DIIS
   @DF-RHF iter   4:  -229.02291714264311   -2.58033e-03   7.54765e-05 DIIS
   @DF-RHF iter   5:  -229.02318856451478   -2.71422e-04   2.36125e-05 DIIS
   @DF-RHF iter   6:  -229.02322018107168   -3.16166e-05   7.15643e-06 DIIS
   @DF-RHF iter   7:  -229.02322235152945   -2.17046e-06   1.85773e-06 DIIS
   @DF-RHF iter   8:  -229.02322254355880   -1.92029e-07   4.29047e-07 DIIS
   @DF-RHF iter   9:  -229.02322255494545   -1.13866e-08   1.29991e-07 DIIS
   @DF-RHF iter  10:  -229.02322255571920   -7.73753e-10   4.75881e-08 DIIS
   @DF-RHF iter  11:  -229.02322255578957   -7.03722e-11   1.37368e-08 DIIS
   @DF-RHF iter  12:  -229.02322255579719   -7.61702e-12   3.25854e-09 DIIS

  ==> Post-Iterations <==

    Orbital Energies (a.u.)
    -----------------------

    Doubly Occupied:                                                      

       1A    -20.561989     2A    -20.541611     3A    -11.280760  
       4A    -11.266518     5A     -1.386982     6A     -1.356338  
       7A     -1.005253     8A     -0.851189     9A     -0.727404  
      10A     -0.672974    11A     -0.665346    12A     -0.605593  
      13A     -0.575899    14A     -0.551655    15A     -0.478248  
      16A     -0.459287    17A     -0.439158  

    Virtual:                                                              

      18A      0.131364    19A      0.166436    20A      0.186388  
      21A      0.197855    22A      0.212902    23A      0.235665  
      24A      0.305538    25A      0.320643    26A      0.340146  
      27A      0.399119    28A      0.508519    29A      0.519267  
      30A      0.533891    31A      0.544745    32A      0.569826  
      33A      0.593138    34A      0.604468    35A      0.637693  
      36A      0.652060    37A      0.661795    38A      0.673492  
      39A      0.730956    40A      0.737779    41A      0.746960  
      42A      0.761648    43A      0.805841    44A      0.827473  
      45A      0.847802    46A      0.883842    47A      0.896332  
      48A      0.916722    49A      0.947359    50A      1.004127  
      51A      1.054116    52A      1.115224    53A      1.165221  
      54A      1.178003    55A      1.216607    56A      1.267963  
      57A      1.281165    58A      1.289647    59A      1.313276  
      60A      1.326199    61A      1.344926    62A      1.371711  
      63A      1.396861    64A      1.417397    65A      1.457491  
      66A      1.487097    67A      1.511776    68A      1.536725  
      69A      1.581247    70A      1.616456    71A      1.619453  
      72A      1.648923    73A      1.762702    74A      1.788444  
      75A      1.848962    76A      1.963163    77A      2.074879  
      78A      2.155804    79A      2.194689    80A      2.238118  
      81A      2.280668    82A      2.308520    83A      2.324026  
      84A      2.362035    85A      2.396467    86A      2.471432  
      87A      2.620115    88A      2.627750    89A      2.673884  
      90A      2.711275    91A      2.773559    92A      2.813709  
      93A      2.861428    94A      2.914606    95A      2.990216  
      96A      3.033730    97A      3.061422    98A      3.147096  
      99A      3.182721   100A      3.234211   101A      3.242623  
     102A      3.267961   103A      3.285257   104A      3.302135  
     105A      3.330478   106A      3.356410   107A      3.393484  
     108A      3.407069   109A      3.431401   110A      3.433478  
     111A      3.474327   112A      3.499075   113A      3.563419  
     114A      3.611488   115A      3.648254   116A      3.678779  
     117A      3.691080   118A      3.726560   119A      3.747168  
     120A      3.774978   121A      3.810973   122A      3.816004  
     123A      3.822479   124A      3.881940   125A      3.902267  
     126A      3.974005   127A      4.014247   128A      4.056416  
     129A      4.074739   130A      4.080377   131A      4.157643  
     132A      4.161038   133A      4.165645   134A      4.186271  
     135A      4.229248   136A      4.268708   137A      4.279191  
     138A      4.315590   139A      4.330842   140A      4.354747  
     141A      4.379208   142A      4.413489   143A      4.446650  
     144A      4.463444   145A      4.471687   146A      4.539095  
     147A      4.549226   148A      4.596806   149A      4.647627  
     150A      4.691503   151A      4.735034   152A      4.780687  
     153A      4.847174   154A      4.883926   155A      4.963212  
     156A      5.009708   157A      5.072307   158A      5.098370  
     159A      5.166734   160A      5.197558   161A      5.225031  
     162A      5.237982   163A      5.267779   164A      5.368144  
     165A      5.375415   166A      5.422038   167A      5.466359  
     168A      5.526801   169A      5.688732   170A      5.740289  
     171A      5.753349   172A      5.788011   173A      5.830000  
     174A      5.948069   175A      5.985759   176A      6.113858  
     177A      6.196620   178A      6.217831   179A      6.238408  
     180A      6.340479   181A      6.472448   182A      6.553091  
     183A      6.666012   184A      6.725676   185A      7.045426  
     186A      7.096210   187A      7.153595   188A      7.181201  
     189A      7.219778   190A      7.234116   191A      7.284570  
     192A      7.305768   193A      7.418055   194A      7.438220  
     195A      7.531914   196A      7.597821   197A      7.705248  
     198A      7.735342   199A      7.995106   200A      8.034957  
     201A     12.630831   202A     12.829392   203A     13.248966  
     204A     13.723212  

    Final Occupation by Irrep:
              A 
    DOCC [    17 ]

  Energy converged.

  @DF-RHF Final Energy:  -229.02322255579719

   => Energetics <=

    Nuclear Repulsion Energy =            134.6770589186397160
    One-Electron Energy =                -580.5481557921775675
    Two-Electron Energy =                 216.8478743177406898
    DFT Exchange-Correlation Energy =       0.0000000000000000
    Empirical Dispersion Energy =           0.0000000000000000
    PCM Polarization Energy =               0.0000000000000000
    EFP Energy =                            0.0000000000000000
    Total Energy =                       -229.0232225557971617


  Saving occupied orbitals to File 180.

*** tstop() called on cx1-27-1-2 at Sat Sep 10 15:49:36 2016
Module time:
	user time   =       8.83 seconds =       0.15 minutes
	system time =       0.32 seconds =       0.01 minutes
	total time  =          3 seconds =       0.05 minutes
Total time:
	user time   =       8.83 seconds =       0.15 minutes
	system time =       0.32 seconds =       0.01 minutes
	total time  =          3 seconds =       0.05 minutes


Properties will be evaluated at   0.000000,   0.000000,   0.000000 Bohr

Properties computed using the SCF density matrix

  Nuclear Dipole Moment: (a.u.)
     X:     1.1954      Y:     2.3769      Z:    -0.8241

  Electronic Dipole Moment: (a.u.)
     X:    -0.2255      Y:    -1.8482      Z:     0.2199

  Dipole Moment: (a.u.)
     X:     0.9699      Y:     0.5288      Z:    -0.6042     Total:     1.2591

  Dipole Moment: (Debye)
     X:     2.4653      Y:     1.3440      Z:    -1.5358     Total:     3.2004


*** tstart() called on cx1-27-1-2
*** at Sat Sep 10 15:49:36 2016


         ------------------------------------------------------------
                                   SCF GRAD                          
                          Rob Parrish, Justin Turney,                
                       Andy Simmonett, and Alex Sokolov              
         ------------------------------------------------------------

  ==> Geometry <==

    Molecular point group: c1
    Full point group: C1

    Geometry (in Angstrom), charge = 0, multiplicity = 1:

       Center              X                  Y                   Z               Mass       
    ------------   -----------------  -----------------  -----------------  -----------------
           H          2.189316444012    -0.633559506709    -0.196213908065     1.007825032070
           O          1.354151444012    -0.533867506709     0.221166091935    15.994914619560
           C          0.698920444012     0.615137493291    -0.253737908065    12.000000000000
           C         -0.714367555988     0.583897493291     0.278681091935    12.000000000000
           H          0.677423444012     0.622716493291    -1.339281908065     1.007825032070
           H          1.198490444012     1.517072493291     0.090240091935     1.007825032070
           O         -1.422929555988    -0.525794506709    -0.184478908065    15.994914619560
           H         -1.246050555988     1.464744493291    -0.056554908065     1.007825032070
           H         -0.686356555988     0.600304493291     1.365187091935     1.007825032070
           H         -0.857338555988    -1.030377506709    -0.742622908065     1.007825032070

  Nuclear repulsion =  134.677058918639716

  ==> Basis Set <==

  Basis Set: CC-PVTZ
    Number of shells: 76
    Number of basis function: 204
    Number of Cartesian functions: 230
    Spherical Harmonics?: true
    Max angular momentum: 3

  ==> DFJKGrad: Density-Fitted SCF Gradients <==

    Gradient:                    1
    J tasked:                  Yes
    K tasked:                  Yes
    wK tasked:                  No
    OpenMP threads:              4
    Integrals threads:           4
    Memory (MB):              1430
    Schwarz Cutoff:          0E+00
    Fitting Condition:       1E-12

   => Auxiliary Basis Set <=

  Basis Set: 
    Number of shells: 160
    Number of basis function: 496
    Number of Cartesian functions: 594
    Spherical Harmonics?: true
    Max angular momentum: 4


  -Total Gradient:
     Atom            X                  Y                   Z
    ------   -----------------  -----------------  -----------------
       1       -0.000705248190    -0.000559036390    -0.000212949240
       2       -0.000266427371    -0.000696357195     0.002682840023
       3       -0.000781508243     0.000615427165    -0.005919753535
       4        0.001180517280    -0.004151718378     0.002689049044
       5       -0.000562638249    -0.000912677875     0.001547275167
       6        0.000534829709     0.000075053510     0.001084277150
       7       -0.001693142535     0.004004975752     0.001588408742
       8       -0.002207425746    -0.005200549721    -0.001366438690
       9        0.001201635278     0.003546289946     0.002007825460
      10        0.003299408068     0.003278593185    -0.004100534122


*** tstop() called on cx1-27-1-2 at Sat Sep 10 15:49:39 2016
Module time:
	user time   =       9.13 seconds =       0.15 minutes
	system time =       0.26 seconds =       0.00 minutes
	total time  =          3 seconds =       0.05 minutes
Total time:
	user time   =      18.01 seconds =       0.30 minutes
	system time =       0.58 seconds =       0.01 minutes
	total time  =          6 seconds =       0.10 minutes

			-----------------------------------------
			 OPTKING 2.0: for geometry optimizations 
			  - R.A. King,  Bethel University        
			-----------------------------------------

	Internal coordinates to be generated automatically.
	Detected frag 1 with atoms:  1 2 3 4 5 6 7 8 9 10
	---Fragment 1 Bond Connectivity---
	 1 : 2
	 2 : 1 3
	 3 : 2 4 5 6
	 4 : 3 7 8 9
	 5 : 3
	 6 : 3
	 7 : 4 10
	 8 : 4
	 9 : 4
	 10 : 7

	Assuming in current code that numbering for constraints corresponds to unified fragment.
	Frozen dihedral atom list: 
	    10     7     4     3
	---Fragment 1 Geometry and Gradient---
	 H           4.1372084974       -1.1972539566       -0.3707905497
	 O           2.5589753716       -1.0088633789        0.4179433436
	 C           1.3207682279        1.1624413964       -0.4794951558
	 C          -1.3499590390        1.1034063520        0.5266309422
	 H           1.2801447852        1.1767636308       -2.5308760210
	 H           2.2648187121        2.8668515361        0.1705290600
	 O          -2.6889471672       -0.9936076199       -0.3486146135
	 H          -2.3546942985        2.7679659470       -0.1068732877
	 H          -1.2970259203        1.1344110887        2.5798297239
	 H          -1.6201350740       -1.9471313012       -1.4033539163
	            -0.0007052482       -0.0005590364       -0.0002129492
	            -0.0002664274       -0.0006963572        0.0026828400
	            -0.0007815082        0.0006154272       -0.0059197535
	             0.0011805173       -0.0041517184        0.0026890490
	            -0.0005626382       -0.0009126779        0.0015472752
	             0.0005348297        0.0000750535        0.0010842771
	            -0.0016931425        0.0040049758        0.0015884087
	            -0.0022074257       -0.0052005497       -0.0013664387
	             0.0012016353        0.0035462899        0.0020078255
	             0.0032994081        0.0032785932       -0.0041005341

	Previous optimization step data not found.  Starting new optimization.

	---Fragment 1 Intrafragment Coordinates---
	 - Coordinate -           - BOHR/RAD -       - ANG/DEG -
	 R(1,2)           =         1.774376	       0.938960
	 R(2,3)           =         2.655771	       1.405373
	 R(3,4)           =         2.854568	       1.510572
	 R(3,5)           =         2.051833	       1.085783
	 R(3,6)           =         2.053966	       1.086912
	 R(4,7)           =         2.637501	       1.395705
	 R(4,8)           =         2.044891	       1.082110
	 R(4,9)           =         2.054115	       1.086991
	 R(7,10)          =         1.778775	       0.941287
	 B(1,2,3)         =         1.929744	     110.566185
	 B(2,3,4)         =         1.875692	     107.469257
	 B(2,3,5)         =         1.931340	     110.657653
	 B(2,3,6)         =         1.936071	     110.928676
	 B(3,4,7)         =         1.954608	     111.990780
	 B(3,4,8)         =         1.910990	     109.491639
	 B(3,4,9)         =         1.904858	     109.140314
	 B(4,3,5)         =         1.911346	     109.512038
	 B(4,3,6)         =         1.913080	     109.611411
	 B(4,7,10)        =         1.894343	     108.537865
	 B(5,3,6)         =         1.896220	     108.645423
	 B(7,4,8)         =         1.870203	     107.154766
	 B(7,4,9)         =         1.935617	     110.902683
	 B(8,4,9)         =         1.886026	     108.061352
	 D(1,2,3,4)       =         2.978257	     170.641537
	 D(1,2,3,5)       =         0.892078	      51.112295
	 D(1,2,3,6)       =        -1.213904	     -69.551588
	 D(2,3,4,7)       =        -1.084178	     -62.118827
	 D(2,3,4,8)       =         3.127127	     179.171198
	 D(2,3,4,9)       =         1.065935	      61.073581
	*D(3,4,7,10)      =         0.000000	       0.000000
	 D(5,3,4,7)       =         1.014719	      58.139093
	 D(5,3,4,8)       =        -1.057161	     -60.570882
	 D(5,3,4,9)       =        -3.118354	    -178.668499
	 D(6,3,4,7)       =         3.093408	     177.239223
	 D(6,3,4,8)       =         1.021528	      58.529248
	 D(6,3,4,9)       =        -1.039664	     -59.568369
	 D(8,4,7,10)      =         2.095856	     120.083731
	 D(9,4,7,10)      =        -2.132648	    -122.191713

	Current energy   :      -229.0232225558

	Generating empirical Hessian (Schlegel '84) for each fragment.
	Taking RFO optimization step.
	Going to follow RFO solution 1.
	Using RFO vector 1.
	Norm of target step-size    0.24738
	Projected energy change by RFO approximation:        -0.0087647713

	Back-transformation to cartesian coordinates...
	Could not converge backtransformation.
	Using first guess instead.

	Back-transformation to cartesian coordinates to adjust frozen coordinates...
	Successfully converged to displaced geometry.

	--- Internal Coordinate Step in ANG or DEG, aJ/ANG or AJ/DEG ---
	 ---------------------------------------------------------------------------
	   Coordinate                Previous        Force       Change         New 
	   ----------                --------       ------       ------       ------
	    1 R(1,2)          =      0.938960     0.003899     0.070712     1.009672
	    2 R(2,3)          =      1.405373    -0.011600     0.186030     1.591403
	    3 R(3,4)          =      1.510572     0.011604     0.092943     1.603515
	    4 R(3,5)          =      1.085783     0.012705     0.151812     1.237596
	    5 R(3,6)          =      1.086912    -0.005365     0.042394     1.129306
	    6 R(4,7)          =      1.395705     0.047561     0.048757     1.444463
	    7 R(4,8)          =      1.082110     0.022454     0.148971     1.231081
	    8 R(4,9)          =      1.086991    -0.017231     0.144578     1.231569
	    9 R(7,10)         =      0.941287    -0.021886     0.128210     1.069497
	   10 B(1,2,3)        =    110.566185    -0.000032     2.653343   113.219528
	   11 B(2,3,4)        =    107.469257     0.000362     4.730136   112.199392
	   12 B(2,3,5)        =    110.657653    -0.000139    -0.488169   110.169484
	   13 B(2,3,6)        =    110.928676    -0.000056     0.227982   111.156658
	   14 B(3,4,7)        =    111.990780     0.000486    -4.884048   107.106732
	   15 B(3,4,8)        =    109.491639    -0.000319     2.817424   112.309063
	   16 B(3,4,9)        =    109.140314    -0.000020     0.204447   109.344761
	   17 B(4,3,5)        =    109.512038    -0.000031     0.604629   110.116667
	   18 B(4,3,6)        =    109.611411    -0.000115    -7.151081   102.460330
	   19 B(4,7,10)       =    108.537865     0.000538     6.142518   114.680383
	   20 B(5,3,6)        =    108.645423    -0.000019     1.878743   110.524167
	   21 B(7,4,8)        =    107.154766     0.000245     3.470305   110.625072
	   22 B(7,4,9)        =    110.902683    -0.000465    -1.319790   109.582893
	   23 B(8,4,9)        =    108.061352     0.000061    -0.207497   107.853855
	   24 D(1,2,3,4)      =    170.641537     0.000011     3.220268   173.861805
	   25 D(1,2,3,5)      =     51.112295    -0.000012    -0.318448    50.793847
	   26 D(1,2,3,6)      =    -69.551588     0.000023    -2.519329   -72.070918
	   27 D(2,3,4,7)      =    -62.118827     0.000061     3.795307   -58.323520
	   28 D(2,3,4,8)      =    179.171198    -0.000031     0.860106   180.031304
	   29 D(2,3,4,9)      =     61.073581    -0.000003    -0.730133    60.343448
	   30 *D(3,4,7,10)    =      0.000000     0.000000     0.000000     0.000000
	   31 D(5,3,4,7)      =     58.139093     0.000067     6.635082    64.774175
	   32 D(5,3,4,8)      =    -60.570882    -0.000024     3.699881   -56.871001
	   33 D(5,3,4,9)      =   -178.668499     0.000004     2.109642  -176.558857
	   34 D(6,3,4,7)      =    177.239223     0.000042     5.136730   182.375954
	   35 D(6,3,4,8)      =     58.529248    -0.000050     2.201529    60.730777
	   36 D(6,3,4,9)      =    -59.568369    -0.000022     0.611290   -58.957078
	   37 D(8,4,7,10)     =    120.083731     0.000012     2.614010   122.697740
	   38 D(9,4,7,10)     =   -122.191713     0.000004     3.678933  -118.512780
	 ---------------------------------------------------------------------------
	Successfully symmetrized geometry.

  ==> Convergence Check <==

  Measures of convergence in internal coordinates in au.
  Criteria marked as inactive (o), active & met (*), and active & unmet ( ).
  --------------------------------------------------------------------------------------------- ~
   Step     Total Energy     Delta E     MAX Force     RMS Force      MAX Disp      RMS Disp    ~
  --------------------------------------------------------------------------------------------- ~
    Convergence Criteria    1.00e-06 *    3.00e-04 *             o    1.20e-03 *             o  ~
  --------------------------------------------------------------------------------------------- ~
      1    -229.02322256   -2.29e+02      7.06e-03      2.79e-03 o    3.52e-01      1.23e-01 o  ~
  ---------------------------------------------------------------------------------------------

	Writing optimization data to binary file.
	Structure for next step:
	Cartesian Geometry (in Angstrom)
	    H     2.1616684417  -0.5904784243  -1.2693040813
	    O     1.4234660393  -0.6858668404  -0.5871054147
	    C     0.6567794097   0.6782534703  -0.2973975560
	    C    -0.6074074900   0.4697678254   0.6667734272
	    H     0.2994888146   1.2010848040  -1.3607100672
	    H     1.3015958836   1.3899847710   0.2967260315
	    O    -1.4824659736  -0.4805827743   0.0205701402
	    H    -1.2024071109   1.5237716120   0.8917448845
	    H    -0.2268826016   0.0133119172   1.7454811243
	    H    -1.1325759727  -0.8389724281  -0.9243945690
			--------------------------
			 OPTKING Finished Execution 
			--------------------------

    Structure for next step:
    Molecular point group: c1
    Full point group: C1

    Geometry (in Angstrom), charge = 0, multiplicity = 1:

    H            2.147821034238    -0.555641239256    -1.184604573792
    O            1.409618631840    -0.651029655433    -0.502405907279
    C            0.642932002249     0.713090655350    -0.212698048582
    C           -0.621254897507     0.504605010428     0.751472934683
    H            0.285641407121     1.235921989000    -1.276010559738
    H            1.287748476151     1.424821955981     0.381425538987
    O           -1.496313381026    -0.445745589246     0.105269647622
    H           -1.216254518412     1.558608797039     0.976444391919
    H           -0.240730009060     0.048149102206     1.830180631763
    H           -1.146423380147    -0.804135243041    -0.839695061577

gradient() will perform analytic gradient computation.

*** tstart() called on cx1-27-1-2
*** at Sat Sep 10 15:49:39 2016


         ---------------------------------------------------------
                                   SCF
            by Justin Turney, Rob Parrish, and Andy Simmonett
                              RHF Reference
                        4 Threads,   2000 MiB Core
         ---------------------------------------------------------

  ==> Geometry <==

    Molecular point group: c1
    Full point group: C1

    Geometry (in Angstrom), charge = 0, multiplicity = 1:

       Center              X                  Y                   Z               Mass       
    ------------   -----------------  -----------------  -----------------  -----------------
           H          2.147821034238    -0.555641239256    -1.184604573792     1.007825032070
           O          1.409618631840    -0.651029655433    -0.502405907279    15.994914619560
           C          0.642932002249     0.713090655350    -0.212698048582    12.000000000000
           C         -0.621254897507     0.504605010428     0.751472934683    12.000000000000
           H          0.285641407121     1.235921989000    -1.276010559738     1.007825032070
           H          1.287748476151     1.424821955981     0.381425538987     1.007825032070
           O         -1.496313381026    -0.445745589246     0.105269647622    15.994914619560
           H         -1.216254518412     1.558608797039     0.976444391919     1.007825032070
           H         -0.240730009060     0.048149102206     1.830180631763     1.007825032070
           H         -1.146423380147    -0.804135243041    -0.839695061577     1.007825032070

  Running in c1 symmetry.

  Rotational constants: A =      0.44743  B =      0.16372  C =      0.13587 [cm^-1]
  Rotational constants: A =  13413.65356  B =   4908.05572  C =   4073.24069 [MHz]
  Nuclear repulsion =  124.562191776258643

  Charge       = 0
  Multiplicity = 1
  Electrons    = 34
  Nalpha       = 17
  Nbeta        = 17

  ==> Algorithm <==

  SCF Algorithm Type is DF.
  DIIS enabled.
  MOM disabled.
  Fractional occupation disabled.
  Guess Type is READ.
  Energy threshold   = 1.00e-08
  Density threshold  = 1.00e-08
  Integral threshold = 0.00e+00

  ==> Primary Basis <==

  Basis Set: CC-PVTZ
    Number of shells: 76
    Number of basis function: 204
    Number of Cartesian functions: 230
    Spherical Harmonics?: true
    Max angular momentum: 3

  ==> Pre-Iterations <==

   -------------------------------------------------------
    Irrep   Nso     Nmo     Nalpha   Nbeta   Ndocc  Nsocc
   -------------------------------------------------------
     A        204     204       0       0       0       0
   -------------------------------------------------------
    Total     204     204      17      17      17       0
   -------------------------------------------------------

  ==> Integral Setup <==

  ==> DFJK: Density-Fitted J/K Matrices <==

    J tasked:                  Yes
    K tasked:                  Yes
    wK tasked:                  No
    OpenMP threads:              4
    Integrals threads:           4
    Memory (MB):              1430
    Algorithm:                Core
    Integral Cache:           NONE
    Schwarz Cutoff:          1E-12
    Fitting Condition:       1E-12

   => Auxiliary Basis Set <=

  Basis Set: 
    Number of shells: 160
    Number of basis function: 496
    Number of Cartesian functions: 594
    Spherical Harmonics?: true
    Max angular momentum: 4

  Minimum eigenvalue in the overlap matrix is 1.0447060891E-03.
  Using Symmetric Orthogonalization.
  SCF Guess: Reading in previously saved MOs, projecting if necessary.

  Using orbitals from previous SCF, no projection.
  Recomputing DOCC and SOCC from number of alpha and beta electrons from previous calculation.
              A 
    DOCC [    17 ]

  ==> Iterations <==

                           Total Energy        Delta E     RMS |[F,P]|

   @DF-RHF iter   0:  -227.82717002826638   -2.27827e+02   4.35868e-03 
   @DF-RHF iter   1:  -228.85036815979078   -1.02320e+00   1.74234e-03 
   @DF-RHF iter   2:  -228.91570496863324   -6.53368e-02   9.46325e-04 DIIS
   @DF-RHF iter   3:  -228.93212582034033   -1.64209e-02   1.86101e-04 DIIS
   @DF-RHF iter   4:  -228.93401831985352   -1.89250e-03   8.19680e-05 DIIS
   @DF-RHF iter   5:  -228.93424264516619   -2.24325e-04   2.84945e-05 DIIS
   @DF-RHF iter   6:  -228.93428714575680   -4.45006e-05   8.14756e-06 DIIS
   @DF-RHF iter   7:  -228.93429228011604   -5.13436e-06   2.26293e-06 DIIS
   @DF-RHF iter   8:  -228.93429262163141   -3.41515e-07   7.83232e-07 DIIS
   @DF-RHF iter   9:  -228.93429264440675   -2.27753e-08   2.87292e-07 DIIS
   @DF-RHF iter  10:  -228.93429264805093   -3.64417e-09   7.00636e-08 DIIS
   @DF-RHF iter  11:  -228.93429264832019   -2.69267e-10   2.66219e-08 DIIS
   @DF-RHF iter  12:  -228.93429264835873   -3.85398e-11   9.92836e-09 DIIS

  ==> Post-Iterations <==

    Orbital Energies (a.u.)
    -----------------------

    Doubly Occupied:                                                      

       1A    -20.569137     2A    -20.555055     3A    -11.329505  
       4A    -11.326006     5A     -1.325749     6A     -1.301405  
       7A     -0.970511     8A     -0.811520     9A     -0.661313  
      10A     -0.628796    11A     -0.625888    12A     -0.579386  
      13A     -0.552793    14A     -0.514090    15A     -0.466467  
      16A     -0.456071    17A     -0.429786  

    Virtual:                                                              

      18A      0.128710    19A      0.148743    20A      0.169952  
      21A      0.177160    22A      0.194295    23A      0.218449  
      24A      0.274624    25A      0.299712    26A      0.315547  
      27A      0.404864    28A      0.465725    29A      0.478888  
      30A      0.499205    31A      0.528032    32A      0.546403  
      33A      0.556451    34A      0.565935    35A      0.573079  
      36A      0.583922    37A      0.606038    38A      0.620486  
      39A      0.711639    40A      0.715797    41A      0.723600  
      42A      0.771581    43A      0.808482    44A      0.825327  
      45A      0.828544    46A      0.849816    47A      0.917342  
      48A      0.929761    49A      0.945118    50A      0.972788  
      51A      1.012721    52A      1.075743    53A      1.102500  
      54A      1.147568    55A      1.177877    56A      1.218018  
      57A      1.228613    58A      1.241962    59A      1.255092  
      60A      1.282851    61A      1.297311    62A      1.322373  
      63A      1.334916    64A      1.375605    65A      1.406792  
      66A      1.450817    67A      1.467889    68A      1.477975  
      69A      1.501973    70A      1.508013    71A      1.534552  
      72A      1.558447    73A      1.618310    74A      1.678903  
      75A      1.782837    76A      1.858155    77A      2.028569  
      78A      2.103377    79A      2.112387    80A      2.159248  
      81A      2.179122    82A      2.236830    83A      2.247087  
      84A      2.348634    85A      2.396514    86A      2.419316  
      87A      2.575798    88A      2.638984    89A      2.665439  
      90A      2.740945    91A      2.765530    92A      2.787851  
      93A      2.807753    94A      2.848706    95A      2.892505  
      96A      2.946005    97A      3.013594    98A      3.056930  
      99A      3.107820   100A      3.120029   101A      3.155656  
     102A      3.180589   103A      3.213874   104A      3.238442  
     105A      3.269052   106A      3.302004   107A      3.332118  
     108A      3.350483   109A      3.366326   110A      3.407138  
     111A      3.422491   112A      3.434882   113A      3.459295  
     114A      3.488350   115A      3.556056   116A      3.581317  
     117A      3.588519   118A      3.601849   119A      3.606807  
     120A      3.642922   121A      3.658633   122A      3.696463  
     123A      3.734758   124A      3.753413   125A      3.768542  
     126A      3.834695   127A      3.862725   128A      3.880070  
     129A      3.940226   130A      3.966322   131A      3.980706  
     132A      3.997920   133A      4.034143   134A      4.042330  
     135A      4.082291   136A      4.087418   137A      4.097270  
     138A      4.136848   139A      4.160114   140A      4.185033  
     141A      4.208131   142A      4.258017   143A      4.271211  
     144A      4.285012   145A      4.307529   146A      4.339030  
     147A      4.361141   148A      4.372632   149A      4.471642  
     150A      4.481329   151A      4.531387   152A      4.595629  
     153A      4.613610   154A      4.636125   155A      4.724471  
     156A      4.734602   157A      4.790986   158A      4.809032  
     159A      4.833918   160A      4.884893   161A      4.904914  
     162A      4.956299   163A      5.003225   164A      5.032475  
     165A      5.068149   166A      5.119902   167A      5.143157  
     168A      5.189164   169A      5.323734   170A      5.361301  
     171A      5.400917   172A      5.562818   173A      5.618059  
     174A      5.702536   175A      5.795592   176A      5.876275  
     177A      5.898374   178A      5.948508   179A      6.062661  
     180A      6.096007   181A      6.132144   182A      6.284148  
     183A      6.353351   184A      6.530347   185A      6.664816  
     186A      6.813291   187A      6.849652   188A      6.914975  
     189A      7.073829   190A      7.106047   191A      7.138823  
     192A      7.189654   193A      7.244205   194A      7.268458  
     195A      7.376863   196A      7.397857   197A      7.615972  
     198A      7.698558   199A      7.711555   200A      7.763309  
     201A     10.619877   202A     11.247838   203A     11.416090  
     204A     11.676277  

    Final Occupation by Irrep:
              A 
    DOCC [    17 ]

  Energy converged.

  @DF-RHF Final Energy:  -228.93429264835873

   => Energetics <=

    Nuclear Repulsion Energy =            124.5621917762586435
    One-Electron Energy =                -560.7860092061098385
    Two-Electron Energy =                 207.2895247814925597
    DFT Exchange-Correlation Energy =       0.0000000000000000
    Empirical Dispersion Energy =           0.0000000000000000
    PCM Polarization Energy =               0.0000000000000000
    EFP Energy =                            0.0000000000000000
    Total Energy =                       -228.9342926483586211


  Saving occupied orbitals to File 180.

*** tstop() called on cx1-27-1-2 at Sat Sep 10 15:49:42 2016
Module time:
	user time   =       7.47 seconds =       0.12 minutes
	system time =       0.17 seconds =       0.00 minutes
	total time  =          3 seconds =       0.05 minutes
Total time:
	user time   =      27.31 seconds =       0.46 minutes
	system time =       0.83 seconds =       0.01 minutes
	total time  =          9 seconds =       0.15 minutes


Properties will be evaluated at   0.000000,   0.000000,   0.000000 Bohr

Properties computed using the SCF density matrix

  Nuclear Dipole Moment: (a.u.)
     X:     1.0475      Y:     2.7206      Z:    -0.1071

  Electronic Dipole Moment: (a.u.)
     X:    -0.3812      Y:    -1.8733      Z:    -0.4539

  Dipole Moment: (a.u.)
     X:     0.6663      Y:     0.8474      Z:    -0.5611     Total:     1.2152

  Dipole Moment: (Debye)
     X:     1.6935      Y:     2.1538      Z:    -1.4262     Total:     3.0888


*** tstart() called on cx1-27-1-2
*** at Sat Sep 10 15:49:42 2016


         ------------------------------------------------------------
                                   SCF GRAD                          
                          Rob Parrish, Justin Turney,                
                       Andy Simmonett, and Alex Sokolov              
         ------------------------------------------------------------

  ==> Geometry <==

    Molecular point group: c1
    Full point group: C1

    Geometry (in Angstrom), charge = 0, multiplicity = 1:

       Center              X                  Y                   Z               Mass       
    ------------   -----------------  -----------------  -----------------  -----------------
           H          2.147821034238    -0.555641239256    -1.184604573792     1.007825032070
           O          1.409618631840    -0.651029655433    -0.502405907279    15.994914619560
           C          0.642932002249     0.713090655350    -0.212698048582    12.000000000000
           C         -0.621254897507     0.504605010428     0.751472934683    12.000000000000
           H          0.285641407121     1.235921989000    -1.276010559738     1.007825032070
           H          1.287748476151     1.424821955981     0.381425538987     1.007825032070
           O         -1.496313381026    -0.445745589246     0.105269647622    15.994914619560
           H         -1.216254518412     1.558608797039     0.976444391919     1.007825032070
           H         -0.240730009060     0.048149102206     1.830180631763     1.007825032070
           H         -1.146423380147    -0.804135243041    -0.839695061577     1.007825032070

  Nuclear repulsion =  124.562191776258643

  ==> Basis Set <==

  Basis Set: CC-PVTZ
    Number of shells: 76
    Number of basis function: 204
    Number of Cartesian functions: 230
    Spherical Harmonics?: true
    Max angular momentum: 3

  ==> DFJKGrad: Density-Fitted SCF Gradients <==

    Gradient:                    1
    J tasked:                  Yes
    K tasked:                  Yes
    wK tasked:                  No
    OpenMP threads:              4
    Integrals threads:           4
    Memory (MB):              1430
    Schwarz Cutoff:          0E+00
    Fitting Condition:       1E-12

   => Auxiliary Basis Set <=

  Basis Set: 
    Number of shells: 160
    Number of basis function: 496
    Number of Cartesian functions: 594
    Spherical Harmonics?: true
    Max angular momentum: 4


  -Total Gradient:
     Atom            X                  Y                   Z
    ------   -----------------  -----------------  -----------------
       1        0.050466906508    -0.006990064015    -0.043325333019
       2        0.007373723922    -0.068716662991     0.016532329530
       3       -0.007056432865    -0.004440917343     0.016833946634
       4       -0.010755609690     0.021322143953     0.001902190109
       5       -0.022648914664     0.033956749164    -0.061831735597
       6        0.004730672798     0.021003859583     0.027128084647
       7       -0.029803421500     0.009098526877     0.055517072382
       8       -0.037210378821     0.059036005063     0.017686027309
       9        0.022634191346    -0.025520208678     0.062281274557
      10        0.022269262964    -0.038749431615    -0.092723856553


*** tstop() called on cx1-27-1-2 at Sat Sep 10 15:49:44 2016
Module time:
	user time   =       8.31 seconds =       0.14 minutes
	system time =       0.25 seconds =       0.00 minutes
	total time  =          2 seconds =       0.03 minutes
Total time:
	user time   =      35.66 seconds =       0.59 minutes
	system time =       1.08 seconds =       0.02 minutes
	total time  =         11 seconds =       0.18 minutes

			-----------------------------------------
			 OPTKING 2.0: for geometry optimizations 
			  - R.A. King,  Bethel University        
			-----------------------------------------

	Previous internal coordinate definitions found.
	---Fragment 1 Geometry and Gradient---
	 H           4.0587935372       -1.0500097703       -2.2385782202
	 O           2.6637931660       -1.2302677532       -0.9494095723
	 C           1.2149654063        1.3475460465       -0.4019410608
	 C          -1.1740016150        0.9535652750        1.4200780428
	 H           0.5397840317        2.3355540808       -2.4113105006
	 H           2.4334919480        2.6925232849        0.7207898088
	 O          -2.8276224991       -0.8423370886        0.1989308041
	 H          -2.2983879477        2.9453437747        1.8452124847
	 H          -0.4549137891        0.0909886167        3.4585401677
	 H          -2.1664262208       -1.5195953831       -1.5867937015
	             0.0504669065       -0.0069900640       -0.0433253330
	             0.0073737239       -0.0687166630        0.0165323295
	            -0.0070564329       -0.0044409173        0.0168339466
	            -0.0107556097        0.0213221440        0.0019021901
	            -0.0226489147        0.0339567492       -0.0618317356
	             0.0047306728        0.0210038596        0.0271280846
	            -0.0298034215        0.0090985269        0.0555170724
	            -0.0372103788        0.0590360051        0.0176860273
	             0.0226341913       -0.0255202087        0.0622812746
	             0.0222692630       -0.0387494316       -0.0927238566

	---Fragment 1 Intrafragment Coordinates---
	 - Coordinate -           - BOHR/RAD -       - ANG/DEG -
	 R(1,2)           =         1.908003	       1.009672
	 R(2,3)           =         3.007316	       1.591403
	 R(3,4)           =         3.030204	       1.603515
	 R(3,5)           =         2.338717	       1.237596
	 R(3,6)           =         2.134079	       1.129306
	 R(4,7)           =         2.729639	       1.444463
	 R(4,8)           =         2.326406	       1.231081
	 R(4,9)           =         2.327328	       1.231569
	 R(7,10)          =         2.021057	       1.069497
	 B(1,2,3)         =         1.976054	     113.219528
	 B(2,3,4)         =         1.958249	     112.199392
	 B(2,3,5)         =         1.922820	     110.169484
	 B(2,3,6)         =         1.940050	     111.156658
	 B(3,4,7)         =         1.869365	     107.106732
	 B(3,4,8)         =         1.960163	     112.309063
	 B(3,4,9)         =         1.908426	     109.344761
	 B(4,3,5)         =         1.921898	     110.116667
	 B(4,3,6)         =         1.788270	     102.460330
	 B(4,7,10)        =         2.001550	     114.680383
	 B(5,3,6)         =         1.929011	     110.524167
	 B(7,4,8)         =         1.930772	     110.625072
	 B(7,4,9)         =         1.912582	     109.582893
	 B(8,4,9)         =         1.882405	     107.853855
	 D(1,2,3,4)       =         3.034461	     173.861805
	 D(1,2,3,5)       =         0.886520	      50.793847
	 D(1,2,3,6)       =        -1.257875	     -72.070918
	 D(2,3,4,7)       =        -1.017937	     -58.323520
	 D(2,3,4,8)       =        -3.141046	    -179.968696
	 D(2,3,4,9)       =         1.053192	      60.343448
	*D(3,4,7,10)      =        -0.000000	      -0.000000
	 D(5,3,4,7)       =         1.130523	      64.774175
	 D(5,3,4,8)       =        -0.992586	     -56.871001
	 D(5,3,4,9)       =        -3.081533	    -176.558857
	 D(6,3,4,7)       =        -3.100124	    -177.624046
	 D(6,3,4,8)       =         1.059952	      60.730777
	 D(6,3,4,9)       =        -1.028995	     -58.957078
	 D(8,4,7,10)      =         2.141480	     122.697740
	 D(9,4,7,10)      =        -2.068438	    -118.512780

	Current energy   :      -228.9342926484

	Energy change for the previous step:
		Projected    :        -0.0087647713
		Actual       :         0.0889299074

	Performing BFGS update.
	Previous computed or guess Hessian on step 1.
	Steps to be used in Hessian update: 1
	Taking RFO optimization step.
	Going to follow RFO solution 1.
	Using RFO vector 1.

	Determining step-restricting scale parameter for RS-RFO.
	Maximum step size allowed    0.50000

	 Iter      |step|        alpha        rfo_root  
	------------------------------------------------
	    0     0.52444       1.00000           1
	    1     0.50186       1.20987           1
	    2     0.50001       1.22861           1
	    3     0.50000       1.22874           1
	------------------------------------------------
	Norm of target step-size    0.50000
	Projected energy change by RFO approximation:        -0.0882632301

	Back-transformation to cartesian coordinates...
	Successfully converged to displaced geometry.

	Back-transformation to cartesian coordinates to adjust frozen coordinates...
	Successfully converged to displaced geometry.

	--- Internal Coordinate Step in ANG or DEG, aJ/ANG or AJ/DEG ---
	 ---------------------------------------------------------------------------
	   Coordinate                Previous        Force       Change         New 
	   ----------                --------       ------       ------       ------
	    1 R(1,2)          =      1.009672    -0.539726    -0.054405     0.955267
	    2 R(2,3)          =      1.591403    -0.804409    -0.127328     1.464075
	    3 R(3,4)          =      1.603515    -0.407745    -0.062087     1.541428
	    4 R(3,5)          =      1.237596    -0.609734    -0.099873     1.137723
	    5 R(3,6)          =      1.129306    -0.248896    -0.031964     1.097343
	    6 R(4,7)          =      1.444463    -0.335459    -0.033877     1.410586
	    7 R(4,8)          =      1.231081    -0.591216    -0.096870     1.134211
	    8 R(4,9)          =      1.231569    -0.584974    -0.097927     1.133642
	    9 R(7,10)         =      1.069497    -0.841977    -0.096667     0.972831
	   10 B(1,2,3)        =    113.219528    -0.001953    -2.690638   110.528890
	   11 B(2,3,4)        =    112.199392    -0.001849    -2.743496   109.455896
	   12 B(2,3,5)        =    110.169484     0.000367     0.446734   110.616218
	   13 B(2,3,6)        =    111.156658    -0.000278    -0.454045   110.702613
	   14 B(3,4,7)        =    107.106732     0.002596     4.511991   111.618723
	   15 B(3,4,8)        =    112.309063    -0.001052    -2.065328   110.243735
	   16 B(3,4,9)        =    109.344761    -0.000475    -0.776996   108.567765
	   17 B(4,3,5)        =    110.116667     0.000387     0.236035   110.352702
	   18 B(4,3,6)        =    102.460330     0.001884     3.811955   106.272285
	   19 B(4,7,10)       =    114.680383    -0.001830    -2.845499   111.834884
	   20 B(5,3,6)        =    110.524167    -0.000446    -1.171027   109.353140
	   21 B(7,4,8)        =    110.625072    -0.000693    -0.729878   109.895194
	   22 B(7,4,9)        =    109.582893    -0.000848    -1.512818   108.070075
	   23 B(8,4,9)        =    107.853855     0.000434     0.498936   108.352791
	   24 D(1,2,3,4)      =    173.861805    -0.000116    -1.192362   172.669442
	   25 D(1,2,3,5)      =     50.793847     0.000007     0.073156    50.867003
	   26 D(1,2,3,6)      =    -72.070918     0.000122     1.560190   -70.510728
	   27 D(2,3,4,7)      =    -58.323520     0.000040     0.680033   -57.643487
	   28 D(2,3,4,8)      =   -179.968696    -0.000014    -0.107297  -180.075993
	   29 D(2,3,4,9)      =     60.343448     0.000088     1.031739    61.375187
	   30 *D(3,4,7,10)    =      0.000000     0.000000     0.000000     0.000000
	   31 D(5,3,4,7)      =     64.774175    -0.000086    -0.456954    64.317221
	   32 D(5,3,4,8)      =    -56.871001    -0.000140    -1.244283   -58.115284
	   33 D(5,3,4,9)      =   -176.558857    -0.000038    -0.105248  -176.664105
	   34 D(6,3,4,7)      =   -177.624046     0.000064     0.397467  -177.226580
	   35 D(6,3,4,8)      =     60.730777     0.000010    -0.389863    60.340915
	   36 D(6,3,4,9)      =    -58.957078     0.000112     0.749172   -58.207906
	   37 D(8,4,7,10)     =    122.697740    -0.000009    -0.065844   122.631896
	   38 D(9,4,7,10)     =   -118.512780    -0.000105    -0.801378  -119.314158
	 ---------------------------------------------------------------------------
	Successfully symmetrized geometry.

  ==> Convergence Check <==

  Measures of convergence in internal coordinates in au.
  Criteria marked as inactive (o), active & met (*), and active & unmet ( ).
  ---------------------------------------------------------------------------------------------
   Step     Total Energy     Delta E     MAX Force     RMS Force      MAX Disp      RMS Disp   
  ---------------------------------------------------------------------------------------------
    Convergence Criteria    1.00e-06 *    3.00e-04 *             o    1.20e-03 *             o
  ---------------------------------------------------------------------------------------------
      2    -228.93429265    8.89e-02      1.02e-01      3.61e-02 o    2.41e-01      8.11e-02 o  ~
  ---------------------------------------------------------------------------------------------

	Writing optimization data to binary file.
	Structure for next step:
	Cartesian Geometry (in Angstrom)
	    H     1.9105964384  -0.5394670368  -1.2146733207
	    O     1.2449048508  -0.6226978068  -0.5346273915
	    C     0.6568549423   0.6828553635  -0.2292706180
	    C    -0.5345269173   0.4973820456   0.7310468655
	    H     0.3190291364   1.2030151427  -1.1830630641
	    H     1.3790912099   1.3202699582   0.2963131467
	    O    -1.5110297857  -0.3633092629   0.1875357166
	    H    -0.9997446229   1.5019209607   0.9778421316
	    H    -0.1539066639   0.0342432766   1.6932190070
	    H    -1.2584832226  -0.6855668577  -0.6949434791
			--------------------------
			 OPTKING Finished Execution 
			--------------------------

    Structure for next step:
    Molecular point group: c1
    Full point group: C1

    Geometry (in Angstrom), charge = 0, multiplicity = 1:

    H            1.936109750877    -0.559589694029    -1.220207572608
    O            1.270418163342    -0.642820464048    -0.540161643395
    C            0.682368254796     0.662732706220    -0.234804869907
    C           -0.509013604759     0.477259388329     0.725512613570
    H            0.344542448867     1.182892485442    -1.188597316032
    H            1.404604522406     1.300147300956     0.290778894753
    O           -1.485516473166    -0.383431920188     0.182001464634
    H           -0.974231310353     1.481798303485     0.972307879641
    H           -0.128393351346     0.014120619393     1.687684755033
    H           -1.232969910053    -0.705689514976    -0.700477730983

gradient() will perform analytic gradient computation.

*** tstart() called on cx1-27-1-2
*** at Sat Sep 10 15:49:44 2016


         ---------------------------------------------------------
                                   SCF
            by Justin Turney, Rob Parrish, and Andy Simmonett
                              RHF Reference
                        4 Threads,   2000 MiB Core
         ---------------------------------------------------------

  ==> Geometry <==

    Molecular point group: c1
    Full point group: C1

    Geometry (in Angstrom), charge = 0, multiplicity = 1:

       Center              X                  Y                   Z               Mass       
    ------------   -----------------  -----------------  -----------------  -----------------
           H          1.936109750877    -0.559589694029    -1.220207572608     1.007825032070
           O          1.270418163342    -0.642820464048    -0.540161643395    15.994914619560
           C          0.682368254796     0.662732706220    -0.234804869907    12.000000000000
           C         -0.509013604759     0.477259388329     0.725512613570    12.000000000000
           H          0.344542448867     1.182892485442    -1.188597316032     1.007825032070
           H          1.404604522406     1.300147300956     0.290778894753     1.007825032070
           O         -1.485516473166    -0.383431920188     0.182001464634    15.994914619560
           H         -0.974231310353     1.481798303485     0.972307879641     1.007825032070
           H         -0.128393351346     0.014120619393     1.687684755033     1.007825032070
           H         -1.232969910053    -0.705689514976    -0.700477730983     1.007825032070

  Running in c1 symmetry.

  Rotational constants: A =      0.50138  B =      0.17877  C =      0.14826 [cm^-1]
  Rotational constants: A =  15031.04305  B =   5359.38178  C =   4444.75539 [MHz]
  Nuclear repulsion =  131.124566193324029

  Charge       = 0
  Multiplicity = 1
  Electrons    = 34
  Nalpha       = 17
  Nbeta        = 17

  ==> Algorithm <==

  SCF Algorithm Type is DF.
  DIIS enabled.
  MOM disabled.
  Fractional occupation disabled.
  Guess Type is READ.
  Energy threshold   = 1.00e-08
  Density threshold  = 1.00e-08
  Integral threshold = 0.00e+00

  ==> Primary Basis <==

  Basis Set: CC-PVTZ
    Number of shells: 76
    Number of basis function: 204
    Number of Cartesian functions: 230
    Spherical Harmonics?: true
    Max angular momentum: 3

  ==> Pre-Iterations <==

   -------------------------------------------------------
    Irrep   Nso     Nmo     Nalpha   Nbeta   Ndocc  Nsocc
   -------------------------------------------------------
     A        204     204       0       0       0       0
   -------------------------------------------------------
    Total     204     204      17      17      17       0
   -------------------------------------------------------

  ==> Integral Setup <==

  ==> DFJK: Density-Fitted J/K Matrices <==

    J tasked:                  Yes
    K tasked:                  Yes
    wK tasked:                  No
    OpenMP threads:              4
    Integrals threads:           4
    Memory (MB):              1430
    Algorithm:                Core
    Integral Cache:           NONE
    Schwarz Cutoff:          1E-12
    Fitting Condition:       1E-12

   => Auxiliary Basis Set <=

  Basis Set: 
    Number of shells: 160
    Number of basis function: 496
    Number of Cartesian functions: 594
    Spherical Harmonics?: true
    Max angular momentum: 4

  Minimum eigenvalue in the overlap matrix is 7.8144788251E-04.
  Using Symmetric Orthogonalization.
  SCF Guess: Reading in previously saved MOs, projecting if necessary.

  Using orbitals from previous SCF, no projection.
  Recomputing DOCC and SOCC from number of alpha and beta electrons from previous calculation.
              A 
    DOCC [    17 ]

  ==> Iterations <==

                           Total Energy        Delta E     RMS |[F,P]|

   @DF-RHF iter   0:  -229.30420786898713   -2.29304e+02   2.07917e-03 
   @DF-RHF iter   1:  -229.01003668666573    2.94171e-01   3.67072e-04 
   @DF-RHF iter   2:  -229.01312044921832   -3.08376e-03   1.68285e-04 DIIS
   @DF-RHF iter   3:  -229.01365269831365   -5.32249e-04   4.01358e-05 DIIS
   @DF-RHF iter   4:  -229.01372602349750   -7.33252e-05   1.28825e-05 DIIS
   @DF-RHF iter   5:  -229.01373213109360   -6.10760e-06   5.12650e-06 DIIS
   @DF-RHF iter   6:  -229.01373306528643   -9.34193e-07   1.49467e-06 DIIS
   @DF-RHF iter   7:  -229.01373318524719   -1.19961e-07   3.54942e-07 DIIS
   @DF-RHF iter   8:  -229.01373319295436   -7.70717e-09   9.28782e-08 DIIS
   @DF-RHF iter   9:  -229.01373319331032   -3.55953e-10   4.08285e-08 DIIS
   @DF-RHF iter  10:  -229.01373319335954   -4.92264e-11   8.81439e-09 DIIS

  ==> Post-Iterations <==

    Orbital Energies (a.u.)
    -----------------------

    Doubly Occupied:                                                      

       1A    -20.564660     2A    -20.545147     3A    -11.296948  
       4A    -11.287399     5A     -1.363988     6A     -1.340816  
       7A     -0.994284     8A     -0.837712     9A     -0.704910  
      10A     -0.659558    11A     -0.652415    12A     -0.596766  
      13A     -0.568301    14A     -0.540847    15A     -0.474272  
      16A     -0.460226    17A     -0.435438  

    Virtual:                                                              

      18A      0.131688    19A      0.162411    20A      0.184675  
      21A      0.191005    22A      0.207010    23A      0.231098  
      24A      0.304099    25A      0.308609    26A      0.334403  
      27A      0.400713    28A      0.493591    29A      0.512841  
      30A      0.522210    31A      0.548067    32A      0.562083  
      33A      0.574247    34A      0.589633    35A      0.618987  
      36A      0.626196    37A      0.643490    38A      0.650128  
      39A      0.726282    40A      0.734571    41A      0.738758  
      42A      0.756437    43A      0.808363    44A      0.825599  
      45A      0.838401    46A      0.873582    47A      0.909169  
      48A      0.919998    49A      0.944667    50A      0.987576  
      51A      1.028705    52A      1.101757    53A      1.142844  
      54A      1.167854    55A      1.213455    56A      1.248489  
      57A      1.266474    58A      1.280632    59A      1.294336  
      60A      1.302238    61A      1.335586    62A      1.358268  
      63A      1.379727    64A      1.403909    65A      1.438941  
      66A      1.482061    67A      1.491547    68A      1.518527  
      69A      1.563967    70A      1.574923    71A      1.587416  
      72A      1.618137    73A      1.710004    74A      1.743247  
      75A      1.823929    76A      1.911907    77A      2.064344  
      78A      2.145914    79A      2.161995    80A      2.214516  
      81A      2.252420    82A      2.291504    83A      2.321630  
      84A      2.355782    85A      2.366632    86A      2.457172  
      87A      2.613370    88A      2.643199    89A      2.687957  
      90A      2.710421    91A      2.764915    92A      2.818845  
      93A      2.830135    94A      2.885346    95A      2.949556  
      96A      3.006162    97A      3.041152    98A      3.121005  
      99A      3.163906   100A      3.200574   101A      3.225739  
     102A      3.256303   103A      3.275632   104A      3.285192  
     105A      3.306878   106A      3.326248   107A      3.364296  
     108A      3.389913   109A      3.404300   110A      3.419042  
     111A      3.452250   112A      3.471349   113A      3.524603  
     114A      3.572741   115A      3.630844   116A      3.648858  
     117A      3.665260   118A      3.684911   119A      3.696025  
     120A      3.719965   121A      3.742677   122A      3.767106  
     123A      3.788084   124A      3.829088   125A      3.858612  
     126A      3.933780   127A      3.968502   128A      3.982710  
     129A      4.029182   130A      4.061216   131A      4.091657  
     132A      4.103405   133A      4.141695   134A      4.147528  
     135A      4.185405   136A      4.202668   137A      4.225351  
     138A      4.255548   139A      4.268908   140A      4.285452  
     141A      4.301715   142A      4.355298   143A      4.396911  
     144A      4.403109   145A      4.415855   146A      4.467207  
     147A      4.484250   148A      4.534603   149A      4.568637  
     150A      4.629479   151A      4.659635   152A      4.719436  
     153A      4.756718   154A      4.808411   155A      4.885733  
     156A      4.920461   157A      4.984973   158A      5.027741  
     159A      5.058036   160A      5.101425   161A      5.107986  
     162A      5.139450   163A      5.182892   164A      5.262267  
     165A      5.286444   166A      5.304306   167A      5.359288  
     168A      5.409014   169A      5.525895   170A      5.587728  
     171A      5.613798   172A      5.710749   173A      5.753350  
     174A      5.847201   175A      5.922084   176A      6.050113  
     177A      6.084840   178A      6.129597   179A      6.174830  
     180A      6.260038   181A      6.333554   182A      6.455402  
     183A      6.578996   184A      6.673353   185A      6.995960  
     186A      7.008725   187A      7.105441   188A      7.128426  
     189A      7.144855   190A      7.189146   191A      7.212038  
     192A      7.261047   193A      7.362665   194A      7.416223  
     195A      7.450567   196A      7.504038   197A      7.676382  
     198A      7.710828   199A      7.921460   200A      7.931825  
     201A     12.090852   202A     12.290464   203A     12.611029  
     204A     12.884289  

    Final Occupation by Irrep:
              A 
    DOCC [    17 ]

  Energy converged.

  @DF-RHF Final Energy:  -229.01373319335954

   => Energetics <=

    Nuclear Repulsion Energy =            131.1245661933240285
    One-Electron Energy =                -573.6292285990987239
    Two-Electron Energy =                 213.4909292124152103
    DFT Exchange-Correlation Energy =       0.0000000000000000
    Empirical Dispersion Energy =           0.0000000000000000
    PCM Polarization Energy =               0.0000000000000000
    EFP Energy =                            0.0000000000000000
    Total Energy =                       -229.0137331933594851


  Saving occupied orbitals to File 180.

*** tstop() called on cx1-27-1-2 at Sat Sep 10 15:49:46 2016
Module time:
	user time   =       6.97 seconds =       0.12 minutes
	system time =       0.17 seconds =       0.00 minutes
	total time  =          2 seconds =       0.03 minutes
Total time:
	user time   =      43.50 seconds =       0.72 minutes
	system time =       1.27 seconds =       0.02 minutes
	total time  =         13 seconds =       0.22 minutes


Properties will be evaluated at   0.000000,   0.000000,   0.000000 Bohr

Properties computed using the SCF density matrix

  Nuclear Dipole Moment: (a.u.)
     X:     1.2642      Y:     2.5391      Z:    -0.1503

  Electronic Dipole Moment: (a.u.)
     X:    -0.4957      Y:    -1.8001      Z:    -0.4784

  Dipole Moment: (a.u.)
     X:     0.7685      Y:     0.7390      Z:    -0.6287     Total:     1.2377

  Dipole Moment: (Debye)
     X:     1.9534      Y:     1.8782      Z:    -1.5981     Total:     3.1460


*** tstart() called on cx1-27-1-2
*** at Sat Sep 10 15:49:46 2016


         ------------------------------------------------------------
                                   SCF GRAD                          
                          Rob Parrish, Justin Turney,                
                       Andy Simmonett, and Alex Sokolov              
         ------------------------------------------------------------

  ==> Geometry <==

    Molecular point group: c1
    Full point group: C1

    Geometry (in Angstrom), charge = 0, multiplicity = 1:

       Center              X                  Y                   Z               Mass       
    ------------   -----------------  -----------------  -----------------  -----------------
           H          1.936109750877    -0.559589694029    -1.220207572608     1.007825032070
           O          1.270418163342    -0.642820464048    -0.540161643395    15.994914619560
           C          0.682368254796     0.662732706220    -0.234804869907    12.000000000000
           C         -0.509013604759     0.477259388329     0.725512613570    12.000000000000
           H          0.344542448867     1.182892485442    -1.188597316032     1.007825032070
           H          1.404604522406     1.300147300956     0.290778894753     1.007825032070
           O         -1.485516473166    -0.383431920188     0.182001464634    15.994914619560
           H         -0.974231310353     1.481798303485     0.972307879641     1.007825032070
           H         -0.128393351346     0.014120619393     1.687684755033     1.007825032070
           H         -1.232969910053    -0.705689514976    -0.700477730983     1.007825032070

  Nuclear repulsion =  131.124566193324029

  ==> Basis Set <==

  Basis Set: CC-PVTZ
    Number of shells: 76
    Number of basis function: 204
    Number of Cartesian functions: 230
    Spherical Harmonics?: true
    Max angular momentum: 3

  ==> DFJKGrad: Density-Fitted SCF Gradients <==

    Gradient:                    1
    J tasked:                  Yes
    K tasked:                  Yes
    wK tasked:                  No
    OpenMP threads:              4
    Integrals threads:           4
    Memory (MB):              1430
    Schwarz Cutoff:          0E+00
    Fitting Condition:       1E-12

   => Auxiliary Basis Set <=

  Basis Set: 
    Number of shells: 160
    Number of basis function: 496
    Number of Cartesian functions: 594
    Spherical Harmonics?: true
    Max angular momentum: 4


  -Total Gradient:
     Atom            X                  Y                   Z
    ------   -----------------  -----------------  -----------------
       1        0.012707925326    -0.002441835451    -0.012865415917
       2        0.009527764354    -0.034635670554     0.001639609365
       3       -0.001802544877     0.006106185272     0.009915513775
       4       -0.006120639357     0.008548833521    -0.005855167123
       5       -0.009769446536     0.015636298868    -0.025667177233
       6        0.002142345964     0.005206875808     0.009671596265
       7       -0.006921773449     0.001107107707     0.023937125541
       8       -0.013946559353     0.026301379368     0.008587549915
       9        0.010017798719    -0.013849045361     0.024853066105
      10        0.004165129212    -0.011980129178    -0.034216700693


*** tstop() called on cx1-27-1-2 at Sat Sep 10 15:49:48 2016
Module time:
	user time   =       8.43 seconds =       0.14 minutes
	system time =       0.27 seconds =       0.00 minutes
	total time  =          2 seconds =       0.03 minutes
Total time:
	user time   =      51.98 seconds =       0.87 minutes
	system time =       1.54 seconds =       0.03 minutes
	total time  =         15 seconds =       0.25 minutes

			-----------------------------------------
			 OPTKING 2.0: for geometry optimizations 
			  - R.A. King,  Bethel University        
			-----------------------------------------

	Previous internal coordinate definitions found.
	---Fragment 1 Geometry and Gradient---
	 H           3.6587171924       -1.0574712685       -2.3058581375
	 O           2.4007424030       -1.2147546297       -1.0207575735
	 C           1.2894891233        1.2523833141       -0.4437168988
	 C          -0.9618963109        0.9018895383        1.3710201456
	 H           0.6510908695        2.2353428421       -2.2461234096
	 H           2.6543178724        2.4569223312        0.5494924763
	 O          -2.8072193002       -0.7245813198        0.3439329239
	 H          -1.8410303666        2.8001929778        1.8373956094
	 H          -0.2426282713        0.0266841035        3.1892619857
	 H          -2.3299754601       -1.3335599182       -1.3237110737
	             0.0127079253       -0.0024418355       -0.0128654159
	             0.0095277644       -0.0346356706        0.0016396094
	            -0.0018025449        0.0061061853        0.0099155138
	            -0.0061206394        0.0085488335       -0.0058551671
	            -0.0097694465        0.0156362989       -0.0256671772
	             0.0021423460        0.0052068758        0.0096715963
	            -0.0069217734        0.0011071077        0.0239371255
	            -0.0139465594        0.0263013794        0.0085875499
	             0.0100177987       -0.0138490454        0.0248530661
	             0.0041651292       -0.0119801292       -0.0342167007

	---Fragment 1 Intrafragment Coordinates---
	 - Coordinate -           - BOHR/RAD -       - ANG/DEG -
	 R(1,2)           =         1.805193	       0.955267
	 R(2,3)           =         2.766700	       1.464075
	 R(3,4)           =         2.912877	       1.541428
	 R(3,5)           =         2.149984	       1.137723
	 R(3,6)           =         2.073677	       1.097343
	 R(4,7)           =         2.665620	       1.410586
	 R(4,8)           =         2.143348	       1.134211
	 R(4,9)           =         2.142273	       1.133642
	 R(7,10)          =         1.838383	       0.972831
	 B(1,2,3)         =         1.929093	     110.528890
	 B(2,3,4)         =         1.910366	     109.455896
	 B(2,3,5)         =         1.930617	     110.616218
	 B(2,3,6)         =         1.932125	     110.702613
	 B(3,4,7)         =         1.948114	     111.618723
	 B(3,4,8)         =         1.924116	     110.243735
	 B(3,4,9)         =         1.894865	     108.567765
	 B(4,3,5)         =         1.926018	     110.352702
	 B(4,3,6)         =         1.854801	     106.272285
	 B(4,7,10)        =         1.951887	     111.834884
	 B(5,3,6)         =         1.908572	     109.353140
	 B(7,4,8)         =         1.918033	     109.895194
	 B(7,4,9)         =         1.886179	     108.070075
	 B(8,4,9)         =         1.891113	     108.352791
	 D(1,2,3,4)       =         3.013650	     172.669442
	 D(1,2,3,5)       =         0.887797	      50.867003
	 D(1,2,3,6)       =        -1.230644	     -70.510728
	 D(2,3,4,7)       =        -1.006069	     -57.643487
	 D(2,3,4,8)       =         3.140266	     179.924007
	 D(2,3,4,9)       =         1.071199	      61.375187
	*D(3,4,7,10)      =        -0.000000	      -0.000000
	 D(5,3,4,7)       =         1.122547	      64.317221
	 D(5,3,4,8)       =        -1.014303	     -58.115284
	 D(5,3,4,9)       =        -3.083370	    -176.664105
	 D(6,3,4,7)       =        -3.093187	    -177.226580
	 D(6,3,4,8)       =         1.053148	      60.340915
	 D(6,3,4,9)       =        -1.015920	     -58.207906
	 D(8,4,7,10)      =         2.140330	     122.631896
	 D(9,4,7,10)      =        -2.082425	    -119.314158

	Current energy   :      -229.0137331934

	Energy change for the previous step:
		Projected    :        -0.0882632301
		Actual       :        -0.0794405450
	Energy ratio indicates good step: Trust radius increased to 1.000e+00.


	Performing BFGS update.
	Previous computed or guess Hessian on step 1.
	Steps to be used in Hessian update: 2 1
	Taking RFO optimization step.
	Going to follow RFO solution 1.
	Using RFO vector 1.
	Norm of target step-size    0.23617
	Projected energy change by RFO approximation:        -0.0180336006

	Back-transformation to cartesian coordinates...
	Could not converge backtransformation.
	Using first guess instead.

	Back-transformation to cartesian coordinates to adjust frozen coordinates...
	Successfully converged to displaced geometry.

	--- Internal Coordinate Step in ANG or DEG, aJ/ANG or AJ/DEG ---
	 ---------------------------------------------------------------------------
	   Coordinate                Previous        Force       Change         New 
	   ----------                --------       ------       ------       ------
	    1 R(1,2)          =      0.955267    -0.146663    -0.016210     0.939057
	    2 R(2,3)          =      1.464075    -0.365266    -0.060214     1.403860
	    3 R(3,4)          =      1.541428    -0.160333    -0.028068     1.513360
	    4 R(3,5)          =      1.137723    -0.260075    -0.048911     1.088811
	    5 R(3,6)          =      1.097343    -0.074699    -0.010873     1.086470
	    6 R(4,7)          =      1.410586    -0.103013    -0.008832     1.401754
	    7 R(4,8)          =      1.134211    -0.254440    -0.047274     1.086937
	    8 R(4,9)          =      1.133642    -0.248111    -0.048736     1.084906
	    9 R(7,10)         =      0.972831    -0.297324    -0.034810     0.938021
	   10 B(1,2,3)        =    110.528890    -0.000546    -0.292799   110.236091
	   11 B(2,3,4)        =    109.455896    -0.000607    -0.697383   108.758513
	   12 B(2,3,5)        =    110.616218     0.000080    -0.222382   110.393836
	   13 B(2,3,6)        =    110.702613    -0.000030     0.254313   110.956927
	   14 B(3,4,7)        =    111.618723     0.000805     1.983870   113.602592
	   15 B(3,4,8)        =    110.243735    -0.000385    -1.266630   108.977106
	   16 B(3,4,9)        =    108.567765    -0.000162    -0.388753   108.179012
	   17 B(4,3,5)        =    110.352702     0.000091    -0.601926   109.750776
	   18 B(4,3,6)        =    106.272285     0.000688     2.571196   108.843481
	   19 B(4,7,10)       =    111.834884    -0.000631    -0.874157   110.960727
	   20 B(5,3,6)        =    109.353140    -0.000201    -1.237352   108.115788
	   21 B(7,4,8)        =    109.895194    -0.000201     0.420845   110.316039
	   22 B(7,4,9)        =    108.070075    -0.000171    -0.525688   107.544388
	   23 B(8,4,9)        =    108.352791     0.000102    -0.301258   108.051534
	   24 D(1,2,3,4)      =    172.669442    -0.000048    -0.443475   172.225967
	   25 D(1,2,3,5)      =     50.867003     0.000006     0.893818    51.760821
	   26 D(1,2,3,6)      =    -70.510728     0.000057     2.428870   -68.081858
	   27 D(2,3,4,7)      =    -57.643487     0.000012     1.342581   -56.300906
	   28 D(2,3,4,8)      =    179.924007     0.000006     0.344374   180.268381
	   29 D(2,3,4,9)      =     61.375187     0.000051     1.646669    63.021856
	   30 *D(3,4,7,10)    =      0.000000    -0.000000     0.000000     0.000000
	   31 D(5,3,4,7)      =     64.317221    -0.000043     0.243340    64.560562
	   32 D(5,3,4,8)      =    -58.115284    -0.000049    -0.754867   -58.870151
	   33 D(5,3,4,9)      =   -176.664105    -0.000004     0.547428  -176.116677
	   34 D(6,3,4,7)      =   -177.226580     0.000004    -0.073454  -177.300033
	   35 D(6,3,4,8)      =     60.340915    -0.000002    -1.071661    59.269254
	   36 D(6,3,4,9)      =    -58.207906     0.000044     0.230635   -57.977271
	   37 D(8,4,7,10)     =    122.631896    -0.000019     0.063880   122.695777
	   38 D(9,4,7,10)     =   -119.314158    -0.000040    -0.370668  -119.684826
	 ---------------------------------------------------------------------------
	Successfully symmetrized geometry.

  ==> Convergence Check <==

  Measures of convergence in internal coordinates in au.
  Criteria marked as inactive (o), active & met (*), and active & unmet ( ).
  ---------------------------------------------------------------------------------------------
   Step     Total Energy     Delta E     MAX Force     RMS Force      MAX Disp      RMS Disp   
  ---------------------------------------------------------------------------------------------
    Convergence Criteria    1.00e-06 *    3.00e-04 *             o    1.20e-03 *             o
  ---------------------------------------------------------------------------------------------
      3    -229.01373319   -7.94e-02      4.43e-02      1.41e-02 o    1.14e-01      3.83e-02 o  ~
  ---------------------------------------------------------------------------------------------

	Writing optimization data to binary file.
	Structure for next step:
	Cartesian Geometry (in Angstrom)
	    H     1.8913140082  -0.5170805458  -1.1878783941
	    O     1.2315702871  -0.5999331830  -0.5247780041
	    C     0.6854157892   0.6577195322  -0.2233674691
	    C    -0.4980074735   0.4657105329   0.7001582864
	    H     0.3635795615   1.1598066112  -1.1343231823
	    H     1.4171171401   1.2907984513   0.2708393248
	    O    -1.4810940744  -0.3889314998   0.1824305739
	    H    -0.9266571598   1.4372573456   0.9320802027
	    H    -0.1379721636   0.0276541193   1.6250920144
	    H    -1.2373474241  -0.7055821533  -0.6662168778
			--------------------------
			 OPTKING Finished Execution 
			--------------------------

    Structure for next step:
    Molecular point group: c1
    Full point group: C1

    Geometry (in Angstrom), charge = 0, multiplicity = 1:

    H            1.897140509341    -0.523178220574    -1.189232587426
    O            1.237396788168    -0.606030857795    -0.526132197402
    C            0.691242290258     0.651621857424    -0.224721662398
    C           -0.492180972353     0.459612858093     0.698804093115
    H            0.369406062565     1.153708936405    -1.135677375618
    H            1.422943641203     1.284700776474     0.269485131502
    O           -1.475267573306    -0.395029174546     0.181076380665
    H           -0.920830658746     1.431159670851     0.930726009413
    H           -0.132145662507     0.021556444517     1.623737821123
    H           -1.231520922986    -0.711679828103    -0.667571071031

gradient() will perform analytic gradient computation.

*** tstart() called on cx1-27-1-2
*** at Sat Sep 10 15:49:49 2016


         ---------------------------------------------------------
                                   SCF
            by Justin Turney, Rob Parrish, and Andy Simmonett
                              RHF Reference
                        4 Threads,   2000 MiB Core
         ---------------------------------------------------------

  ==> Geometry <==

    Molecular point group: c1
    Full point group: C1

    Geometry (in Angstrom), charge = 0, multiplicity = 1:

       Center              X                  Y                   Z               Mass       
    ------------   -----------------  -----------------  -----------------  -----------------
           H          1.897140509341    -0.523178220574    -1.189232587426     1.007825032070
           O          1.237396788168    -0.606030857795    -0.526132197402    15.994914619560
[...]
     153A      4.829201   154A      4.881780   155A      4.958908  
     156A      5.011890   157A      5.077815   158A      5.108514  
     159A      5.166634   160A      5.196087   161A      5.203304  
     162A      5.239219   163A      5.265591   164A      5.355415  
     165A      5.383982   166A      5.433040   167A      5.455454  
     168A      5.536405   169A      5.688417   170A      5.733516  
     171A      5.740571   172A      5.791604   173A      5.827829  
     174A      5.954423   175A      5.984226   176A      6.109595  
     177A      6.186498   178A      6.209766   179A      6.238855  
     180A      6.342104   181A      6.469143   182A      6.559255  
     183A      6.668681   184A      6.735548   185A      7.047369  
     186A      7.090378   187A      7.156136   188A      7.183725  
     189A      7.224708   190A      7.236401   191A      7.277603  
     192A      7.309060   193A      7.418148   194A      7.439436  
     195A      7.527585   196A      7.577590   197A      7.707345  
     198A      7.729445   199A      8.002332   200A      8.031244  
     201A     12.608085   202A     12.751459   203A     13.235395  
     204A     13.719157  

    Final Occupation by Irrep:
              A 
    DOCC [    17 ]

  Energy converged.

  @DF-RHF Final Energy:  -229.02417121830101

   => Energetics <=

    Nuclear Repulsion Energy =            134.3641319809846379
    One-Electron Energy =                -579.9322021958661253
    Two-Electron Energy =                 216.5438989965805376
    DFT Exchange-Correlation Energy =       0.0000000000000000
    Empirical Dispersion Energy =           0.0000000000000000
    PCM Polarization Energy =               0.0000000000000000
    EFP Energy =                            0.0000000000000000
    Total Energy =                       -229.0241712183009213


  Saving occupied orbitals to File 180.

*** tstop() called on cx1-27-1-2 at Sat Sep 10 15:50:04 2016
Module time:
	user time   =       6.18 seconds =       0.10 minutes
	system time =       0.17 seconds =       0.00 minutes
	total time  =          2 seconds =       0.03 minutes
Total time:
	user time   =     106.66 seconds =       1.78 minutes
	system time =       3.23 seconds =       0.05 minutes
	total time  =         31 seconds =       0.52 minutes


Properties will be evaluated at   0.000000,   0.000000,   0.000000 Bohr

Properties computed using the SCF density matrix

  Nuclear Dipole Moment: (a.u.)
     X:     1.3617      Y:     2.5147      Z:    -0.1106

  Electronic Dipole Moment: (a.u.)
     X:    -0.5051      Y:    -1.8138      Z:    -0.4911

  Dipole Moment: (a.u.)
     X:     0.8566      Y:     0.7009      Z:    -0.6017     Total:     1.2598

  Dipole Moment: (Debye)
     X:     2.1772      Y:     1.7814      Z:    -1.5294     Total:     3.2020


*** tstart() called on cx1-27-1-2
*** at Sat Sep 10 15:50:04 2016


         ------------------------------------------------------------
                                   SCF GRAD                          
                          Rob Parrish, Justin Turney,                
                       Andy Simmonett, and Alex Sokolov              
         ------------------------------------------------------------

  ==> Geometry <==

    Molecular point group: c1
    Full point group: C1

    Geometry (in Angstrom), charge = 0, multiplicity = 1:

       Center              X                  Y                   Z               Mass       
    ------------   -----------------  -----------------  -----------------  -----------------
           H          1.936630883165    -0.513488789422    -1.151875850726     1.007825032070
           O          1.225543259671    -0.607239033114    -0.545321565373    15.994914619560
           C          0.689062226913     0.647606113591    -0.227193365474    12.000000000000
           C         -0.481840850276     0.452821032723     0.708645345426    12.000000000000
           H          0.356552079668     1.157899142265    -1.129674481839     1.007825032070
           H          1.425004395415     1.279850278326     0.261819505526     1.007825032070
           O         -1.472610959688    -0.387681509950     0.191440153604    15.994914619560
           H         -0.912255732454     1.424648640580     0.928639797556     1.007825032070
           H         -0.122242538408     0.027560472807     1.639368738734     1.007825032070
           H         -1.229894826727    -0.688956240127    -0.664489143791     1.007825032070

  Nuclear repulsion =  134.364131980984638

  ==> Basis Set <==

  Basis Set: CC-PVTZ
    Number of shells: 76
    Number of basis function: 204
    Number of Cartesian functions: 230
    Spherical Harmonics?: true
    Max angular momentum: 3

  ==> DFJKGrad: Density-Fitted SCF Gradients <==

    Gradient:                    1
    J tasked:                  Yes
    K tasked:                  Yes
    wK tasked:                  No
    OpenMP threads:              4
    Integrals threads:           4
    Memory (MB):              1430
    Schwarz Cutoff:          0E+00
    Fitting Condition:       1E-12

   => Auxiliary Basis Set <=

  Basis Set: 
    Number of shells: 160
    Number of basis function: 496
    Number of Cartesian functions: 594
    Spherical Harmonics?: true
    Max angular momentum: 4


  -Total Gradient:
     Atom            X                  Y                   Z
    ------   -----------------  -----------------  -----------------
       1        0.000028990996     0.000020774031    -0.000027470763
       2       -0.000039263561     0.000063560376     0.000064452141
       3        0.000840270556    -0.001529060222     0.000721809131
       4       -0.001581501527     0.002695806537    -0.001424754057
       5        0.000044833180    -0.000001502646    -0.000030627650
       6        0.000045365016    -0.000022225683    -0.000009112470
       7        0.002078069379    -0.003611617136     0.001939768797
       8        0.000005134111    -0.000006983583    -0.000003405920
       9       -0.000042685161    -0.000017631200     0.000036857693
      10       -0.001379212992     0.002408879523    -0.001267516901


*** tstop() called on cx1-27-1-2 at Sat Sep 10 15:50:07 2016
Module time:
	user time   =       8.62 seconds =       0.14 minutes
	system time =       0.28 seconds =       0.00 minutes
	total time  =          3 seconds =       0.05 minutes
Total time:
	user time   =     115.32 seconds =       1.92 minutes
	system time =       3.51 seconds =       0.06 minutes
	total time  =         34 seconds =       0.57 minutes

			-----------------------------------------
			 OPTKING 2.0: for geometry optimizations 
			  - R.A. King,  Bethel University        
			-----------------------------------------

	Previous internal coordinate definitions found.
	---Fragment 1 Geometry and Gradient---
	 H           3.6597019897       -0.9703531843       -2.1767298970
	 O           2.3159411248       -1.1475154698       -1.0305084129
	 C           1.3021388974        1.2237981967       -0.4293332400
	 C          -0.9105472467        0.8557077391        1.3391456282
	 H           0.6737857827        2.1881122684       -2.1347753900
	 H           2.6928680455        2.4185665171        0.4947671617
	 O          -2.7828314141       -0.7326118806        0.3617694611
	 H          -1.7239134975        2.6921957663        1.7548748935
	 H          -0.2310049194        0.0520817457        3.0979579470
	 H          -2.3241643948       -1.3019386114       -1.2557025000
	             0.0000289910        0.0000207740       -0.0000274708
	            -0.0000392636        0.0000635604        0.0000644521
	             0.0008402706       -0.0015290602        0.0007218091
	            -0.0015815015        0.0026958065       -0.0014247541
	             0.0000448332       -0.0000015026       -0.0000306277
	             0.0000453650       -0.0000222257       -0.0000091125
	             0.0020780694       -0.0036116171        0.0019397688
	             0.0000051341       -0.0000069836       -0.0000034059
	            -0.0000426852       -0.0000176312        0.0000368577
	            -0.0013792130        0.0024088795       -0.0012675169

	---Fragment 1 Intrafragment Coordinates---
	 - Coordinate -           - BOHR/RAD -       - ANG/DEG -
	 R(1,2)           =         1.775078	       0.939331
	 R(2,3)           =         2.648081	       1.401304
	 R(3,4)           =         2.856394	       1.511539
	 R(3,5)           =         2.057489	       1.088776
	 R(3,6)           =         2.053183	       1.086498
	 R(4,7)           =         2.642626	       1.398417
	 R(4,8)           =         2.051118	       1.085405
	 R(4,9)           =         2.049637	       1.084621
	 R(7,10)          =         1.775028	       0.939304
	 B(1,2,3)         =         1.925210	     110.306384
	 B(2,3,4)         =         1.898350	     108.767416
	 B(2,3,5)         =         1.926704	     110.392010
	 B(2,3,6)         =         1.943301	     111.342953
	 B(3,4,7)         =         1.979366	     113.409344
	 B(3,4,8)         =         1.893667	     108.499115
	 B(3,4,9)         =         1.901786	     108.964329
	 B(4,3,5)         =         1.914542	     109.695195
	 B(4,3,6)         =         1.897619	     108.725569
	 B(4,7,10)        =         1.924874	     110.287151
	 B(5,3,6)         =         1.883046	     107.890578
	 B(7,4,8)         =         1.909385	     109.399730
	 B(7,4,9)         =         1.892951	     108.458130
	 B(8,4,9)         =         1.884519	     107.974988
	 D(1,2,3,4)       =         3.105739	     177.945715
	 D(1,2,3,5)       =         1.004340	      57.544444
	 D(1,2,3,6)       =        -1.086741	     -62.265652
	 D(2,3,4,7)       =        -0.987234	     -56.564328
	 D(2,3,4,8)       =        -3.112532	    -178.334946
	 D(2,3,4,9)       =         1.122914	      64.338258
	*D(3,4,7,10)      =        -0.000000	      -0.000000
	 D(5,3,4,7)       =         1.121663	      64.266534
	 D(5,3,4,8)       =        -1.003636	     -57.504083
	 D(5,3,4,9)       =        -3.051374	    -174.830880
	 D(6,3,4,7)       =        -3.106114	    -177.967248
	 D(6,3,4,8)       =         1.051773	      60.262135
	 D(6,3,4,9)       =        -0.995966	     -57.064662
	 D(8,4,7,10)      =         2.116488	     121.265811
	 D(9,4,7,10)      =        -2.115129	    -121.187988

	Current energy   :      -229.0241712183

	Energy change for the previous step:
		Projected    :         0.0000071062
		Actual       :        -0.0000010846

	Performing BFGS update.
	Previous computed or guess Hessian on step 1.
	Steps to be used in Hessian update: 6 5
	Taking RFO optimization step.
	Going to follow RFO solution 1.
	Using RFO vector 1.
	Norm of target step-size    0.00163
	Projected energy change by RFO approximation:        -0.0000000057

	Back-transformation to cartesian coordinates...
	Could not converge backtransformation.
	Using first guess instead.

	Back-transformation to cartesian coordinates to adjust frozen coordinates...
	Successfully converged to displaced geometry.

	--- Internal Coordinate Step in ANG or DEG, aJ/ANG or AJ/DEG ---
	 ---------------------------------------------------------------------------
	   Coordinate                Previous        Force       Change         New 
	   ----------                --------       ------       ------       ------
	    1 R(1,2)          =      0.939331    -0.000344    -0.000049     0.939282
	    2 R(2,3)          =      1.401304     0.000724     0.000066     1.401371
	    3 R(3,4)          =      1.511539    -0.000646    -0.000090     1.511448
	    4 R(3,5)          =      1.088776    -0.000091    -0.000013     1.088763
	    5 R(3,6)          =      1.086498    -0.000113    -0.000027     1.086470
	    6 R(4,7)          =      1.398417     0.000172     0.000005     1.398423
	    7 R(4,8)          =      1.085405     0.000074     0.000005     1.085410
	    8 R(4,9)          =      1.084621    -0.000201    -0.000032     1.084590
	    9 R(7,10)         =      0.939304    -0.000214    -0.000027     0.939277
	   10 B(1,2,3)        =    110.306384     0.000002     0.008614   110.314998
	   11 B(2,3,4)        =    108.767416    -0.000000    -0.001753   108.765663
	   12 B(2,3,5)        =    110.392010     0.000002     0.005510   110.397520
	   13 B(2,3,6)        =    111.342953     0.000003     0.025105   111.368058
	   14 B(3,4,7)        =    113.409344    -0.000003    -0.010028   113.399316
	   15 B(3,4,8)        =    108.499115     0.000001     0.006963   108.506078
	   16 B(3,4,9)        =    108.964329    -0.000003    -0.017531   108.946798
	   17 B(4,3,5)        =    109.695195    -0.000004    -0.026426   109.668769
	   18 B(4,3,6)        =    108.725569    -0.000002    -0.005423   108.720146
	   19 B(4,7,10)       =    110.287151     0.000002     0.006167   110.293318
	   20 B(5,3,6)        =    107.890578     0.000001     0.002057   107.892635
	   21 B(7,4,8)        =    109.399730     0.000001     0.002151   109.401881
	   22 B(7,4,9)        =    108.458130     0.000004     0.013271   108.471400
	   23 B(8,4,9)        =    107.974988     0.000001     0.005764   107.980752
	   24 D(1,2,3,4)      =    177.945715    -0.000000     0.016387   177.962102
	   25 D(1,2,3,5)      =     57.544444     0.000001     0.046622    57.591066
	   26 D(1,2,3,6)      =    -62.265652    -0.000000     0.023994   -62.241657
	   27 D(2,3,4,7)      =    -56.564328     0.000000     0.027573   -56.536756
	   28 D(2,3,4,8)      =   -178.334946     0.000000     0.026478  -178.308467
	   29 D(2,3,4,9)      =     64.338258     0.000000     0.025416    64.363673
	   30 *D(3,4,7,10)    =      0.000000    -0.000000     0.000000     0.000000
	   31 D(5,3,4,7)      =     64.266534     0.000000     0.017136    64.283670
	   32 D(5,3,4,8)      =    -57.504083     0.000000     0.016042   -57.488041
	   33 D(5,3,4,9)      =   -174.830880     0.000000     0.014979  -174.815901
	   34 D(6,3,4,7)      =   -177.967248    -0.000000     0.001361  -177.965886
	   35 D(6,3,4,8)      =     60.262135    -0.000000     0.000267    60.262402
	   36 D(6,3,4,9)      =    -57.064662    -0.000000    -0.000796   -57.065457
	   37 D(8,4,7,10)     =    121.265811     0.000000     0.003707   121.269518
	   38 D(9,4,7,10)     =   -121.187988     0.000001     0.019409  -121.168579
	 ---------------------------------------------------------------------------
	Successfully symmetrized geometry.

  ==> Convergence Check <==

  Measures of convergence in internal coordinates in au.
  Criteria marked as inactive (o), active & met (*), and active & unmet ( ).
  ---------------------------------------------------------------------------------------------
   Step     Total Energy     Delta E     MAX Force     RMS Force      MAX Disp      RMS Disp   
  ---------------------------------------------------------------------------------------------
    Convergence Criteria    1.00e-06 *    3.00e-04 *             o    1.20e-03 *             o
  ---------------------------------------------------------------------------------------------
      7    -229.02417122   -1.08e-06      8.78e-05 *    3.15e-05 o    8.14e-04 *    2.64e-04 o  ~
  ---------------------------------------------------------------------------------------------


  **** Optimization is complete! (in 7 steps) ****

  ==> Optimization Summary <==

  Measures of convergence in internal coordinates in au.
  --------------------------------------------------------------------------------------------------------------- ~
   Step         Total Energy             Delta E       MAX Force       RMS Force        MAX Disp        RMS Disp  ~
  --------------------------------------------------------------------------------------------------------------- ~
      1    -229.023222555797   -229.023222555797      0.00706467      0.00279128      0.35154514      0.12332846  ~
      2    -228.934292648359      0.088929907438      0.10219751      0.03606950      0.24061559      0.08110071  ~
      3    -229.013733193360     -0.079440545001      0.04433533      0.01409061      0.11378883      0.03834411  ~
      4    -229.023975400362     -0.010242207003      0.00357265      0.00110771      0.06535570      0.02299066  ~
      5    -229.024133387711     -0.000157987349      0.00120934      0.00049831      0.02561492      0.00918864  ~
      6    -229.024170133716     -0.000036746005      0.00031459      0.00008911      0.01247709      0.00342977  ~
      7    -229.024171218301     -0.000001084585      0.00008785      0.00003146      0.00081370      0.00026376  ~
  --------------------------------------------------------------------------------------------------------------- ~

	Writing optimization data to binary file.
	Final energy is   -229.0241712183010
	Final (previous) structure:
	Cartesian Geometry (in Angstrom)
	    H     1.9366308832  -0.5134887894  -1.1518758507
	    O     1.2255432597  -0.6072390331  -0.5453215654
	    C     0.6890622269   0.6476061136  -0.2271933655
	    C    -0.4818408503   0.4528210327   0.7086453454
	    H     0.3565520797   1.1578991423  -1.1296744818
	    H     1.4250043954   1.2798502783   0.2618195055
	    O    -1.4726109597  -0.3876815100   0.1914401536
	    H    -0.9122557325   1.4246486406   0.9286397976
	    H    -0.1222425384   0.0275604728   1.6393687387
	    H    -1.2298948267  -0.6889562401  -0.6644891438
	Saving final (previous) structure.
			--------------------------
			 OPTKING Finished Execution 
			--------------------------

    Final optimized geometry and variables:
    Molecular point group: c1
    Full point group: C1

    Geometry (in Angstrom), charge = 0, multiplicity = 1:

    H            1.936630883165    -0.513488789422    -1.151875850726
    O            1.225543259671    -0.607239033114    -0.545321565373
    C            0.689062226913     0.647606113591    -0.227193365474
    C           -0.481840850276     0.452821032723     0.708645345426
    H            0.356552079668     1.157899142265    -1.129674481839
    H            1.425004395415     1.279850278326     0.261819505526
    O           -1.472610959688    -0.387681509950     0.191440153604
    H           -0.912255732454     1.424648640580     0.928639797556
    H           -0.122242538408     0.027560472807     1.639368738734
    H           -1.229894826727    -0.688956240127    -0.664489143791

	Cleaning optimization helper files.


Properties will be evaluated at   0.000000,   0.000000,   0.000000 Bohr

Properties computed using the  density matrix

  Nuclear Dipole Moment: (a.u.)
     X:     1.3617      Y:     2.5147      Z:    -0.1106

  Electronic Dipole Moment: (a.u.)
     X:    -0.5051      Y:    -1.8138      Z:    -0.4911

  Dipole Moment: (a.u.)
     X:     0.8566      Y:     0.7009      Z:    -0.6017     Total:     1.2598

  Dipole Moment: (Debye)
     X:     2.1772      Y:     1.7814      Z:    -1.5294     Total:     3.2020

  Quadrupole Moment: (Debye Ang)
    XX:   -25.6747     YY:   -25.3461     ZZ:   -21.8191
    XY:     0.3075     XZ:    -0.6909     YZ:     1.3770

  Traceless Quadrupole Moment: (Debye Ang)
    XX:    -1.3947     YY:    -1.0661     ZZ:     2.4608
    XY:     0.3075     XZ:    -0.6909     YZ:     1.3770

  Mulliken Charges: (a.u.)
   Center  Symbol    Alpha    Beta     Spin     Total
       1     H     0.39224  0.39224  0.00000  0.21551
       2     O     4.19917  4.19917  0.00000 -0.39834
       3     C     2.98756  2.98756  0.00000  0.02489
       4     C     2.94497  2.94497  0.00000  0.11006
       5     H     0.46990  0.46990  0.00000  0.06020
       6     H     0.46713  0.46713  0.00000  0.06575
       7     O     4.20737  4.20737  0.00000 -0.41475
       8     H     0.47328  0.47328  0.00000  0.05344
       9     H     0.47083  0.47083  0.00000  0.05835
      10     H     0.38755  0.38755  0.00000  0.22490

   Total alpha = 17.00000, Total beta = 17.00000, Total charge = -0.00000


*** Psi4 exiting successfully. Buy a developer a beer!
