    -----------------------------------------------------------------------
          Psi4: An Open-Source Ab Initio Electronic Structure Package
                              Psi4 (no tag) Driver

                          Git: Rev {detached?}  

    J. M. Turney, A. C. Simmonett, R. M. Parrish, E. G. Hohenstein,
    F. A. Evangelista, J. T. Fermann, B. J. Mintz, L. A. Burns, J. J. Wilke,
    M. L. Abrams, N. J. Russ, M. L. Leininger, C. L. Janssen, E. T. Seidl,
    W. D. Allen, H. F. Schaefer, R. A. King, E. F. Valeev, C. D. Sherrill,
    and T. D. Crawford, WIREs Comput. Mol. Sci. 2, 556-565 (2012)
    (doi: 10.1002/wcms.93)

                         Additional Contributions by
    A. E. DePrince, M. Saitow, U. Bozkaya, A. Yu. Sokolov
    -----------------------------------------------------------------------


    Psi4 started on: Fri Sep  2 13:02:19 2016

    Process ID:  28372
    PSI4DATADIR: /export131/home/mjharvey/miniconda3/share
    Memory level set to 256.000 MB

  ==> Input File <==

--------------------------------------------------------------------------
set {
	reference rhf
	basis 6-31G*
}


set_num_threads( 4 )
memory 2 gb

molecule MOL {
0 1

O	 -2.042549	 -1.228399	 -0.269030
C	 -1.653912	 -0.146171	 0.050137
C	 -0.332303	 0.024011	 0.778412
C	 -2.438579	 1.106236	 -0.272369
C	 0.845713	 -0.001731	 -0.208243
H	 -0.323783	 0.953829	 1.340327
H	 -0.235459	 -0.796807	 1.480410
C	 2.200309	 0.136118	 0.488247
H	 0.733710	 0.800019	 -0.936072
H	 0.811185	 -0.933796	 -0.764304
C	 2.071727	 0.322486	 1.999518
H	 2.804200	 -0.744952	 0.282197
H	 2.736461	 0.981568	 0.063601
H	 1.569008	 -0.524167	 2.458327
H	 1.499754	 1.214681	 2.236745
H	 3.046793	 0.420425	 2.466080
H	 -3.277823	 0.863061	 -0.908988
H	 -1.806773	 1.843019	 -0.759671
H	 -2.802853	 1.554979	 0.648059

	symmetry c1
}
set optking {
	frozen_dihedral = ("
		11 8 5 9
	")
}

ee = optimize('scf')
oeprop('DIPOLE', 'QUADRUPOLE', 'MULLIKEN_CHARGES')
f=open( 'psi4out.xyz', 'w' )
f.write( "19  " )
f.write( str(ee) + "\n" )
f.write( MOL.save_string_xyz() )
f.close()
--------------------------------------------------------------------------

  Memory set to   2.000 GiB by Python script.
gradient() will perform analytic gradient computation.

*** tstart() called on cx1-1-3-4.cx1.hpc.ic.ac.uk
*** at Fri Sep  2 13:02:19 2016


         ---------------------------------------------------------
                                   SCF
            by Justin Turney, Rob Parrish, and Andy Simmonett
                              RHF Reference
                        4 Threads,   2000 MiB Core
         ---------------------------------------------------------

  ==> Geometry <==

    Molecular point group: c1
    Full point group: C1

    Geometry (in Angstrom), charge = 0, multiplicity = 1:

       Center              X                  Y                   Z               Mass       
    ------------   -----------------  -----------------  -----------------  -----------------
           O         -1.847089463673    -1.261561340401    -0.642613660430    15.994914619560
           C         -1.458452463673    -0.179333340401    -0.323446660430    12.000000000000
           C         -0.136843463673    -0.009151340401     0.404828339570    12.000000000000
           C         -2.243119463673     1.073073659599    -0.645952660430    12.000000000000
           C          1.041172536327    -0.034893340401    -0.581826660430    12.000000000000
           H         -0.128323463673     0.920666659599     0.966743339570     1.007825032070
           H         -0.039999463673    -0.829969340401     1.106826339570     1.007825032070
           C          2.395768536327     0.102955659599     0.114663339570    12.000000000000
           H          0.929169536327     0.766856659599    -1.309655660430     1.007825032070
           H          1.006644536327    -0.966958340401    -1.137887660430     1.007825032070
           C          2.267186536327     0.289323659599     1.625934339570    12.000000000000
           H          2.999659536327    -0.778114340401    -0.091386660430     1.007825032070
           H          2.931920536327     0.948405659599    -0.309982660430     1.007825032070
           H          1.764467536327    -0.557329340401     2.084743339570     1.007825032070
           H          1.695213536327     1.181518659599     1.863161339570     1.007825032070
           H          3.242252536327     0.387262659599     2.092496339570     1.007825032070
           H         -3.082363463673     0.829898659599    -1.282571660430     1.007825032070
           H         -1.611313463673     1.809856659599    -1.133254660430     1.007825032070
           H         -2.607393463673     1.521816659599     0.274475339570     1.007825032070

  Running in c1 symmetry.

  Rotational constants: A =      0.18158  B =      0.04111  C =      0.03954 [cm^-1]
  Rotational constants: A =   5443.55725  B =   1232.59521  C =   1185.36348 [MHz]
  Nuclear repulsion =  307.896751149479087

  Charge       = 0
  Multiplicity = 1
  Electrons    = 56
  Nalpha       = 28
  Nbeta        = 28

  ==> Algorithm <==

  SCF Algorithm Type is DF.
  DIIS enabled.
  MOM disabled.
  Fractional occupation disabled.
  Guess Type is CORE.
  Energy threshold   = 1.00e-08
  Density threshold  = 1.00e-08
  Integral threshold = 0.00e+00

  ==> Primary Basis <==

  Basis Set: 6-31G*
    Number of shells: 66
    Number of basis function: 129
    Number of Cartesian functions: 129
    Spherical Harmonics?: false
    Max angular momentum: 2

  ==> Pre-Iterations <==

   -------------------------------------------------------
    Irrep   Nso     Nmo     Nalpha   Nbeta   Ndocc  Nsocc
   -------------------------------------------------------
     A        129     129       0       0       0       0
   -------------------------------------------------------
    Total     129     129      28      28      28       0
   -------------------------------------------------------

 OEINTS: Overlap, kinetic, potential, dipole, and quadrupole integrals
         stored in file 35.

  ==> Integral Setup <==

  ==> DFJK: Density-Fitted J/K Matrices <==

    J tasked:                  Yes
    K tasked:                  Yes
    wK tasked:                  No
    OpenMP threads:              4
    Integrals threads:           4
    Memory (MB):              1430
    Algorithm:                Core
    Integral Cache:           NONE
    Schwarz Cutoff:          1E-12
    Fitting Condition:       1E-12

   => Auxiliary Basis Set <=

  Basis Set: 
    Number of shells: 276
    Number of basis function: 867
    Number of Cartesian functions: 867
    Spherical Harmonics?: false
    Max angular momentum: 3

  Minimum eigenvalue in the overlap matrix is 2.9850073876E-03.
  Using Symmetric Orthogonalization.
  SCF Guess: Core (One-Electron) Hamiltonian.

  ==> Iterations <==

                           Total Energy        Delta E     RMS |[F,P]|

   @DF-RHF iter   1:  -238.81599364670319   -2.38816e+02   6.71959e-02 
   @DF-RHF iter   2:  -209.38842090107767    2.94276e+01   5.37581e-02 DIIS
   @DF-RHF iter   3:  -258.68599287386473   -4.92976e+01   5.48564e-02 DIIS
   @DF-RHF iter   4:  -298.35674950229395   -3.96708e+01   2.60711e-02 DIIS
   @DF-RHF iter   5:  -306.55637241609020   -8.19962e+00   1.52953e-02 DIIS
   @DF-RHF iter   6:  -308.94742633713508   -2.39105e+00   3.26858e-03 DIIS
   @DF-RHF iter   7:  -309.03512271598993   -8.76964e-02   1.20141e-03 DIIS
   @DF-RHF iter   8:  -309.04752816193945   -1.24054e-02   5.03427e-04 DIIS
   @DF-RHF iter   9:  -309.05031337403636   -2.78521e-03   1.50879e-04 DIIS
   @DF-RHF iter  10:  -309.05053366340121   -2.20289e-04   7.47396e-05 DIIS
   @DF-RHF iter  11:  -309.05058480444313   -5.11410e-05   1.50516e-05 DIIS
   @DF-RHF iter  12:  -309.05058970610685   -4.90166e-06   5.80113e-06 DIIS
   @DF-RHF iter  13:  -309.05059035768068   -6.51574e-07   2.33188e-06 DIIS
   @DF-RHF iter  14:  -309.05059054420985   -1.86529e-07   9.46695e-07 DIIS
   @DF-RHF iter  15:  -309.05059059010421   -4.58944e-08   3.62655e-07 DIIS
   @DF-RHF iter  16:  -309.05059059757775   -7.47355e-09   1.21600e-07 DIIS
   @DF-RHF iter  17:  -309.05059059817734   -5.99584e-10   4.99404e-08 DIIS
   @DF-RHF iter  18:  -309.05059059825396   -7.66249e-11   1.71737e-08 DIIS
   @DF-RHF iter  19:  -309.05059059826044   -6.48015e-12   4.16948e-09 DIIS

  ==> Post-Iterations <==

    Orbital Energies (a.u.)
    -----------------------

    Doubly Occupied:                                                      

       1A    -20.546213     2A    -11.323176     3A    -11.228959  
       4A    -11.227649     5A    -11.227611     6A    -11.223321  
       7A    -11.215159     8A     -1.392089     9A     -1.095609  
      10A     -1.025261    11A     -0.977274    12A     -0.906932  
      13A     -0.793369    14A     -0.733398    15A     -0.666048  
      16A     -0.654661    17A     -0.620536    18A     -0.604256  
      19A     -0.585657    20A     -0.564581    21A     -0.556531  
      22A     -0.542025    23A     -0.528960    24A     -0.503250  
      25A     -0.480730    26A     -0.463879    27A     -0.454799  
      28A     -0.396744  

    Virtual:                                                              

      29A      0.170651    30A      0.213882    31A      0.246353  
      32A      0.256819    33A      0.268168    34A      0.285646  
      35A      0.297391    36A      0.308793    37A      0.318287  
      38A      0.343525    39A      0.359490    40A      0.366909  
      41A      0.376703    42A      0.407142    43A      0.430582  
      44A      0.442163    45A      0.478691    46A      0.511965  
      47A      0.526288    48A      0.710200    49A      0.719495  
      50A      0.733789    51A      0.748969    52A      0.773015  
      53A      0.810572    54A      0.816336    55A      0.832071  
      56A      0.857054    57A      0.901709    58A      0.923266  
      59A      0.951978    60A      0.978802    61A      0.982199  
      62A      0.991483    63A      1.055349    64A      1.094634  
      65A      1.122285    66A      1.125570    67A      1.139063  
      68A      1.153312    69A      1.157695    70A      1.175564  
      71A      1.183374    72A      1.194193    73A      1.200549  
      74A      1.205813    75A      1.222207    76A      1.233393  
      77A      1.262903    78A      1.298271    79A      1.344116  
      80A      1.372611    81A      1.403967    82A      1.429902  
      83A      1.513034    84A      1.662677    85A      1.689281  
      86A      1.708296    87A      1.748602    88A      1.792790  
      89A      1.856797    90A      1.925688    91A      2.020575  
      92A      2.076292    93A      2.098823    94A      2.115174  
      95A      2.140325    96A      2.172465    97A      2.197610  
      98A      2.238255    99A      2.251986   100A      2.272935  
     101A      2.304892   102A      2.358755   103A      2.378904  
     104A      2.436314   105A      2.500087   106A      2.505553  
     107A      2.533342   108A      2.592195   109A      2.627983  
     110A      2.684828   111A      2.716523   112A      2.740741  
     113A      2.748310   114A      2.814527   115A      2.848423  
     116A      2.925811   117A      2.983728   118A      3.037423  
     119A      3.087830   120A      3.159428   121A      3.377703  
     122A      3.380343   123A      4.460917   124A      4.532880  
     125A      4.608540   126A      4.722113   127A      4.793181  
     128A      4.906157   129A      5.079080  

    Final Occupation by Irrep:
              A 
    DOCC [    28 ]

  Energy converged.

  @DF-RHF Final Energy:  -309.05059059826044

   => Energetics <=

    Nuclear Repulsion Energy =            307.8967511494790870
    One-Electron Energy =               -1028.8173246365079194
    Two-Electron Energy =                 411.8699828887681065
    DFT Exchange-Correlation Energy =       0.0000000000000000
    Empirical Dispersion Energy =           0.0000000000000000
    PCM Polarization Energy =               0.0000000000000000
    EFP Energy =                            0.0000000000000000
    Total Energy =                       -309.0505905982607260

    Alert: EFP and PCM quantities not currently incorporated into SCF psivars.

Properties will be evaluated at   0.000000,   0.000000,   0.000000 Bohr
  ==> Properties <==


Properties computed using the SCF density matrix

  Nuclear Dipole Moment: (a.u.)
     X:     6.6471      Y:     4.9006      Z:     2.9253

  Electronic Dipole Moment: (a.u.)
     X:    -6.1115      Y:    -3.8483      Z:    -2.6227

  Dipole Moment: (a.u.)
     X:     0.5356      Y:     1.0522      Z:     0.3026     Total:     1.2189

  Dipole Moment: (Debye)
     X:     1.3613      Y:     2.6745      Z:     0.7690     Total:     3.0980


  Saving occupied orbitals to File 180.

*** tstop() called on cx1-1-3-4.cx1.hpc.ic.ac.uk at Fri Sep  2 13:02:26 2016
Module time:
	user time   =      19.02 seconds =       0.32 minutes
	system time =       0.21 seconds =       0.00 minutes
	total time  =          7 seconds =       0.12 minutes
Total time:
	user time   =      19.02 seconds =       0.32 minutes
	system time =       0.21 seconds =       0.00 minutes
	total time  =          7 seconds =       0.12 minutes

*** tstart() called on cx1-1-3-4.cx1.hpc.ic.ac.uk
*** at Fri Sep  2 13:02:26 2016


         ------------------------------------------------------------
                                   SCF GRAD                          
                          Rob Parrish, Justin Turney,                
                       Andy Simmonett, and Alex Sokolov              
         ------------------------------------------------------------

  ==> Geometry <==

    Molecular point group: c1
    Full point group: C1

    Geometry (in Angstrom), charge = 0, multiplicity = 1:

       Center              X                  Y                   Z               Mass       
    ------------   -----------------  -----------------  -----------------  -----------------
           O         -1.847089463673    -1.261561340401    -0.642613660430    15.994914619560
           C         -1.458452463673    -0.179333340401    -0.323446660430    12.000000000000
           C         -0.136843463673    -0.009151340401     0.404828339570    12.000000000000
           C         -2.243119463673     1.073073659599    -0.645952660430    12.000000000000
           C          1.041172536327    -0.034893340401    -0.581826660430    12.000000000000
           H         -0.128323463673     0.920666659599     0.966743339570     1.007825032070
           H         -0.039999463673    -0.829969340401     1.106826339570     1.007825032070
           C          2.395768536327     0.102955659599     0.114663339570    12.000000000000
           H          0.929169536327     0.766856659599    -1.309655660430     1.007825032070
           H          1.006644536327    -0.966958340401    -1.137887660430     1.007825032070
           C          2.267186536327     0.289323659599     1.625934339570    12.000000000000
           H          2.999659536327    -0.778114340401    -0.091386660430     1.007825032070
           H          2.931920536327     0.948405659599    -0.309982660430     1.007825032070
           H          1.764467536327    -0.557329340401     2.084743339570     1.007825032070
           H          1.695213536327     1.181518659599     1.863161339570     1.007825032070
           H          3.242252536327     0.387262659599     2.092496339570     1.007825032070
           H         -3.082363463673     0.829898659599    -1.282571660430     1.007825032070
           H         -1.611313463673     1.809856659599    -1.133254660430     1.007825032070
           H         -2.607393463673     1.521816659599     0.274475339570     1.007825032070

  Nuclear repulsion =  307.896751149479030

  ==> Basis Set <==

  Basis Set: 6-31G*
    Number of shells: 66
    Number of basis function: 129
    Number of Cartesian functions: 129
    Spherical Harmonics?: false
    Max angular momentum: 2

  ==> DFJKGrad: Density-Fitted SCF Gradients <==

    Gradient:                    1
    J tasked:                  Yes
    K tasked:                  Yes
    wK tasked:                  No
    OpenMP threads:              4
    Integrals threads:           4
    Memory (MB):              1430
    Schwarz Cutoff:          0E+00
    Fitting Condition:       1E-12

   => Auxiliary Basis Set <=

  Basis Set: 
    Number of shells: 276
    Number of basis function: 867
    Number of Cartesian functions: 867
    Spherical Harmonics?: false
    Max angular momentum: 3


  -Total Gradient:
     Atom            X                  Y                   Z
    ------   -----------------  -----------------  -----------------
       1        0.000550428000     0.000493878919     0.000060612153
       2       -0.001488052215    -0.000229675603     0.000507005274
       3        0.008507344363     0.000769338161     0.003851317909
       4        0.000144793595     0.000052087323    -0.000095253088
       5        0.007144396932     0.001227459223     0.006297478205
       6        0.003641756629     0.002599044039     0.002555005449
       7        0.003472018222    -0.001286342572     0.002606872404
       8       -0.007938342528    -0.000857852653    -0.004321522700
       9        0.002335853046     0.001689657057    -0.000557831700
      10        0.002375049659    -0.001687921116    -0.000012225431
      11       -0.008764301877    -0.000833845928    -0.004780567768
      12       -0.000100836687    -0.001971183980    -0.001624156857
      13       -0.001111561015     0.001464727835    -0.002060327336
      14       -0.004132197756    -0.002338459261    -0.001051114170
      15       -0.004292126993     0.001013697503    -0.001851097244
      16       -0.000402876047    -0.000040713816     0.000437262254
      17        0.000037687882    -0.000047818351     0.000012789588
      18       -0.000030968748     0.000014982611     0.000019800156
      19        0.000051935541    -0.000031059392     0.000005952901


*** tstop() called on cx1-1-3-4.cx1.hpc.ic.ac.uk at Fri Sep  2 13:02:31 2016
Module time:
	user time   =      20.66 seconds =       0.34 minutes
	system time =       0.19 seconds =       0.00 minutes
	total time  =          5 seconds =       0.08 minutes
Total time:
	user time   =      39.70 seconds =       0.66 minutes
	system time =       0.40 seconds =       0.01 minutes
	total time  =         12 seconds =       0.20 minutes
CURRENT ENERGY: -309.0505905983

			-----------------------------------------
			 OPTKING 2.0: for geometry optimizations 
			  - R.A. King,  Bethel University        
			-----------------------------------------

	Internal coordinates to be generated automatically.
	Detected frag with atoms:  1 2 3 4 5 6 7 8 9 10 11 12 13 14 15 16 17 18 19
	---Fragment 1 Bond Connectivity---
	 1 : 2
	 2 : 1 3 4
	 3 : 2 5 6 7
	 4 : 2 17 18 19
	 5 : 3 8 9 10
	 6 : 3
	 7 : 3
	 8 : 5 11 12 13
	 9 : 5
	 10 : 5
	 11 : 8 14 15 16
	 12 : 8
	 13 : 8
	 14 : 11
	 15 : 11
	 16 : 11
	 17 : 4
	 18 : 4
	 19 : 4

	Assuming in current code that numbering for constraints corresponds to unified fragment.
	Frozen dihedral atom list: 
	    11     8     5     9
	---Fragment 1 Geometry and Gradient---
	 O          -3.4904932293       -2.3840054332       -1.2143638275
	 C          -2.7560757342       -0.3388908999       -0.6112256068
	 C          -0.2585966694       -0.0172935271        0.7650146926
	 C          -4.2388814697        2.0278153371       -1.2206736230
	 C           1.9675309507       -0.0659388572       -1.0994930450
	 H          -0.2424962028        1.7398078463        1.8268801526
	 H          -0.0755880318       -1.5684147521        2.0915986585
	 C           4.5273464114        0.1945580005        0.2166823093
	 H           1.7558759547        1.4491490698       -2.4748905266
	 H           1.9022824868       -1.8272864453       -2.1502960482
	 C           4.2843616458        0.5467424804        3.0725706118
	 H           5.6685350156       -1.4704230034       -0.1726957604
	 H           5.5405268570        1.7922269595       -0.5857823342
	 H           3.3343604140       -1.0531998192        3.9395939691
	 H           3.2034893204        2.2327466875        3.5208646732
	 H           6.1269693473        0.7318203681        3.9542450159
	 H          -5.8248227884        1.5682811847       -2.4237091840
	 H          -3.0449411606        3.4201334264       -2.1415409470
	 H          -4.9272595670        2.8758167111        0.5186832220
	             0.0005504280        0.0004938789        0.0000606122
	            -0.0014880522       -0.0002296756        0.0005070053
	             0.0085073444        0.0007693382        0.0038513179
	             0.0001447936        0.0000520873       -0.0000952531
	             0.0071443969        0.0012274592        0.0062974782
	             0.0036417566        0.0025990440        0.0025550054
	             0.0034720182       -0.0012863426        0.0026068724
	            -0.0079383425       -0.0008578527       -0.0043215227
	             0.0023358530        0.0016896571       -0.0005578317
	             0.0023750497       -0.0016879211       -0.0000122254
	            -0.0087643019       -0.0008338459       -0.0047805678
	            -0.0001008367       -0.0019711840       -0.0016241569
	            -0.0011115610        0.0014647278       -0.0020603273
	            -0.0041321978       -0.0023384593       -0.0010511142
	            -0.0042921270        0.0010136975       -0.0018510972
	            -0.0004028760       -0.0000407138        0.0004372623
	             0.0000376879       -0.0000478184        0.0000127896
	            -0.0000309687        0.0000149826        0.0000198002
	             0.0000519355       -0.0000310594        0.0000059529

	Previous optimization step data not found.  Starting new optimization.

	---Fragment 1 Intrafragment Coordinates---
	 - Coordinate -           - BOHR/RAD -       - ANG/DEG -
	 R(1,2)           =         2.255136	       1.193367
	 R(2,3)           =         2.869645	       1.518551
	 R(2,4)           =         2.858573	       1.512692
	 R(3,5)           =         2.904204	       1.536839
	 R(3,6)           =         2.053101	       1.086454
	 R(3,7)           =         2.049218	       1.084400
	 R(4,17)          =         2.042958	       1.081087
	 R(4,18)          =         2.052325	       1.086044
	 R(4,19)          =         2.053858	       1.086855
	 R(5,8)           =         2.890127	       1.529389
	 R(5,9)           =         2.057184	       1.088615
	 R(5,10)          =         2.052021	       1.085883
	 R(8,11)          =         2.887763	       1.528138
	 R(8,12)          =         2.055745	       1.087854
	 R(8,13)          =         2.055001	       1.087460
	 R(11,14)         =         2.052814	       1.086303
	 R(11,15)         =         2.052282	       1.086021
	 R(11,16)         =         2.051050	       1.085369
	 B(1,2,3)         =         2.109852	     120.885632
	 B(1,2,4)         =         2.123367	     121.659979
	 B(2,3,5)         =         1.936211	     110.936693
	 B(2,3,6)         =         1.929199	     110.534943
	 B(2,3,7)         =         1.879014	     107.659575
	 B(2,4,17)        =         1.919838	     109.998643
	 B(2,4,18)        =         1.934323	     110.828559
	 B(2,4,19)        =         1.912552	     109.581178
	 B(3,2,4)         =         2.049818	     117.445927
	 B(3,5,8)         =         1.966040	     112.645819
	 B(3,5,9)         =         1.915621	     109.757018
	 B(3,5,10)        =         1.895220	     108.588096
	 B(5,3,6)         =         1.918105	     109.899331
	 B(5,3,7)         =         1.911843	     109.540555
	 B(5,8,11)        =         1.968003	     112.758241
	 B(5,8,12)        =         1.909663	     109.415643
	 B(5,8,13)        =         1.905962	     109.203568
	 B(6,3,7)         =         1.888398	     108.197214
	 B(8,5,9)         =         1.906274	     109.221452
	 B(8,5,10)        =         1.916366	     109.799707
	 B(8,11,14)       =         1.940762	     111.197487
	 B(8,11,15)       =         1.939635	     111.132906
	 B(8,11,16)       =         1.939636	     111.132954
	 B(9,5,10)        =         1.861390	     106.649773
	 B(11,8,12)       =         1.910072	     109.439053
	 B(11,8,13)       =         1.910123	     109.441975
	 B(12,8,13)       =         1.856692	     106.380607
	 B(14,11,15)      =         1.879999	     107.715996
	 B(14,11,16)      =         1.880231	     107.729324
	 B(15,11,16)      =         1.880856	     107.765100
	 B(17,4,18)       =         1.917699	     109.876061
	 B(17,4,19)       =         1.908566	     109.352762
	 B(18,4,19)       =         1.870111	     107.149457
	 D(1,2,3,5)       =         1.419639	      81.339340
	 D(1,2,3,6)       =        -2.731233	    -156.488130
	 D(1,2,3,7)       =        -0.672026	     -38.504249
	 D(1,2,4,17)      =        -0.123096	      -7.052904
	 D(1,2,4,18)      =        -2.247263	    -128.758683
	 D(1,2,4,19)      =         1.975639	     113.195760
	 D(2,3,5,8)       =        -3.119694	    -178.745300
	 D(2,3,5,9)       =         1.035412	      59.324765
	 D(2,3,5,10)      =        -0.993200	     -56.906146
	 D(3,2,4,17)      =         3.000178	     171.897516
	 D(3,2,4,18)      =         0.876011	      50.191737
	 D(3,2,4,19)      =        -1.184273	     -67.853820
	 D(3,5,8,11)      =        -0.038962	      -2.232339
	 D(3,5,8,12)      =         2.091052	     119.808431
	 D(3,5,8,13)      =        -2.166400	    -124.125598
	 D(4,2,3,5)       =        -1.703785	     -97.619661
	 D(4,2,3,6)       =         0.428528	      24.552869
	 D(4,2,3,7)       =         2.487736	     142.536749
	 D(5,8,11,14)     =         1.050157	      60.169587
	 D(5,8,11,15)     =        -1.044030	     -59.818496
	 D(5,8,11,16)     =        -3.138546	    -179.825440
	 D(6,3,5,8)       =         1.024730	      58.712715
	 D(6,3,5,9)       =        -1.103349	     -63.217220
	 D(6,3,5,10)      =        -3.131961	    -179.448132
	 D(7,3,5,8)       =        -1.047735	     -60.030774
	 D(7,3,5,9)       =         3.107372	     178.039291
	 D(7,3,5,10)      =         1.078760	      61.808379
	*D(9,5,8,11)      =         2.094395	     119.999972
	 D(9,5,8,12)      =        -2.058777	    -117.959258
	 D(9,5,8,13)      =        -0.033044	      -1.893287
	 D(10,5,8,11)     =        -2.153440	    -123.383051
	 D(10,5,8,12)     =        -0.023427	      -1.342282
	 D(10,5,8,13)     =         2.002306	     114.723689
	 D(12,8,11,14)    =        -1.079626	     -61.857987
	 D(12,8,11,15)    =         3.109373	     178.153929
	 D(12,8,11,16)    =         1.014856	      58.146986
	 D(13,8,11,14)    =        -3.107940	    -178.071843
	 D(13,8,11,15)    =         1.081058	      61.940073
	 D(13,8,11,16)    =        -1.013458	     -58.066871

	Current energy   :      -309.0505905983

	Generating empirical Hessian (Schlegel '84) for each fragment.
	Taking RFO optimization step.
	Going to follow RFO solution 1.
	Using RFO vector 1.
	Norm of target step-size    0.36322
	Projected energy change by RFO approximation:        -0.0230635587

	Back-transformation to cartesian coordinates...
	Successfully converged to displaced geometry.

	Back-transformation to cartesian coordinates to adjust frozen coordinates...
	Successfully converged to displaced geometry.

	--- Internal Coordinate Step in ANG or DEG, aJ/ANG or AJ/DEG ---
	 ---------------------------------------------------------------------------
	   Coordinate                Previous        Force       Change         New 
	   ----------                --------       ------       ------       ------
	    1 R(1,2)          =      1.193367     0.005300     0.000307     1.193674
	    2 R(2,3)          =      1.518551    -0.003012    -0.000586     1.517965
	    3 R(2,4)          =      1.512692     0.000850     0.000163     1.512854
	    4 R(3,5)          =      1.536839     0.043315     0.008886     1.545725
	    5 R(3,6)          =      1.086454    -0.029448    -0.005013     1.081442
	    6 R(3,7)          =      1.084400    -0.024480    -0.004140     1.080259
	    7 R(4,17)         =      1.081087     0.000214     0.000036     1.081123
	    8 R(4,18)         =      1.086044     0.000138     0.000023     1.086067
	    9 R(4,19)         =      1.086855     0.000208     0.000035     1.086890
	   10 R(5,8)          =      1.529389     0.255011     0.051205     1.580594
	   11 R(5,9)          =      1.088615    -0.011345    -0.001944     1.086671
	   12 R(5,10)         =      1.085883    -0.011366    -0.001931     1.083952
	   13 R(8,11)         =      1.528138     0.049050     0.009813     1.537952
	   14 R(8,12)         =      1.087854    -0.015226    -0.002603     1.085250
	   15 R(8,13)         =      1.087460    -0.011495    -0.001963     1.085497
	   16 R(11,14)        =      1.086303    -0.027113    -0.004613     1.081690
	   17 R(11,15)        =      1.086021    -0.022154    -0.003766     1.082255
	   18 R(11,16)        =      1.085369     0.001464     0.000248     1.085617
	   19 B(1,2,3)        =    120.885632     0.000025     0.069694   120.955326
	   20 B(1,2,4)        =    121.659979    -0.000021    -0.057053   121.602926
	   21 B(2,3,5)        =    110.936693    -0.000283    -1.062314   109.874378
	   22 B(2,3,6)        =    110.534943    -0.000081    -0.924656   109.610286
	   23 B(2,3,7)        =    107.659575    -0.000075    -0.940226   106.719349
	   24 B(2,4,17)       =    109.998643     0.000006     0.022557   110.021200
	   25 B(2,4,18)       =    110.828559    -0.000006    -0.024029   110.804530
	   26 B(2,4,19)       =    109.581178     0.000005     0.023687   109.604865
	   27 B(3,2,4)        =    117.445927    -0.000004    -0.009036   117.436891
	   28 B(3,5,8)        =    112.645819     0.002914     9.694893   122.340711
	   29 B(3,5,9)        =    109.757018    -0.001037    -3.278275   106.478743
	   30 B(3,5,10)       =    108.588096    -0.001006    -3.349300   105.238796
	   31 B(5,3,6)        =    109.899331     0.000241     1.252098   111.151428
	   32 B(5,3,7)        =    109.540555     0.000209     1.100097   110.640653
	   33 B(5,8,11)       =    112.758241     0.003121    10.355164   123.113405
	   34 B(5,8,12)       =    109.415643    -0.000880    -1.974119   107.441524
	   35 B(5,8,13)       =    109.203568    -0.000811    -1.753055   107.450513
	   36 B(6,3,7)        =    108.197214    -0.000007     0.537918   108.735132
	   37 B(8,5,9)        =    109.221452    -0.000736    -1.390765   107.830687
	   38 B(8,5,10)       =    109.799707    -0.000725    -1.472553   108.327154
	   39 B(8,11,14)      =    111.197487     0.000259     1.273990   112.471476
	   40 B(8,11,15)      =    111.132906     0.000274     1.316969   112.449875
	   41 B(8,11,16)      =    111.132954    -0.000221    -1.357151   109.775803
	   42 B(9,5,10)       =    106.649773     0.000459    -1.178945   105.470828
	   43 B(11,8,12)      =    109.439053    -0.000926    -2.825275   106.613778
	   44 B(11,8,13)      =    109.441975    -0.001104    -3.561970   105.880005
	   45 B(12,8,13)      =    106.380607     0.000447    -1.351151   105.029456
	   46 B(14,11,15)     =    107.715996    -0.000079     0.509460   108.225455
	   47 B(14,11,16)     =    107.729324    -0.000117    -0.888382   106.840941
	   48 B(15,11,16)     =    107.765100    -0.000134    -0.997107   106.767993
	   49 B(17,4,18)      =    109.876061    -0.000001    -0.009067   109.866995
	   50 B(17,4,19)      =    109.352762    -0.000005    -0.016305   109.336458
	   51 B(18,4,19)      =    107.149457     0.000000     0.002583   107.152040
	   52 D(1,2,3,5)      =     81.339340     0.000001     0.171136    81.510476
	   53 D(1,2,3,6)      =   -156.488130     0.000014     0.417501  -156.070629
	   54 D(1,2,3,7)      =    -38.504249    -0.000009     0.017316   -38.486933
	   55 D(1,2,4,17)     =     -7.052904    -0.000001    -0.139265    -7.192168
	   56 D(1,2,4,18)     =   -128.758683    -0.000001    -0.127080  -128.885764
	   57 D(1,2,4,19)     =    113.195760    -0.000001    -0.130393   113.065366
	   58 D(2,3,5,8)      =   -178.745300     0.000003     0.318046  -178.427253
	   59 D(2,3,5,9)      =     59.324765    -0.000067    -2.171359    57.153407
	   60 D(2,3,5,10)     =    -56.906146     0.000069     2.412007   -54.494139
	   61 D(3,2,4,17)     =    171.897516     0.000001     0.115639   172.013155
	   62 D(3,2,4,18)     =     50.191737     0.000001     0.127823    50.319560
	   63 D(3,2,4,19)     =    -67.853820     0.000001     0.124510   -67.729310
	   64 D(3,5,8,11)     =     -2.232339    -0.000027    -1.570879    -3.803219
	   65 D(3,5,8,12)     =    119.808431     0.000042     0.632716   120.441147
	   66 D(3,5,8,13)     =   -124.125598    -0.000053    -2.870980  -126.996578
	   67 D(4,2,3,5)      =    -97.619661    -0.000001    -0.080625   -97.700286
	   68 D(4,2,3,6)      =     24.552869     0.000011     0.165740    24.718609
	   69 D(4,2,3,7)      =    142.536749    -0.000011    -0.234445   142.302305
	   70 D(5,8,11,14)    =     60.169587     0.000031     1.250889    61.420476
	   71 D(5,8,11,15)    =    -59.818496    -0.000028    -1.248624   -61.067121
	   72 D(5,8,11,16)    =   -179.825440     0.000003     0.054796  -179.770644
	   73 D(6,3,5,8)      =     58.712715     0.000033     1.358883    60.071598
	   74 D(6,3,5,9)      =    -63.217220    -0.000038    -1.130521   -64.347742
	   75 D(6,3,5,10)     =   -179.448132     0.000098     3.452844  -175.995287
	   76 D(7,3,5,8)      =    -60.030774    -0.000028    -0.812118   -60.842892
	   77 D(7,3,5,9)      =    178.039291    -0.000098    -3.301523   174.737768
	   78 D(7,3,5,10)     =     61.808379     0.000038     1.281843    63.090222
	   79 *D(9,5,8,11)    =    119.999972    -0.000000     0.000000   119.999972
	   80 D(9,5,8,12)     =   -117.959258     0.000069     2.203596  -115.755662
	   81 D(9,5,8,13)     =     -1.893287    -0.000025    -1.300100    -3.193387
	   82 D(10,5,8,11)    =   -123.383051    -0.000065    -2.930823  -126.313875
	   83 D(10,5,8,12)    =     -1.342282     0.000004    -0.727227    -2.069509
	   84 D(10,5,8,13)    =    114.723689    -0.000091    -4.230924   110.492766
	   85 D(12,8,11,14)   =    -61.857987    -0.000044    -1.335736   -63.193722
	   86 D(12,8,11,15)   =    178.153929    -0.000103    -3.835249   174.318681
	   87 D(12,8,11,16)   =     58.146986    -0.000072    -2.531828    55.615158
	   88 D(13,8,11,14)   =   -178.071843     0.000097     3.394726  -174.677117
	   89 D(13,8,11,15)   =     61.940073     0.000038     0.895213    62.835286
	   90 D(13,8,11,16)   =    -58.066871     0.000068     2.198634   -55.868237
	 ---------------------------------------------------------------------------

  ==> Convergence Check <==

  Measures of convergence in internal coordinates in au.
  Criteria marked as inactive (o), active & met (*), and active & unmet ( ).
  --------------------------------------------------------------------------------------------- ~
   Step     Total Energy     Delta E     MAX Force     RMS Force      MAX Disp      RMS Disp    ~
  --------------------------------------------------------------------------------------------- ~
    Convergence Criteria    1.00e-06 *    3.00e-04 *             o    1.20e-03 *             o  ~
  --------------------------------------------------------------------------------------------- ~
      1    -309.05059060   -3.09e+02      4.10e-02      8.04e-03 o    1.81e-01      3.83e-02 o  ~
  ---------------------------------------------------------------------------------------------

	Writing optimization data to binary file.
	Structure for next step:
	Cartesian Geometry (in Angstrom)
	    O    -1.9016640851  -1.2603478696  -0.8460263919
	    C    -1.5686297329  -0.1872032128  -0.4431535946
	    C    -0.3462242205  -0.0307869881   0.4431173396
	    C    -2.3311027906   1.0678018349  -0.8069189415
	    C     0.9324836834  -0.0057853037  -0.4249528604
	    H    -0.4369162867   0.8727610857   1.0303921459
	    H    -0.3362552972  -0.8794482724   1.1114244696
	    C     2.3784655491   0.1099017964   0.2027656529
	    H     0.8098679434   0.8111818552  -1.1309159897
	    H     0.8906347563  -0.9108459170  -1.0199863180
	    C     2.6282884510   0.2915394542   1.7093815973
	    H     2.9360305270  -0.7704628392  -0.1002986934
	    H     2.8789321084   0.9413084416  -0.2836499259
	    H     2.2498317569  -0.5361561658   2.2939696030
	    H     2.1922491276   1.2045589495   2.0934928660
	    H     3.6953941593   0.3495579637   1.9003902820
	    H    -3.0862136500   0.8408312163  -1.5465932334
	    H    -1.6587317674   1.8308466132  -1.1879992729
	    H    -2.8078824982   1.4750722886   0.0808549522
			--------------------------
			 OPTKING Finished Execution 
			--------------------------

    Structure for next step:
    Molecular point group: c1
    Full point group: C1

    Geometry (in Angstrom), charge = 0, multiplicity = 1:

    O           -1.874554929043    -1.260913054511    -0.825016917062
    C           -1.541520602349    -0.187768479670    -0.422144150463
    C           -0.319115183218    -0.031352266885     0.464126715980
    C           -2.303993601818     1.067236472251    -0.785909469654
    C            0.959592622999    -0.006350584427    -0.403943417686
    H           -0.409807242530     0.872195737950     1.051401477477
    H           -0.309146260664    -0.880013486397     1.132433794983
    C            2.405574378275     0.109336506932     0.223775047721
    H            0.836976892401     0.810616512096    -1.109906493114
    H            0.917743699098    -0.911411128547    -0.998976829891
    C            2.655397261154     0.290974150775     1.730390877058
    H            2.963139313584    -0.771028061530    -0.079289275526
    H            2.906040899391     0.940743088621    -0.262640493955
    H            2.276940595866    -0.536721405986     2.314978838082
    H            2.219357970972     1.203993576417     2.114502116379
    H            3.722502887943     0.348992655902     1.921399547096
    H           -3.059104403504     0.840265870928    -1.525583704996
    H           -1.631622629876     1.830281192264    -1.166989771870
    H           -2.780773273014     1.474506894871     0.101864356299

gradient() will perform analytic gradient computation.

*** tstart() called on cx1-1-3-4.cx1.hpc.ic.ac.uk
*** at Fri Sep  2 13:02:33 2016


         ---------------------------------------------------------
                                   SCF
            by Justin Turney, Rob Parrish, and Andy Simmonett
                              RHF Reference
                        4 Threads,   2000 MiB Core
         ---------------------------------------------------------

  ==> Geometry <==

    Molecular point group: c1
    Full point group: C1

    Geometry (in Angstrom), charge = 0, multiplicity = 1:

       Center              X                  Y                   Z               Mass       
    ------------   -----------------  -----------------  -----------------  -----------------
           O         -1.874554929043    -1.260913054511    -0.825016917062    15.994914619560
           C         -1.541520602349    -0.187768479670    -0.422144150463    12.000000000000
           C         -0.319115183218    -0.031352266885     0.464126715980    12.000000000000
           C         -2.303993601818     1.067236472251    -0.785909469654    12.000000000000
           C          0.959592622999    -0.006350584427    -0.403943417686    12.000000000000
           H         -0.409807242530     0.872195737950     1.051401477477     1.007825032070
           H         -0.309146260664    -0.880013486397     1.132433794983     1.007825032070
           C          2.405574378275     0.109336506932     0.223775047721    12.000000000000
           H          0.836976892401     0.810616512096    -1.109906493114     1.007825032070
           H          0.917743699098    -0.911411128547    -0.998976829891     1.007825032070
           C          2.655397261154     0.290974150775     1.730390877058    12.000000000000
           H          2.963139313584    -0.771028061530    -0.079289275526     1.007825032070
           H          2.906040899391     0.940743088621    -0.262640493955     1.007825032070
           H          2.276940595866    -0.536721405986     2.314978838082     1.007825032070
           H          2.219357970972     1.203993576417     2.114502116379     1.007825032070
           H          3.722502887943     0.348992655902     1.921399547096     1.007825032070
           H         -3.059104403504     0.840265870928    -1.525583704996     1.007825032070
           H         -1.631622629876     1.830281192264    -1.166989771870     1.007825032070
           H         -2.780773273014     1.474506894871     0.101864356299     1.007825032070

  Running in c1 symmetry.

  Rotational constants: A =      0.19362  B =      0.03654  C =      0.03500 [cm^-1]
  Rotational constants: A =   5804.56064  B =   1095.56130  C =   1049.41135 [MHz]
  Nuclear repulsion =  300.940755650147651

  Charge       = 0
  Multiplicity = 1
  Electrons    = 56
  Nalpha       = 28
  Nbeta        = 28

  ==> Algorithm <==

  SCF Algorithm Type is DF.
  DIIS enabled.
  MOM disabled.
  Fractional occupation disabled.
  Guess Type is READ.
  Energy threshold   = 1.00e-08
  Density threshold  = 1.00e-08
  Integral threshold = 0.00e+00

  ==> Primary Basis <==

  Basis Set: 6-31G*
    Number of shells: 66
    Number of basis function: 129
    Number of Cartesian functions: 129
    Spherical Harmonics?: false
    Max angular momentum: 2

  ==> Pre-Iterations <==

   -------------------------------------------------------
    Irrep   Nso     Nmo     Nalpha   Nbeta   Ndocc  Nsocc
   -------------------------------------------------------
     A        129     129       0       0       0       0
   -------------------------------------------------------
    Total     129     129      28      28      28       0
   -------------------------------------------------------

 OEINTS: Overlap, kinetic, potential, dipole, and quadrupole integrals
         stored in file 35.

  ==> Integral Setup <==

  ==> DFJK: Density-Fitted J/K Matrices <==

    J tasked:                  Yes
    K tasked:                  Yes
    wK tasked:                  No
    OpenMP threads:              4
    Integrals threads:           4
    Memory (MB):              1430
    Algorithm:                Core
    Integral Cache:           NONE
    Schwarz Cutoff:          1E-12
    Fitting Condition:       1E-12

   => Auxiliary Basis Set <=

  Basis Set: 
    Number of shells: 276
    Number of basis function: 867
    Number of Cartesian functions: 867
    Spherical Harmonics?: false
    Max angular momentum: 3

  Minimum eigenvalue in the overlap matrix is 3.5521065790E-03.
  Using Symmetric Orthogonalization.
  SCF Guess: Reading in previously saved MOs, projecting if necessary.

  Using orbitals from previous SCF, no projection.
  Recomputing DOCC and SOCC from number of alpha and beta electrons from previous calculation.
              A 
    DOCC [    28 ]

  ==> Iterations <==

                           Total Energy        Delta E     RMS |[F,P]|

   @DF-RHF iter   0:  -308.97302026025744   -3.08973e+02   3.03479e-03 
   @DF-RHF iter   1:  -309.04507416035170   -7.20539e-02   5.41593e-04 
   @DF-RHF iter   2:  -309.04965523322579   -4.58107e-03   1.89823e-04 DIIS
   @DF-RHF iter   3:  -309.05031952286816   -6.64290e-04   7.52365e-05 DIIS
   @DF-RHF iter   4:  -309.05041273637829   -9.32135e-05   2.25268e-05 DIIS
   @DF-RHF iter   5:  -309.05043448561236   -2.17492e-05   1.05433e-05 DIIS
   @DF-RHF iter   6:  -309.05043998611933   -5.50051e-06   4.20705e-06 DIIS
   @DF-RHF iter   7:  -309.05044089648680   -9.10367e-07   1.61925e-06 DIIS
   @DF-RHF iter   8:  -309.05044099477612   -9.82893e-08   8.33527e-07 DIIS
   @DF-RHF iter   9:  -309.05044101602863   -2.12525e-08   3.38186e-07 DIIS
   @DF-RHF iter  10:  -309.05044101940661   -3.37798e-09   6.36091e-08 DIIS
   @DF-RHF iter  11:  -309.05044101952552   -1.18916e-10   1.46645e-08 DIIS
   @DF-RHF iter  12:  -309.05044101952950   -3.97904e-12   4.20866e-09 DIIS

  ==> Post-Iterations <==

    Orbital Energies (a.u.)
    -----------------------

    Doubly Occupied:                                                      

       1A    -20.548681     2A    -11.325476     3A    -11.234269  
       4A    -11.229684     5A    -11.228872     6A    -11.228690  
       7A    -11.216812     8A     -1.394143     9A     -1.080112  
      10A     -1.027425    11A     -0.984624    12A     -0.901523  
      13A     -0.796856    14A     -0.732652    15A     -0.659544  
      16A     -0.647970    17A     -0.620668    18A     -0.604489  
      19A     -0.585650    20A     -0.573939    21A     -0.549423  
      22A     -0.545381    23A     -0.520723    24A     -0.498336  
      25A     -0.479853    26A     -0.465811    27A     -0.458435  
      28A     -0.398323  

    Virtual:                                                              

      29A      0.167347    30A      0.210551    31A      0.244175  
      32A      0.266890    33A      0.277000    34A      0.287010  
      35A      0.299536    36A      0.306477    37A      0.317525  
      38A      0.330966    39A      0.345173    40A      0.355160  
      41A      0.374227    42A      0.391960    43A      0.405774  
      44A      0.436387    45A      0.466278    46A      0.494208  
      47A      0.519387    48A      0.700268    49A      0.717804  
      50A      0.730660    51A      0.753872    52A      0.778856  
      53A      0.798826    54A      0.814075    55A      0.833981  
      56A      0.845517    57A      0.877944    58A      0.926246  
      59A      0.940765    60A      0.977602    61A      0.985807  
      62A      0.996333    63A      1.039483    64A      1.087310  
      65A      1.092688    66A      1.119712    67A      1.126127  
      68A      1.134328    69A      1.156559    70A      1.168969  
      71A      1.177129    72A      1.182346    73A      1.189587  
      74A      1.203438    75A      1.217106    76A      1.227183  
      77A      1.263563    78A      1.273010    79A      1.345249  
      80A      1.366173    81A      1.411625    82A      1.451717  
      83A      1.463050    84A      1.536706    85A      1.683616  
      86A      1.695202    87A      1.729170    88A      1.793857  
      89A      1.873222    90A      1.924527    91A      1.991985  
      92A      2.042319    93A      2.082153    94A      2.099905  
      95A      2.115419    96A      2.147789    97A      2.193126  
      98A      2.208137    99A      2.221176   100A      2.261301  
     101A      2.293356   102A      2.335858   103A      2.373926  
     104A      2.425970   105A      2.458050   106A      2.508236  
     107A      2.530577   108A      2.539412   109A      2.621895  
     110A      2.674977   111A      2.691000   112A      2.734761  
     113A      2.748221   114A      2.793523   115A      2.831114  
     116A      2.897830   117A      2.974737   118A      3.062380  
     119A      3.065767   120A      3.134293   121A      3.374625  
     122A      3.376214   123A      4.462721   124A      4.501110  
     125A      4.581457   126A      4.710176   127A      4.793593  
     128A      4.901351   129A      5.031869  

    Final Occupation by Irrep:
              A 
    DOCC [    28 ]

  Energy converged.

  @DF-RHF Final Energy:  -309.05044101952950

   => Energetics <=

    Nuclear Repulsion Energy =            300.9407556501476506
    One-Electron Energy =               -1014.9056692340158179
    Two-Electron Energy =                 404.9144725643383254
    DFT Exchange-Correlation Energy =       0.0000000000000000
    Empirical Dispersion Energy =           0.0000000000000000
    PCM Polarization Energy =               0.0000000000000000
    EFP Energy =                            0.0000000000000000
    Total Energy =                       -309.0504410195297851

    Alert: EFP and PCM quantities not currently incorporated into SCF psivars.

Properties will be evaluated at   0.000000,   0.000000,   0.000000 Bohr
  ==> Properties <==


Properties computed using the SCF density matrix

  Nuclear Dipole Moment: (a.u.)
     X:     7.1647      Y:     4.8898      Z:     3.2708

  Electronic Dipole Moment: (a.u.)
     X:    -6.6931      Y:    -3.8447      Z:    -2.8887

  Dipole Moment: (a.u.)
     X:     0.4717      Y:     1.0451      Z:     0.3821     Total:     1.2086

  Dipole Moment: (Debye)
     X:     1.1989      Y:     2.6563      Z:     0.9712     Total:     3.0719


  Saving occupied orbitals to File 180.

*** tstop() called on cx1-1-3-4.cx1.hpc.ic.ac.uk at Fri Sep  2 13:02:39 2016
Module time:
	user time   =      17.44 seconds =       0.29 minutes
	system time =       0.18 seconds =       0.00 minutes
	total time  =          6 seconds =       0.10 minutes
Total time:
	user time   =      58.71 seconds =       0.98 minutes
	system time =       0.67 seconds =       0.01 minutes
	total time  =         20 seconds =       0.33 minutes

*** tstart() called on cx1-1-3-4.cx1.hpc.ic.ac.uk
*** at Fri Sep  2 13:02:39 2016


         ------------------------------------------------------------
                                   SCF GRAD                          
                          Rob Parrish, Justin Turney,                
                       Andy Simmonett, and Alex Sokolov              
         ------------------------------------------------------------

  ==> Geometry <==

    Molecular point group: c1
    Full point group: C1

    Geometry (in Angstrom), charge = 0, multiplicity = 1:

       Center              X                  Y                   Z               Mass       
    ------------   -----------------  -----------------  -----------------  -----------------
           O         -1.874554929043    -1.260913054511    -0.825016917062    15.994914619560
           C         -1.541520602349    -0.187768479670    -0.422144150463    12.000000000000
           C         -0.319115183218    -0.031352266885     0.464126715980    12.000000000000
           C         -2.303993601818     1.067236472251    -0.785909469654    12.000000000000
           C          0.959592622999    -0.006350584427    -0.403943417686    12.000000000000
           H         -0.409807242530     0.872195737950     1.051401477477     1.007825032070
           H         -0.309146260664    -0.880013486397     1.132433794983     1.007825032070
           C          2.405574378275     0.109336506932     0.223775047721    12.000000000000
           H          0.836976892401     0.810616512096    -1.109906493114     1.007825032070
           H          0.917743699098    -0.911411128547    -0.998976829891     1.007825032070
           C          2.655397261154     0.290974150775     1.730390877058    12.000000000000
           H          2.963139313584    -0.771028061530    -0.079289275526     1.007825032070
           H          2.906040899391     0.940743088621    -0.262640493955     1.007825032070
           H          2.276940595866    -0.536721405986     2.314978838082     1.007825032070
           H          2.219357970972     1.203993576417     2.114502116379     1.007825032070
           H          3.722502887943     0.348992655902     1.921399547096     1.007825032070
           H         -3.059104403504     0.840265870928    -1.525583704996     1.007825032070
           H         -1.631622629876     1.830281192264    -1.166989771870     1.007825032070
           H         -2.780773273014     1.474506894871     0.101864356299     1.007825032070

  Nuclear repulsion =  300.940755650147651

  ==> Basis Set <==

  Basis Set: 6-31G*
    Number of shells: 66
    Number of basis function: 129
    Number of Cartesian functions: 129
    Spherical Harmonics?: false
    Max angular momentum: 2

  ==> DFJKGrad: Density-Fitted SCF Gradients <==

    Gradient:                    1
    J tasked:                  Yes
    K tasked:                  Yes
    wK tasked:                  No
    OpenMP threads:              4
    Integrals threads:           4
    Memory (MB):              1430
    Schwarz Cutoff:          0E+00
    Fitting Condition:       1E-12

   => Auxiliary Basis Set <=

  Basis Set: 
    Number of shells: 276
    Number of basis function: 867
    Number of Cartesian functions: 867
    Spherical Harmonics?: false
    Max angular momentum: 3


  -Total Gradient:
     Atom            X                  Y                   Z
    ------   -----------------  -----------------  -----------------
       1       -0.000329105574    -0.000631644805    -0.000484478403
       2        0.000117839040     0.000498352872     0.002728583206
       3       -0.008338352112     0.000012026179    -0.004920178238
       4        0.000055894066    -0.000107445447    -0.000210248281
       5       -0.001570390453    -0.000743132166    -0.000239611363
       6       -0.001270443350    -0.002291546282    -0.002917470376
       7       -0.001357179585     0.001458837417    -0.002941399042
       8        0.000808741190    -0.000234915915     0.001862926816
       9       -0.002548191213    -0.000443202062     0.000335851115
      10       -0.002974023101    -0.000013086790     0.000476510642
      11        0.009097930737     0.001003531205     0.002186487696
      12        0.001424093315     0.000819369039     0.000969593799
      13        0.001451321483     0.000145786403     0.002554898833
      14        0.002758960405     0.001885961576    -0.001345922197
      15        0.002873442394    -0.001792377008    -0.000695063012
      16       -0.000190786694     0.000358546323     0.002685746197
      17       -0.000065551728     0.000077330736    -0.000051924726
      18        0.000060937564    -0.000004065564    -0.000039454507
      19       -0.000005136382     0.000001674292     0.000045151844


*** tstop() called on cx1-1-3-4.cx1.hpc.ic.ac.uk at Fri Sep  2 13:02:44 2016
Module time:
	user time   =      20.23 seconds =       0.34 minutes
	system time =       0.23 seconds =       0.00 minutes
	total time  =          5 seconds =       0.08 minutes
Total time:
	user time   =      78.96 seconds =       1.32 minutes
	system time =       0.90 seconds =       0.01 minutes
	total time  =         25 seconds =       0.42 minutes
CURRENT ENERGY: -309.0504410195

			-----------------------------------------
			 OPTKING 2.0: for geometry optimizations 
			  - R.A. King,  Bethel University        
			-----------------------------------------

	Previous internal coordinate definitions found.
	---Fragment 1 Geometry and Gradient---
	 O          -3.5423954369       -2.3827803504       -1.5590560282
	 C          -2.9130517666       -0.3548310030       -0.7977368330
	 C          -0.6030403011       -0.0592471981        0.8770723842
	 C          -4.3539169194        2.0167846516       -1.4851536629
	 C           1.8133672566       -0.0120008654       -0.7633424326
	 H          -0.7744234557        1.6482110790        1.9868608481
	 H          -0.5842017677       -1.6629844825        2.1399897361
	 C           4.5458767672        0.2066160544        0.4228735556
	 H           1.5816571062        1.5318432067       -2.0974193051
	 H           1.7342842515       -1.7223174274       -1.8877926216
	 C           5.0179735976        0.5498614567        3.2699648605
	 H           5.5995217963       -1.4570318771       -0.1498350160
	 H           5.4916214308        1.7777467989       -0.4963186050
	 H           4.3027941470       -1.0142564670        4.3746760074
	 H           4.1939787560        2.2752181252        3.9958299074
	 H           7.0345109871        0.6595005420        3.6309189359
	 H          -5.7808695345        1.5878723749       -2.8829353952
	 H          -3.0833199227        3.4587301995       -2.2052910687
	 H          -5.2548999236        2.7864142124        0.1924957361
	            -0.0003291056       -0.0006316448       -0.0004844784
	             0.0001178390        0.0004983529        0.0027285832
	            -0.0083383521        0.0000120262       -0.0049201782
	             0.0000558941       -0.0001074454       -0.0002102483
	            -0.0015703905       -0.0007431322       -0.0002396114
	            -0.0012704434       -0.0022915463       -0.0029174704
	            -0.0013571796        0.0014588374       -0.0029413990
	             0.0008087412       -0.0002349159        0.0018629268
	            -0.0025481912       -0.0004432021        0.0003358511
	            -0.0029740231       -0.0000130868        0.0004765106
	             0.0090979307        0.0010035312        0.0021864877
	             0.0014240933        0.0008193690        0.0009695938
	             0.0014513215        0.0001457864        0.0025548988
	             0.0027589604        0.0018859616       -0.0013459222
	             0.0028734424       -0.0017923770       -0.0006950630
	            -0.0001907867        0.0003585463        0.0026857462
	            -0.0000655517        0.0000773307       -0.0000519247
	             0.0000609376       -0.0000040656       -0.0000394545
	            -0.0000051364        0.0000016743        0.0000451518

	---Fragment 1 Intrafragment Coordinates---
	 - Coordinate -           - BOHR/RAD -       - ANG/DEG -
	 R(1,2)           =         2.255717	       1.193674
	 R(2,3)           =         2.868538	       1.517965
	 R(2,4)           =         2.858880	       1.512854
	 R(3,5)           =         2.920996	       1.545725
	 R(3,6)           =         2.043628	       1.081442
	 R(3,7)           =         2.041394	       1.080259
	 R(4,17)          =         2.043026	       1.081123
	 R(4,18)          =         2.052370	       1.086067
	 R(4,19)          =         2.053925	       1.086890
	 R(5,8)           =         2.986890	       1.580594
	 R(5,9)           =         2.053510	       1.086671
	 R(5,10)          =         2.048371	       1.083952
	 R(8,11)          =         2.906307	       1.537952
	 R(8,12)          =         2.050826	       1.085250
	 R(8,13)          =         2.051292	       1.085497
	 R(11,14)         =         2.044097	       1.081690
	 R(11,15)         =         2.045166	       1.082255
	 R(11,16)         =         2.051519	       1.085617
	 B(1,2,3)         =         2.111069	     120.955326
	 B(1,2,4)         =         2.122371	     121.602926
	 B(2,3,5)         =         1.917670	     109.874378
	 B(2,3,6)         =         1.913060	     109.610286
	 B(2,3,7)         =         1.862604	     106.719349
	 B(2,4,17)        =         1.920232	     110.021200
	 B(2,4,18)        =         1.933904	     110.804530
	 B(2,4,19)        =         1.912966	     109.604865
	 B(3,2,4)         =         2.049660	     117.436891
	 B(3,5,8)         =         2.135248	     122.340711
	 B(3,5,9)         =         1.858405	     106.478743
	 B(3,5,10)        =         1.836763	     105.238796
	 B(5,3,6)         =         1.939958	     111.151428
	 B(5,3,7)         =         1.931044	     110.640653
	 B(5,8,11)        =         2.148734	     123.113405
	 B(5,8,12)        =         1.875208	     107.441524
	 B(5,8,13)        =         1.875365	     107.450513
	 B(6,3,7)         =         1.897786	     108.735132
	 B(8,5,9)         =         1.882001	     107.830687
	 B(8,5,10)        =         1.890666	     108.327154
	 B(8,11,14)       =         1.962998	     112.471476
	 B(8,11,15)       =         1.962621	     112.449875
	 B(8,11,16)       =         1.915949	     109.775803
	 B(9,5,10)        =         1.840813	     105.470828
	 B(11,8,12)       =         1.860761	     106.613778
	 B(11,8,13)       =         1.847955	     105.880005
	 B(12,8,13)       =         1.833110	     105.029456
	 B(14,11,15)      =         1.888891	     108.225455
	 B(14,11,16)      =         1.864726	     106.840941
	 B(15,11,16)      =         1.863453	     106.767993
	 B(17,4,18)       =         1.917541	     109.866995
	 B(17,4,19)       =         1.908281	     109.336458
	 B(18,4,19)       =         1.870156	     107.152040
	 D(1,2,3,5)       =         1.422626	      81.510476
	 D(1,2,3,6)       =        -2.723946	    -156.070629
	 D(1,2,3,7)       =        -0.671724	     -38.486933
	 D(1,2,4,17)      =        -0.125527	      -7.192168
	 D(1,2,4,18)      =        -2.249481	    -128.885764
	 D(1,2,4,19)      =         1.973363	     113.065366
	 D(2,3,5,8)       =        -3.114143	    -178.427253
	 D(2,3,5,9)       =         0.997515	      57.153407
	 D(2,3,5,10)      =        -0.951102	     -54.494139
	 D(3,2,4,17)      =         3.002196	     172.013155
	 D(3,2,4,18)      =         0.878242	      50.319560
	 D(3,2,4,19)      =        -1.182099	     -67.729310
	 D(3,5,8,11)      =        -0.066379	      -3.803219
	 D(3,5,8,12)      =         2.102095	     120.441147
	 D(3,5,8,13)      =        -2.216508	    -126.996578
	 D(4,2,3,5)       =        -1.705192	     -97.700286
	 D(4,2,3,6)       =         0.431421	      24.718609
	 D(4,2,3,7)       =         2.483644	     142.302305
	 D(5,8,11,14)     =         1.071990	      61.420476
	 D(5,8,11,15)     =        -1.065822	     -61.067121
	 D(5,8,11,16)     =        -3.137590	    -179.770644
	 D(6,3,5,8)       =         1.048447	      60.071598
	 D(6,3,5,9)       =        -1.123080	     -64.347742
	 D(6,3,5,10)      =        -3.071697	    -175.995287
	 D(7,3,5,8)       =        -1.061909	     -60.842892
	 D(7,3,5,9)       =         3.049749	     174.737768
	 D(7,3,5,10)      =         1.101132	      63.090222
	*D(9,5,8,11)      =         2.094395	     119.999972
	 D(9,5,8,12)      =        -2.020317	    -115.755662
	 D(9,5,8,13)      =        -0.055735	      -3.193387
	 D(10,5,8,11)     =        -2.204593	    -126.313875
	 D(10,5,8,12)     =        -0.036120	      -2.069509
	 D(10,5,8,13)     =         1.928463	     110.492766
	 D(12,8,11,14)    =        -1.102939	     -63.193722
	 D(12,8,11,15)    =         3.042435	     174.318681
	 D(12,8,11,16)    =         0.970668	      55.615158
	 D(13,8,11,14)    =        -3.048691	    -174.677117
	 D(13,8,11,15)    =         1.096683	      62.835286
	 D(13,8,11,16)    =        -0.975085	     -55.868237

	Current energy   :      -309.0504410195

	Energy change for the previous step:
		Projected    :        -0.0230635587
		Actual       :         0.0001495787

	Performing BFGS update.
	Previous computed or guess Hessian on step 1.
	Steps to be used in Hessian update: 1
	Taking RFO optimization step.
	Going to follow RFO solution 1.
	Using RFO vector 1.
	Norm of target step-size    0.13684
	Projected energy change by RFO approximation:        -0.0070205435

	Back-transformation to cartesian coordinates...
	Successfully converged to displaced geometry.

	Back-transformation to cartesian coordinates to adjust frozen coordinates...
	Successfully converged to displaced geometry.

	--- Internal Coordinate Step in ANG or DEG, aJ/ANG or AJ/DEG ---
	 ---------------------------------------------------------------------------
	   Coordinate                Previous        Force       Change         New 
	   ----------                --------       ------       ------       ------
	    1 R(1,2)          =      1.193674    -0.006782    -0.000248     1.193426
	    2 R(2,3)          =      1.517965     0.008325     0.001062     1.519027
	    3 R(2,4)          =      1.512854    -0.000094    -0.000006     1.512848
	    4 R(3,5)          =      1.545725    -0.035319    -0.004536     1.541189
	    5 R(3,6)          =      1.081442     0.027949     0.003001     1.084443
	    6 R(3,7)          =      1.080259     0.024537     0.002625     1.082884
	    7 R(4,17)         =      1.081123    -0.000536    -0.000058     1.081064
	    8 R(4,18)         =      1.086067    -0.000401    -0.000045     1.086023
	    9 R(4,19)         =      1.086890    -0.000328    -0.000036     1.086854
	   10 R(5,8)          =      1.580594    -0.165562    -0.020437     1.560157
	   11 R(5,9)          =      1.086671     0.002174     0.000187     1.086858
	   12 R(5,10)         =      1.083952     0.001119     0.000067     1.084018
	   13 R(8,11)         =      1.537952    -0.043725    -0.005508     1.532443
	   14 R(8,12)         =      1.085250     0.001679     0.000110     1.085361
	   15 R(8,13)         =      1.085497     0.002999     0.000279     1.085776
	   16 R(11,14)        =      1.081690     0.025835     0.002774     1.084463
	   17 R(11,15)        =      1.082255     0.024028     0.002593     1.084849
	   18 R(11,16)        =      1.085617    -0.002506    -0.000274     1.085343
	   19 B(1,2,3)        =    120.955326    -0.000023    -0.037750   120.917576
	   20 B(1,2,4)        =    121.602926     0.000016     0.027898   121.630823
	   21 B(2,3,5)        =    109.874378    -0.000172    -0.372281   109.502097
	   22 B(2,3,6)        =    109.610286     0.000131     0.373967   109.984253
	   23 B(2,3,7)        =    106.719349     0.000132     0.415636   107.134986
	   24 B(2,4,17)       =    110.021200    -0.000012    -0.035195   109.986005
	   25 B(2,4,18)       =    110.804530     0.000007     0.021496   110.826026
	   26 B(2,4,19)       =    109.604865     0.000003     0.009900   109.614765
	   27 B(3,2,4)        =    117.436891     0.000007     0.014702   117.451593
	   28 B(3,5,8)        =    122.340711    -0.001864    -3.594960   118.745752
	   29 B(3,5,9)        =    106.478743     0.000753     1.987558   108.466301
	   30 B(3,5,10)       =    105.238796     0.000738     1.704924   106.943720
	   31 B(5,3,6)        =    111.151428    -0.000009    -0.097694   111.053734
	   32 B(5,3,7)        =    110.640653    -0.000007    -0.070751   110.569902
	   33 B(5,8,11)       =    123.113405    -0.001881    -3.675835   119.437570
	   34 B(5,8,12)       =    107.441524     0.000472     0.323879   107.765403
	   35 B(5,8,13)       =    107.450513     0.000404     0.454983   107.905496
	   36 B(6,3,7)        =    108.735132    -0.000066    -0.223226   108.511906
	   37 B(8,5,9)        =    107.830687     0.000407     0.321791   108.152478
	   38 B(8,5,10)       =    108.327154     0.000377     0.088323   108.415477
	   39 B(8,11,14)      =    112.471476    -0.000019     0.013514   112.484990
	   40 B(8,11,15)      =    112.449875    -0.000037    -0.041921   112.407955
	   41 B(8,11,16)      =    109.775803    -0.000242    -0.749119   109.026684
	   42 B(9,5,10)       =    105.470828    -0.000249    -0.134844   105.335984
	   43 B(11,8,12)      =    106.613778     0.000648     1.169537   107.783315
	   44 B(11,8,13)      =    105.880005     0.000761     2.025208   107.905214
	   45 B(12,8,13)      =    105.029456    -0.000226     0.144065   105.173521
	   46 B(14,11,15)     =    108.225455    -0.000016    -0.063080   108.162376
	   47 B(14,11,16)     =    106.840941     0.000164     0.441724   107.282665
	   48 B(15,11,16)     =    106.767993     0.000173     0.452112   107.220106
	   49 B(17,4,18)      =    109.866995     0.000003     0.007750   109.874744
	   50 B(17,4,19)      =    109.336458     0.000002    -0.000356   109.336102
	   51 B(18,4,19)      =    107.152040    -0.000003    -0.002717   107.149323
	   52 D(1,2,3,5)      =     81.510476     0.000001     0.240042    81.750518
	   53 D(1,2,3,6)      =   -156.070629    -0.000008     0.118904  -155.951725
	   54 D(1,2,3,7)      =    -38.486933     0.000007     0.287897   -38.199036
	   55 D(1,2,4,17)     =     -7.192168    -0.000001    -0.445572    -7.637741
	   56 D(1,2,4,18)     =   -128.885764    -0.000001    -0.445931  -129.331695
	   57 D(1,2,4,19)     =    113.065366    -0.000002    -0.461769   112.603597
	   58 D(2,3,5,8)      =   -178.427253    -0.000001     0.061791  -178.365462
	   59 D(2,3,5,9)      =     57.153407     0.000037     0.577223    57.730630
	   60 D(2,3,5,10)     =    -54.494139    -0.000042    -0.930655   -55.424794
	   61 D(3,2,4,17)     =    172.013155     0.000001     0.381671   172.394826
	   62 D(3,2,4,18)     =     50.319560     0.000001     0.381312    50.700872
	   63 D(3,2,4,19)     =    -67.729310     0.000001     0.365473   -67.363837
	   64 D(3,5,8,11)     =     -3.803219     0.000008    -0.254784    -4.058002
	   65 D(3,5,8,12)     =    120.441147    -0.000024    -1.195990   119.245157
	   66 D(3,5,8,13)     =   -126.996578     0.000011    -0.656860  -127.653438
	   67 D(4,2,3,5)      =    -97.700286    -0.000001    -0.581517   -98.281803
	   68 D(4,2,3,6)      =     24.718609    -0.000010    -0.702655    24.015954
	   69 D(4,2,3,7)      =    142.302305     0.000005    -0.533662   141.768643
	   70 D(5,8,11,14)    =     61.420476    -0.000011    -0.588563    60.831913
	   71 D(5,8,11,15)    =    -61.067121     0.000003    -0.484049   -61.551170
	   72 D(5,8,11,16)    =   -179.770644    -0.000004    -0.526057  -180.296700
	   73 D(6,3,5,8)      =     60.071598    -0.000011    -0.093677    59.977921
	   74 D(6,3,5,9)      =    -64.347742     0.000028     0.421755   -63.925987
	   75 D(6,3,5,10)     =   -175.995287    -0.000051    -1.086123  -177.081410
	   76 D(7,3,5,8)      =    -60.842892     0.000011     0.300789   -60.542103
	   77 D(7,3,5,9)      =    174.737768     0.000049     0.816221   175.553989
	   78 D(7,3,5,10)     =     63.090222    -0.000030    -0.691657    62.398566
	   79 *D(9,5,8,11)    =    119.999972     0.000000     0.000000   119.999972
	   80 D(9,5,8,12)     =   -115.755662    -0.000031    -0.941206  -116.696868
	   81 D(9,5,8,13)     =     -3.193387     0.000004    -0.402077    -3.595464
	   82 D(10,5,8,11)    =   -126.313875     0.000023     0.049525  -126.264350
	   83 D(10,5,8,12)    =     -2.069509    -0.000008    -0.891681    -2.961190
	   84 D(10,5,8,13)    =    110.492766     0.000027    -0.352552   110.140214
	   85 D(12,8,11,14)   =    -63.193722     0.000035     0.731218   -62.462505
	   86 D(12,8,11,15)   =    174.318681     0.000049     0.835732   175.154412
	   87 D(12,8,11,16)   =     55.615158     0.000042     0.793724    56.408882
	   88 D(13,8,11,14)   =   -174.677117    -0.000046    -0.895396  -175.572513
	   89 D(13,8,11,15)   =     62.835286    -0.000031    -0.790882    62.044404
	   90 D(13,8,11,16)   =    -55.868237    -0.000038    -0.832890   -56.701127
	 ---------------------------------------------------------------------------

  ==> Convergence Check <==

  Measures of convergence in internal coordinates in au.
  Criteria marked as inactive (o), active & met (*), and active & unmet ( ).
  ---------------------------------------------------------------------------------------------
   Step     Total Energy     Delta E     MAX Force     RMS Force      MAX Disp      RMS Disp   
  ---------------------------------------------------------------------------------------------
    Convergence Criteria    1.00e-06 *    3.00e-04 *             o    1.20e-03 *             o
  ---------------------------------------------------------------------------------------------
      2    -309.05044102    1.50e-04      2.47e-02      5.07e-03 o    6.42e-02      1.44e-02 o  ~
  ---------------------------------------------------------------------------------------------

	Writing optimization data to binary file.
	Structure for next step:
	Cartesian Geometry (in Angstrom)
	    O    -1.8468622397  -1.2609838798  -0.7696397136
	    C    -1.4963267682  -0.1850084689  -0.3906043142
	    C    -0.2442055450  -0.0249164652   0.4543846107
	    C    -2.2747411284   1.0675164517  -0.7281851449
	    C     0.9958338656  -0.0116760154  -0.4607053400
	    H    -0.3061010435   0.8858294460   1.0398139141
	    H    -0.2073052249  -0.8679996019   1.1329770002
	    C     2.4083716154   0.1046998428   0.1914317639
	    H     0.8860789652   0.7978868500  -1.1775193526
	    H     0.9641295283  -0.9216846125  -1.0489017231
	    C     2.5245592877   0.2964392188   1.7073865113
	    H     2.9700803301  -0.7852182103  -0.0741559130
	    H     2.9316967687   0.9252792869  -0.2899105714
	    H     2.0907911347  -0.5269973410   2.2640356356
	    H     2.0579026484   1.2157888639   2.0449132550
	    H     3.5742843003   0.3508722103   1.9777269838
	    H    -3.0577460795   0.8362113670  -1.4367760660
	    H    -1.6195838760   1.8306052122  -1.1379535404
	    H    -2.7172275606   1.4769404341   0.1761545167
			--------------------------
			 OPTKING Finished Execution 
			--------------------------

    Structure for next step:
    Molecular point group: c1
    Full point group: C1

    Geometry (in Angstrom), charge = 0, multiplicity = 1:

    O           -1.857329840866    -1.261519971123    -0.774352825427
    C           -1.506794396158    -0.185544642443    -0.395317455027
    C           -0.254673268609    -0.025452650957     0.449671405418
    C           -2.285208696889     1.066980182516    -0.732898259914
    C            0.985366047293    -0.012212202142    -0.465418475412
    H           -0.316568762366     0.885293190739     1.035100664049
    H           -0.217772951327    -0.868535723277     1.128263743074
    C            2.397903689284     0.104163647169     0.186718578653
    H            0.875611155330     0.797350601494    -1.182232433296
    H            0.953661712461    -0.922220729713    -1.053614813616
    C            2.514091352682     0.295903008524     1.702673210323
    H            2.959612361059    -0.785754338007    -0.078869077954
    H            2.921228802569     0.924743028579    -0.294623719920
    H            2.080323232823    -0.527533488410     2.259322292118
    H            2.047434749001     1.215252583453     2.040199928211
    H            3.563816285097     0.350335995841     1.973013662187
    H           -3.068213588259     0.835675115491    -1.441489126871
    H           -1.630051494585     1.830068884814    -1.142666624111
    H           -2.727695095323     1.476404133693     0.171441332682

gradient() will perform analytic gradient computation.

*** tstart() called on cx1-1-3-4.cx1.hpc.ic.ac.uk
*** at Fri Sep  2 13:02:45 2016


         ---------------------------------------------------------
                                   SCF
            by Justin Turney, Rob Parrish, and Andy Simmonett
                              RHF Reference
                        4 Threads,   2000 MiB Core
         ---------------------------------------------------------

  ==> Geometry <==

    Molecular point group: c1
    Full point group: C1

    Geometry (in Angstrom), charge = 0, multiplicity = 1:

       Center              X                  Y                   Z               Mass       
    ------------   -----------------  -----------------  -----------------  -----------------
           O         -1.857329840866    -1.261519971123    -0.774352825427    15.994914619560
           C         -1.506794396158    -0.185544642443    -0.395317455027    12.000000000000
           C         -0.254673268609    -0.025452650957     0.449671405418    12.000000000000
           C         -2.285208696889     1.066980182516    -0.732898259914    12.000000000000
           C          0.985366047293    -0.012212202142    -0.465418475412    12.000000000000
           H         -0.316568762366     0.885293190739     1.035100664049     1.007825032070
           H         -0.217772951327    -0.868535723277     1.128263743074     1.007825032070
           C          2.397903689284     0.104163647169     0.186718578653    12.000000000000
           H          0.875611155330     0.797350601494    -1.182232433296     1.007825032070
           H          0.953661712461    -0.922220729713    -1.053614813616     1.007825032070
           C          2.514091352682     0.295903008524     1.702673210323    12.000000000000
           H          2.959612361059    -0.785754338007    -0.078869077954     1.007825032070
           H          2.921228802569     0.924743028579    -0.294623719920     1.007825032070
           H          2.080323232823    -0.527533488410     2.259322292118     1.007825032070
           H          2.047434749001     1.215252583453     2.040199928211     1.007825032070
           H          3.563816285097     0.350335995841     1.973013662187     1.007825032070
           H         -3.068213588259     0.835675115491    -1.441489126871     1.007825032070
           H         -1.630051494585     1.830068884814    -1.142666624111     1.007825032070
           H         -2.727695095323     1.476404133693     0.171441332682     1.007825032070

  Running in c1 symmetry.

  Rotational constants: A =      0.18894  B =      0.03816  C =      0.03658 [cm^-1]
  Rotational constants: A =   5664.36317  B =   1143.99270  C =   1096.55245 [MHz]
  Nuclear repulsion =  303.348340215517908

  Charge       = 0
  Multiplicity = 1
  Electrons    = 56
  Nalpha       = 28
  Nbeta        = 28

  ==> Algorithm <==

  SCF Algorithm Type is DF.
  DIIS enabled.
  MOM disabled.
  Fractional occupation disabled.
  Guess Type is READ.
  Energy threshold   = 1.00e-08
  Density threshold  = 1.00e-08
  Integral threshold = 0.00e+00

  ==> Primary Basis <==

  Basis Set: 6-31G*
    Number of shells: 66
    Number of basis function: 129
    Number of Cartesian functions: 129
    Spherical Harmonics?: false
    Max angular momentum: 2

  ==> Pre-Iterations <==

   -------------------------------------------------------
    Irrep   Nso     Nmo     Nalpha   Nbeta   Ndocc  Nsocc
   -------------------------------------------------------
     A        129     129       0       0       0       0
   -------------------------------------------------------
    Total     129     129      28      28      28       0
   -------------------------------------------------------

 OEINTS: Overlap, kinetic, potential, dipole, and quadrupole integrals
         stored in file 35.

  ==> Integral Setup <==

  ==> DFJK: Density-Fitted J/K Matrices <==

    J tasked:                  Yes
    K tasked:                  Yes
    wK tasked:                  No
    OpenMP threads:              4
    Integrals threads:           4
    Memory (MB):              1430
    Algorithm:                Core
    Integral Cache:           NONE
    Schwarz Cutoff:          1E-12
    Fitting Condition:       1E-12

   => Auxiliary Basis Set <=

  Basis Set: 
    Number of shells: 276
    Number of basis function: 867
    Number of Cartesian functions: 867
    Spherical Harmonics?: false
    Max angular momentum: 3

  Minimum eigenvalue in the overlap matrix is 3.3752217230E-03.
  Using Symmetric Orthogonalization.
  SCF Guess: Reading in previously saved MOs, projecting if necessary.

  Using orbitals from previous SCF, no projection.
  Recomputing DOCC and SOCC from number of alpha and beta electrons from previous calculation.
              A 
    DOCC [    28 ]

  ==> Iterations <==

                           Total Energy        Delta E     RMS |[F,P]|

   @DF-RHF iter   0:  -309.05338720033177   -3.09053e+02   1.01326e-03 
   @DF-RHF iter   1:  -309.05405729183923   -6.70092e-04   1.69563e-04 
   @DF-RHF iter   2:  -309.05451995140317   -4.62660e-04   5.74031e-05 DIIS
   @DF-RHF iter   3:  -309.05458768401087   -6.77326e-05   1.70806e-05 DIIS
   @DF-RHF iter   4:  -309.05459263621930   -4.95221e-06   6.66125e-06 DIIS
   @DF-RHF iter   5:  -309.05459455253464   -1.91632e-06   3.30102e-06 DIIS
   @DF-RHF iter   6:  -309.05459503019284   -4.77658e-07   1.68268e-06 DIIS
   @DF-RHF iter   7:  -309.05459513837155   -1.08179e-07   5.62137e-07 DIIS
   @DF-RHF iter   8:  -309.05459515066724   -1.22957e-08   2.29455e-07 DIIS
   @DF-RHF iter   9:  -309.05459515265494   -1.98770e-09   8.09678e-08 DIIS
   @DF-RHF iter  10:  -309.05459515289914   -2.44199e-10   1.68178e-08 DIIS
   @DF-RHF iter  11:  -309.05459515290653   -7.38964e-12   4.35622e-09 DIIS

  ==> Post-Iterations <==

    Orbital Energies (a.u.)
    -----------------------

    Doubly Occupied:                                                      

[...]
	 R(5,10)          =         2.048674	       1.084112
	 R(8,11)          =         2.893531	       1.531191
	 R(8,12)          =         2.051463	       1.085587
	 R(8,13)          =         2.051547	       1.085632
	 R(11,14)         =         2.049767	       1.084690
	 R(11,15)         =         2.051043	       1.085365
	 R(11,16)         =         2.051234	       1.085466
	 B(1,2,3)         =         2.110259	     120.908942
	 B(1,2,4)         =         2.123053	     121.641995
	 B(2,3,5)         =         1.917306	     109.853545
	 B(2,3,6)         =         1.923581	     110.213061
	 B(2,3,7)         =         1.873647	     107.352085
	 B(2,4,17)        =         1.919853	     109.999483
	 B(2,4,18)        =         1.934645	     110.846989
	 B(2,4,19)        =         1.912234	     109.562914
	 B(3,2,4)         =         2.049768	     117.443052
	 B(3,5,8)         =         2.034159	     116.548752
	 B(3,5,9)         =         1.898605	     108.782045
	 B(3,5,10)        =         1.870733	     107.185126
	 B(5,3,6)         =         1.933559	     110.784794
	 B(5,3,7)         =         1.924071	     110.241127
	 B(5,8,11)        =         2.045806	     117.216064
	 B(5,8,12)        =         1.893128	     108.468256
	 B(5,8,13)        =         1.898025	     108.748794
	 B(6,3,7)         =         1.890589	     108.322792
	 B(8,5,9)         =         1.901216	     108.931655
	 B(8,5,10)        =         1.905905	     109.200296
	 B(8,11,14)       =         1.955751	     112.056266
	 B(8,11,15)       =         1.957307	     112.145455
	 B(8,11,16)       =         1.915063	     109.725028
	 B(9,5,10)        =         1.843876	     105.646337
	 B(11,8,12)       =         1.883259	     107.902780
	 B(11,8,13)       =         1.889025	     108.233140
	 B(12,8,13)       =         1.844467	     105.680197
	 B(14,11,15)      =         1.883920	     107.940645
	 B(14,11,16)      =         1.874622	     107.407927
	 B(15,11,16)      =         1.873475	     107.342217
	 B(17,4,18)       =         1.917862	     109.885410
	 B(17,4,19)       =         1.908324	     109.338891
	 B(18,4,19)       =         1.870163	     107.152454
	 D(1,2,3,5)       =         1.406182	      80.568273
	 D(1,2,3,6)       =        -2.741714	    -157.088655
	 D(1,2,3,7)       =        -0.686132	     -39.312464
	 D(1,2,4,17)      =        -0.127851	      -7.325336
	 D(1,2,4,18)      =        -2.252446	    -129.055669
	 D(1,2,4,19)      =         1.970394	     112.895264
	 D(2,3,5,8)       =        -3.120080	    -178.767433
	 D(2,3,5,9)       =         1.006347	      57.659451
	 D(2,3,5,10)      =        -0.979630	     -56.128638
	 D(3,2,4,17)      =         2.998305	     171.790242
	 D(3,2,4,18)      =         0.873710	      50.059909
	 D(3,2,4,19)      =        -1.186635	     -67.989158
	 D(3,5,8,11)      =        -0.061018	      -3.496045
	 D(3,5,8,12)      =         2.075710	     118.929442
	 D(3,5,8,13)      =        -2.209535	    -126.597046
	 D(4,2,3,5)       =        -1.720094	     -98.554152
	 D(4,2,3,6)       =         0.415195	      23.788919
	 D(4,2,3,7)       =         2.470777	     141.565111
	 D(5,8,11,14)     =         1.054279	      60.405725
	 D(5,8,11,15)     =        -1.067732	     -61.176526
	 D(5,8,11,16)     =         3.135089	     179.627346
	 D(6,3,5,8)       =         1.033746	      59.229279
	 D(6,3,5,9)       =        -1.123012	     -64.343837
	 D(6,3,5,10)      =        -3.108989	    -178.131926
	 D(7,3,5,8)       =        -1.058741	     -60.661367
	 D(7,3,5,9)       =         3.067687	     175.765517
	 D(7,3,5,10)      =         1.081710	      61.977428
	*D(9,5,8,11)      =         2.094395	     119.999972
	 D(9,5,8,12)      =        -2.052063	    -117.574540
	 D(9,5,8,13)      =        -0.054123	      -3.101029
	 D(10,5,8,11)     =        -2.183049	    -125.079467
	 D(10,5,8,12)     =        -0.046321	      -2.653979
	 D(10,5,8,13)     =         1.951619	     111.819532
	 D(12,8,11,14)    =        -1.087524	     -62.310556
	 D(12,8,11,15)    =         3.073650	     176.107193
	 D(12,8,11,16)    =         0.993285	      56.911066
	 D(13,8,11,14)    =        -3.075795	    -176.230076
	 D(13,8,11,15)    =         1.085380	      62.187673
	 D(13,8,11,16)    =        -0.994985	     -57.008455

	Current energy   :      -309.0553564015

	Energy change for the previous step:
		Projected    :         0.0000004318
		Actual       :        -0.0000001332

	Performing BFGS update.
	Previous computed or guess Hessian on step 1.
	Steps to be used in Hessian update: 10 9
	Taking RFO optimization step.
	Going to follow RFO solution 1.
	Using RFO vector 1.
	Norm of target step-size    0.00120
	Projected energy change by RFO approximation:         0.0000000373

	Back-transformation to cartesian coordinates...
	Successfully converged to displaced geometry.

	Back-transformation to cartesian coordinates to adjust frozen coordinates...
	Successfully converged to displaced geometry.

	--- Internal Coordinate Step in ANG or DEG, aJ/ANG or AJ/DEG ---
	 ---------------------------------------------------------------------------
	   Coordinate                Previous        Force       Change         New 
	   ----------                --------       ------       ------       ------
	    1 R(1,2)          =      1.193402    -0.000003    -0.000000     1.193401
	    2 R(2,3)          =      1.519069     0.000012     0.000004     1.519074
	    3 R(2,4)          =      1.512775    -0.000031    -0.000006     1.512769
	    4 R(3,5)          =      1.539290    -0.000165    -0.000029     1.539261
	    5 R(3,6)          =      1.084835    -0.000009    -0.000001     1.084833
	    6 R(3,7)          =      1.083244     0.000030     0.000003     1.083247
	    7 R(4,17)         =      1.081092    -0.000001     0.000000     1.081092
	    8 R(4,18)         =      1.086018    -0.000004    -0.000000     1.086018
	    9 R(4,19)         =      1.086868     0.000019     0.000003     1.086871
	   10 R(5,8)          =      1.554574     0.000076     0.000019     1.554593
	   11 R(5,9)          =      1.086977    -0.000015    -0.000003     1.086974
	   12 R(5,10)         =      1.084112    -0.000048    -0.000008     1.084104
	   13 R(8,11)         =      1.531191    -0.000019    -0.000006     1.531185
	   14 R(8,12)         =      1.085587    -0.000034    -0.000006     1.085582
	   15 R(8,13)         =      1.085632    -0.000005    -0.000001     1.085631
	   16 R(11,14)        =      1.084690     0.000050     0.000008     1.084698
	   17 R(11,15)        =      1.085365     0.000016     0.000003     1.085368
	   18 R(11,16)        =      1.085466     0.000006     0.000001     1.085467
	   19 B(1,2,3)        =    120.908942     0.000000     0.000148   120.909090
	   20 B(1,2,4)        =    121.641995     0.000000     0.000135   121.642130
	   21 B(2,3,5)        =    109.853545    -0.000000    -0.000737   109.852809
	   22 B(2,3,6)        =    110.213061     0.000000     0.001828   110.214889
	   23 B(2,3,7)        =    107.352085     0.000000     0.000890   107.352975
	   24 B(2,4,17)       =    109.999483     0.000000     0.000544   110.000027
	   25 B(2,4,18)       =    110.846989     0.000000     0.001971   110.848960
	   26 B(2,4,19)       =    109.562914    -0.000000    -0.003222   109.559692
	   27 B(3,2,4)        =    117.443052    -0.000000    -0.000230   117.442822
	   28 B(3,5,8)        =    116.548752    -0.000000     0.000686   116.549439
	   29 B(3,5,9)        =    108.782045    -0.000000    -0.004280   108.777765
	   30 B(3,5,10)       =    107.185126    -0.000001    -0.005088   107.180038
	   31 B(5,3,6)        =    110.784794    -0.000000    -0.001848   110.782946
	   32 B(5,3,7)        =    110.241127     0.000000    -0.000033   110.241095
	   33 B(5,8,11)       =    117.216064    -0.000000    -0.000159   117.215904
	   34 B(5,8,12)       =    108.468256     0.000000     0.000287   108.468543
	   35 B(5,8,13)       =    108.748794     0.000000     0.001287   108.750081
	   36 B(6,3,7)        =    108.322792    -0.000000     0.000008   108.322800
	   37 B(8,5,9)        =    108.931655     0.000001     0.004341   108.935997
	   38 B(8,5,10)       =    109.200296     0.000001     0.004144   109.204440
	   39 B(8,11,14)      =    112.056266     0.000000     0.001362   112.057628
	   40 B(8,11,15)      =    112.145455    -0.000000    -0.001476   112.143979
	   41 B(8,11,16)      =    109.725028    -0.000000    -0.000867   109.724161
	   42 B(9,5,10)       =    105.646337    -0.000000    -0.000004   105.646333
	   43 B(11,8,12)      =    107.902780    -0.000000    -0.002086   107.900695
	   44 B(11,8,13)      =    108.233140     0.000000     0.000871   108.234011
	   45 B(12,8,13)      =    105.680197    -0.000000    -0.000241   105.679956
	   46 B(14,11,15)     =    107.940645     0.000000     0.000020   107.940665
	   47 B(14,11,16)     =    107.407927     0.000000     0.000592   107.408519
	   48 B(15,11,16)     =    107.342217     0.000000     0.000432   107.342648
	   49 B(17,4,18)      =    109.885410     0.000000     0.001327   109.886737
	   50 B(17,4,19)      =    109.338891    -0.000000    -0.000965   109.337927
	   51 B(18,4,19)      =    107.152454     0.000000     0.000274   107.152728
	   52 D(1,2,3,5)      =     80.568273     0.000000    -0.009964    80.558309
	   53 D(1,2,3,6)      =   -157.088655    -0.000000    -0.011564  -157.100219
	   54 D(1,2,3,7)      =    -39.312464     0.000000    -0.010037   -39.322501
	   55 D(1,2,4,17)     =     -7.325336     0.000000    -0.007554    -7.332889
	   56 D(1,2,4,18)     =   -129.055669    -0.000000    -0.010898  -129.066567
	   57 D(1,2,4,19)     =    112.895264    -0.000000    -0.010428   112.884836
	   58 D(2,3,5,8)      =   -178.767433     0.000000     0.014023  -178.753410
	   59 D(2,3,5,9)      =     57.659451    -0.000000     0.011228    57.670679
	   60 D(2,3,5,10)     =    -56.128638     0.000000     0.015905   -56.112733
	   61 D(3,2,4,17)     =    171.790242     0.000000    -0.003639   171.786603
	   62 D(3,2,4,18)     =     50.059909    -0.000000    -0.006984    50.052925
	   63 D(3,2,4,19)     =    -67.989158    -0.000000    -0.006514   -67.995672
	   64 D(3,5,8,11)     =     -3.496045     0.000000     0.001647    -3.494399
	   65 D(3,5,8,12)     =    118.929442    -0.000000    -0.001021   118.928422
	   66 D(3,5,8,13)     =   -126.597046    -0.000000    -0.000483  -126.597529
	   67 D(4,2,3,5)      =    -98.554152    -0.000000    -0.013848   -98.568000
	   68 D(4,2,3,6)      =     23.788919    -0.000000    -0.015448    23.773472
	   69 D(4,2,3,7)      =    141.565111     0.000000    -0.013921   141.551190
	   70 D(5,8,11,14)    =     60.405725    -0.000000     0.011017    60.416742
	   71 D(5,8,11,15)    =    -61.176526    -0.000000     0.011072   -61.165454
	   72 D(5,8,11,16)    =    179.627346     0.000000     0.012051   179.639397
	   73 D(6,3,5,8)      =     59.229279     0.000000     0.013444    59.242723
	   74 D(6,3,5,9)      =    -64.343837    -0.000000     0.010649   -64.333187
	   75 D(6,3,5,10)     =   -178.131926     0.000000     0.015326  -178.116600
	   76 D(7,3,5,8)      =    -60.661367     0.000000     0.014644   -60.646723
	   77 D(7,3,5,9)      =    175.765517    -0.000000     0.011850   175.777366
	   78 D(7,3,5,10)     =     61.977428     0.000000     0.016526    61.993954
	   79 *D(9,5,8,11)    =    119.999972    -0.000000    -0.000000   119.999972
	   80 D(9,5,8,12)     =   -117.574540    -0.000000    -0.002667  -117.577208
	   81 D(9,5,8,13)     =     -3.101029    -0.000000    -0.002129    -3.103158
	   82 D(10,5,8,11)    =   -125.079467     0.000000     0.004592  -125.074875
	   83 D(10,5,8,12)    =     -2.653979     0.000000     0.001925    -2.652054
	   84 D(10,5,8,13)    =    111.819532     0.000000     0.002463   111.821995
	   85 D(12,8,11,14)   =    -62.310556     0.000000     0.012457   -62.298099
	   86 D(12,8,11,15)   =    176.107193     0.000000     0.012512   176.119705
	   87 D(12,8,11,16)   =     56.911066     0.000000     0.013490    56.924556
	   88 D(13,8,11,14)   =   -176.230076     0.000000     0.013353  -176.216724
	   89 D(13,8,11,15)   =     62.187673     0.000000     0.013408    62.201081
	   90 D(13,8,11,16)   =    -57.008455     0.000000     0.014386   -56.994068
	 ---------------------------------------------------------------------------

  ==> Convergence Check <==

  Measures of convergence in internal coordinates in au.
  Criteria marked as inactive (o), active & met (*), and active & unmet ( ).
  ---------------------------------------------------------------------------------------------
   Step     Total Energy     Delta E     MAX Force     RMS Force      MAX Disp      RMS Disp   
  ---------------------------------------------------------------------------------------------
    Convergence Criteria    1.00e-06 *    3.00e-04 *             o    1.20e-03 *             o
  ---------------------------------------------------------------------------------------------
     11    -309.05535640   -1.33e-07 *    2.01e-05 *    3.74e-06 o    2.88e-04 *    1.26e-04 o  ~
  ---------------------------------------------------------------------------------------------


  **** Optimization is complete! (in 11 steps) ****

  ==> Optimization Summary <==

  Measures of convergence in internal coordinates in au.
  --------------------------------------------------------------------------------------------------------------- ~
   Step         Total Energy             Delta E       MAX Force       RMS Force        MAX Disp        RMS Disp  ~
  --------------------------------------------------------------------------------------------------------------- ~
      1    -309.050590598260   -309.050590598260      0.04101213      0.00803874      0.18073170      0.03825561  ~
      2    -309.050441019530      0.000149578731      0.02472215      0.00507206      0.06415542      0.01441875  ~
      3    -309.054595152907     -0.004154133377      0.01086471      0.00209265      0.05432534      0.01958010  ~
      4    -309.054863888253     -0.000268735346      0.00474177      0.00108953      0.03430518      0.01317472  ~
      5    -309.055232574283     -0.000368686031      0.00453032      0.00085487      0.01627453      0.00624283  ~
      6    -309.055351805882     -0.000119231599      0.00070256      0.00013405      0.12489982      0.03952847  ~
      7    -309.055103337461      0.000248468421      0.00055986      0.00021819      0.10274547      0.03340355  ~
      8    -309.055345244455     -0.000241906994      0.00081487      0.00016229      0.02620739      0.00871087  ~
      9    -309.055354920722     -0.000009676267      0.00009685      0.00002499      0.00989506      0.00318634  ~
     10    -309.055356268311     -0.000001347589      0.00011213      0.00002302      0.00211929      0.00067332  ~
     11    -309.055356401473     -0.000000133163      0.00002008      0.00000374      0.00028844      0.00012626  ~
  --------------------------------------------------------------------------------------------------------------- ~

	Writing optimization data to binary file.
	Final energy is   -309.0553564014734
	Final (previous) structure:
	Cartesian Geometry (in Angstrom)
	    O    -1.8488476488  -1.2581893951  -0.7469786581
	    C    -1.4921754456  -0.1829140388  -0.3717774340
	    C    -0.2155372255  -0.0220794048   0.4356251478
	    C    -2.2752359516   1.0704147526  -0.6949997507
	    C     1.0023141853  -0.0254451766  -0.5057783876
	    H    -0.2515409544   0.8942349876   1.0152263613
	    H    -0.1603998204  -0.8577000803   1.1227311992
	    C     2.3991664144   0.1009183524   0.1646957866
	    H     0.8857970071   0.7752441099  -1.2316151630
	    H     0.9630126332  -0.9459762027  -1.0770720036
	    C     2.4319936211   0.2990447753   1.6826594611
	    H     2.9742094489  -0.7899458908  -0.0680838154
	    H     2.9346158406   0.9247412709  -0.2970472023
	    H     1.9689117354  -0.5271310926   2.2113762753
	    H     1.9318594490   1.2130079997   1.9868872154
	    H     3.4611542668   0.3652608602   2.0213045742
	    H    -3.0728329170   0.8398099317  -1.3874019976
	    H    -1.6274748343   1.8324732605  -1.1182117187
	    H    -2.6986492631   1.4806152446   0.2180929866
	Saving final (previous) structure.
			--------------------------
			 OPTKING Finished Execution 
			--------------------------

    Final optimized geometry and variables:
    Molecular point group: c1
    Full point group: C1

    Geometry (in Angstrom), charge = 0, multiplicity = 1:

    O           -1.848847507614    -1.258189299046    -0.746978601059
    C           -1.492175331684    -0.182914024879    -0.371777405600
    C           -0.215537209089    -0.022079403075     0.435625114501
    C           -2.275235777897     1.070414670873    -0.694999697642
    C            1.002314108799    -0.025445174640    -0.505778348955
    H           -0.251540935240     0.894234919298     1.015226283762
    H           -0.160399808103    -0.857700014801     1.122731113450
    C            2.399166231194     0.100918344666     0.164695773974
    H            0.885796939469     0.775244050701    -1.231615068956
    H            0.963012559643    -0.945976130506    -1.077071921307
    C            2.431993435377     0.299044752425     1.682659332590
    H            2.974209221800    -0.789945830486    -0.068083810154
    H            2.934615616542     0.924741200276    -0.297047179577
    H            1.968911585037    -0.527131052389     2.211376106470
    H            1.931859301430     1.213007907116     1.986887063685
    H            3.461154002514     0.365260832333     2.021304419895
    H           -3.072832682333     0.839809867535    -1.387401891635
    H           -1.627474710047     1.832473120516    -1.118211633310
    H           -2.698649057038     1.480615131488     0.218092969950

	Cleaning optimization helper files.


Properties will be evaluated at   0.000000,   0.000000,   0.000000 Bohr

Properties computed using the  density matrix

  Nuclear Dipole Moment: (a.u.)
     X:     6.8428      Y:     4.8731      Z:     3.1802

  Electronic Dipole Moment: (a.u.)
     X:    -6.3448      Y:    -3.8293      Z:    -2.8237

  Dipole Moment: (a.u.)
     X:     0.4980      Y:     1.0438      Z:     0.3566     Total:     1.2103

  Dipole Moment: (Debye)
     X:     1.2658      Y:     2.6532      Z:     0.9063     Total:     3.0762

  Quadrupole Moment: (Debye Ang)
    XX:   -46.5901     YY:   -47.8673     ZZ:   -45.6411
    XY:    -5.7605     XZ:    -2.0736     YZ:    -2.5063

  Traceless Quadrupole Moment: (Debye Ang)
    XX:     0.1095     YY:    -1.1678     ZZ:     1.0584
    XY:    -5.7605     XZ:    -2.0736     YZ:    -2.5063

  Mulliken Charges: (a.u.)
   Center  Symbol    Alpha    Beta     Spin     Total
       1     O     4.26229  4.26229  0.00000 -0.52459
       2     C     2.73714  2.73714  0.00000  0.52571
       3     C     3.20133  3.20133  0.00000 -0.40266
       4     C     3.28950  3.28950  0.00000 -0.57901
       5     C     3.16786  3.16786  0.00000 -0.33571
       6     H     0.41567  0.41567  0.00000  0.16865
       7     H     0.40027  0.40027  0.00000  0.19946
       8     C     3.15551  3.15551  0.00000 -0.31102
       9     H     0.41887  0.41887  0.00000  0.16226
      10     H     0.40322  0.40322  0.00000  0.19357
      11     C     3.24380  3.24380  0.00000 -0.48761
      12     H     0.41602  0.41602  0.00000  0.16797
      13     H     0.41828  0.41828  0.00000  0.16344
      14     H     0.41870  0.41870  0.00000  0.16261
      15     H     0.42162  0.42162  0.00000  0.15676
      16     H     0.41625  0.41625  0.00000  0.16749
      17     H     0.39703  0.39703  0.00000  0.20595
      18     H     0.40989  0.40989  0.00000  0.18022
      19     H     0.40675  0.40675  0.00000  0.18650

   Total alpha = 28.00000, Total beta = 28.00000, Total charge =  0.00000


*** PSI4 exiting successfully. Buy a developer a beer!
