    -----------------------------------------------------------------------
          Psi4: An Open-Source Ab Initio Electronic Structure Package
                              Psi4 (no tag) Driver

                          Git: Rev {detached?}  

    J. M. Turney, A. C. Simmonett, R. M. Parrish, E. G. Hohenstein,
    F. A. Evangelista, J. T. Fermann, B. J. Mintz, L. A. Burns, J. J. Wilke,
    M. L. Abrams, N. J. Russ, M. L. Leininger, C. L. Janssen, E. T. Seidl,
    W. D. Allen, H. F. Schaefer, R. A. King, E. F. Valeev, C. D. Sherrill,
    and T. D. Crawford, WIREs Comput. Mol. Sci. 2, 556-565 (2012)
    (doi: 10.1002/wcms.93)

                         Additional Contributions by
    A. E. DePrince, M. Saitow, U. Bozkaya, A. Yu. Sokolov
    -----------------------------------------------------------------------


    Psi4 started on: Fri Sep  2 12:15:44 2016

    Process ID:   5109
    PSI4DATADIR: /export131/home/mjharvey/miniconda3/share
    Memory level set to 256.000 MB

  ==> Input File <==

--------------------------------------------------------------------------
set {
	reference rhf
	basis 6-31G*
}


set_num_threads( 4 )
memory 2 gb

molecule MOL {
0 1

H	 3.893188	 0.355400	 -0.101367
N	 3.092854	 -0.246221	 -0.068770
C	 1.865559	 0.531981	 0.018834
H	 3.199514	 -0.826043	 0.741946
C	 0.645745	 -0.382037	 -0.029944
H	 1.841966	 1.207024	 -0.831236
H	 1.815756	 1.155410	 0.915079
C	 -0.679275	 0.379305	 0.025956
H	 0.698998	 -0.976915	 -0.937203
H	 0.693479	 -1.083846	 0.802235
C	 -1.901500	 -0.540046	 0.062464
H	 -0.753660	 1.037904	 -0.838083
H	 -0.691847	 1.025159	 0.902633
C	 -3.223448	 0.224998	 0.114159
H	 -1.891770	 -1.185360	 -0.813144
H	 -1.831249	 -1.197623	 0.926358
H	 -3.339167	 0.866863	 -0.754712
H	 -4.070455	 -0.453665	 0.138630
H	 -3.278276	 0.854216	 0.998167

	symmetry c1
}
set optking {
	frozen_dihedral = ("
		12 8 5 9
	")
}

ee = optimize('scf')
oeprop('DIPOLE', 'QUADRUPOLE', 'MULLIKEN_CHARGES')
f=open( 'psi4out.xyz', 'w' )
f.write( "19  " )
f.write( str(ee) + "\n" )
f.write( MOL.save_string_xyz() )
f.close()
--------------------------------------------------------------------------

  Memory set to   2.000 GiB by Python script.
gradient() will perform analytic gradient computation.

*** tstart() called on cx1-1-1-3.cx1.hpc.ic.ac.uk
*** at Fri Sep  2 12:15:44 2016


         ---------------------------------------------------------
                                   SCF
            by Justin Turney, Rob Parrish, and Andy Simmonett
                              RHF Reference
                        4 Threads,   2000 MiB Core
         ---------------------------------------------------------

  ==> Geometry <==

    Molecular point group: c1
    Full point group: C1

    Geometry (in Angstrom), charge = 0, multiplicity = 1:

       Center              X                  Y                   Z               Mass       
    ------------   -----------------  -----------------  -----------------  -----------------
           H          3.892592693981     0.356465646324    -0.129986926228     1.007825032070
           N          3.092258693981    -0.245155353676    -0.097389926228    14.003074004780
           C          1.864963693981     0.533046646324    -0.009785926228    12.000000000000
           H          3.198918693981    -0.824977353676     0.713326073772     1.007825032070
           C          0.645149693981    -0.380971353676    -0.058563926228    12.000000000000
           H          1.841370693981     1.208089646324    -0.859855926228     1.007825032070
           H          1.815160693981     1.156475646324     0.886459073772     1.007825032070
           C         -0.679870306019     0.380370646324    -0.002663926228    12.000000000000
           H          0.698402693981    -0.975849353676    -0.965822926228     1.007825032070
           H          0.692883693981    -1.082780353676     0.773615073772     1.007825032070
           C         -1.902095306019    -0.538980353676     0.033844073772    12.000000000000
           H         -0.754255306019     1.038969646324    -0.866702926228     1.007825032070
           H         -0.692442306019     1.026224646324     0.874013073772     1.007825032070
           C         -3.224043306019     0.226063646324     0.085539073772    12.000000000000
           H         -1.892365306019    -1.184294353676    -0.841763926228     1.007825032070
           H         -1.831844306019    -1.196557353676     0.897738073772     1.007825032070
           H         -3.339762306019     0.867928646324    -0.783331926228     1.007825032070
           H         -4.071050306019    -0.452599353676     0.110010073772     1.007825032070
           H         -3.278871306019     0.855281646324     0.969547073772     1.007825032070

  Running in c1 symmetry.

  Rotational constants: A =      0.51604  B =      0.03806  C =      0.03673 [cm^-1]
  Rotational constants: A =  15470.46572  B =   1140.89078  C =   1101.22919 [MHz]
  Nuclear repulsion =  245.650985299801107

  Charge       = 0
  Multiplicity = 1
  Electrons    = 50
  Nalpha       = 25
  Nbeta        = 25

  ==> Algorithm <==

  SCF Algorithm Type is DF.
  DIIS enabled.
  MOM disabled.
  Fractional occupation disabled.
  Guess Type is CORE.
  Energy threshold   = 1.00e-08
  Density threshold  = 1.00e-08
  Integral threshold = 0.00e+00

  ==> Primary Basis <==

  Basis Set: 6-31G*
    Number of shells: 62
    Number of basis function: 116
    Number of Cartesian functions: 116
    Spherical Harmonics?: false
    Max angular momentum: 2

  ==> Pre-Iterations <==

   -------------------------------------------------------
    Irrep   Nso     Nmo     Nalpha   Nbeta   Ndocc  Nsocc
   -------------------------------------------------------
     A        116     116       0       0       0       0
   -------------------------------------------------------
    Total     116     116      25      25      25       0
   -------------------------------------------------------

 OEINTS: Overlap, kinetic, potential, dipole, and quadrupole integrals
         stored in file 35.

  ==> Integral Setup <==

  ==> DFJK: Density-Fitted J/K Matrices <==

    J tasked:                  Yes
    K tasked:                  Yes
    wK tasked:                  No
    OpenMP threads:              4
    Integrals threads:           4
    Memory (MB):              1430
    Algorithm:                Core
    Integral Cache:           NONE
    Schwarz Cutoff:          1E-12
    Fitting Condition:       1E-12

   => Auxiliary Basis Set <=

  Basis Set: 
    Number of shells: 261
    Number of basis function: 811
    Number of Cartesian functions: 811
    Spherical Harmonics?: false
    Max angular momentum: 3

  Minimum eigenvalue in the overlap matrix is 3.1641875528E-03.
  Using Symmetric Orthogonalization.
  SCF Guess: Core (One-Electron) Hamiltonian.

  ==> Iterations <==

                           Total Energy        Delta E     RMS |[F,P]|

   @DF-RHF iter   1:  -190.85704506323037   -1.90857e+02   7.06696e-02 
   @DF-RHF iter   2:   -93.21626274893271    9.76408e+01   8.53812e-02 DIIS
   @DF-RHF iter   3:  -178.12581202967402   -8.49095e+01   6.04150e-02 DIIS
   @DF-RHF iter   4:  -190.76265877719203   -1.26368e+01   5.57634e-02 DIIS
   @DF-RHF iter   5:  -232.85928040042205   -4.20966e+01   3.69056e-02 DIIS
   @DF-RHF iter   6:  -251.07291652442728   -1.82136e+01   6.18525e-03 DIIS
   @DF-RHF iter   7:  -251.30873734915968   -2.35821e-01   2.63030e-03 DIIS
   @DF-RHF iter   8:  -251.34617450008437   -3.74372e-02   7.33716e-04 DIIS
   @DF-RHF iter   9:  -251.35131066264222   -5.13616e-03   1.80825e-04 DIIS
   @DF-RHF iter  10:  -251.35164068483203   -3.30022e-04   6.40120e-05 DIIS
   @DF-RHF iter  11:  -251.35168991833848   -4.92335e-05   2.48045e-05 DIIS
   @DF-RHF iter  12:  -251.35169647363500   -6.55530e-06   7.88154e-06 DIIS
   @DF-RHF iter  13:  -251.35169708756240   -6.13927e-07   2.78745e-06 DIIS
   @DF-RHF iter  14:  -251.35169716277807   -7.52157e-08   4.40005e-07 DIIS
   @DF-RHF iter  15:  -251.35169716617673   -3.39867e-09   9.96272e-08 DIIS
   @DF-RHF iter  16:  -251.35169716632862   -1.51886e-10   2.51577e-08 DIIS
   @DF-RHF iter  17:  -251.35169716633754   -8.92442e-12   6.55105e-09 DIIS

  ==> Post-Iterations <==

    Orbital Energies (a.u.)
    -----------------------

    Doubly Occupied:                                                      

       1A    -15.532484     2A    -11.239753     3A    -11.214000  
       4A    -11.212729     5A    -11.209453     6A    -11.207527  
       7A     -1.176606     8A     -1.072970     9A     -0.998397  
      10A     -0.900194    11A     -0.812963    12A     -0.789315  
      13A     -0.664902    14A     -0.641952    15A     -0.616444  
      16A     -0.588991    17A     -0.564301    18A     -0.548250  
      19A     -0.530745    20A     -0.498308    21A     -0.480963  
      22A     -0.464969    23A     -0.461095    24A     -0.449599  
      25A     -0.381011  

    Virtual:                                                              

      26A      0.228167    27A      0.236037    28A      0.268455  
      29A      0.270616    30A      0.280154    31A      0.311469  
      32A      0.321227    33A      0.329216    34A      0.341287  
      35A      0.348250    36A      0.355378    37A      0.363257  
      38A      0.368060    39A      0.397876    40A      0.406127  
      41A      0.450404    42A      0.472354    43A      0.494267  
      44A      0.697981    45A      0.719348    46A      0.748011  
      47A      0.753710    48A      0.773244    49A      0.809942  
      50A      0.830470    51A      0.878997    52A      0.916960  
      53A      0.946333    54A      0.967255    55A      0.989653  
      56A      1.011507    57A      1.033530    58A      1.072027  
      59A      1.110087    60A      1.119239    61A      1.135676  
      62A      1.160146    63A      1.179779    64A      1.187853  
      65A      1.201677    66A      1.210172    67A      1.220070  
      68A      1.226988    69A      1.229151    70A      1.236408  
      71A      1.254757    72A      1.257898    73A      1.275972  
      74A      1.339196    75A      1.393630    76A      1.548229  
      77A      1.621091    78A      1.694140    79A      1.713597  
      80A      1.732170    81A      1.796639    82A      1.817272  
      83A      1.930078    84A      2.036207    85A      2.133565  
      86A      2.152521    87A      2.176252    88A      2.227804  
      89A      2.243797    90A      2.262244    91A      2.297635  
      92A      2.326294    93A      2.337618    94A      2.386985  
      95A      2.443564    96A      2.446374    97A      2.568918  
      98A      2.593920    99A      2.632697   100A      2.667118  
     101A      2.699745   102A      2.760481   103A      2.784817  
     104A      2.807274   105A      2.880023   106A      2.931739  
     107A      2.955200   108A      3.027972   109A      3.161238  
     110A      3.199949   111A      4.220308   112A      4.574810  
     113A      4.674572   114A      4.772219   115A      4.861910  
     116A      4.991626  

    Final Occupation by Irrep:
              A 
    DOCC [    25 ]

  Energy converged.

  @DF-RHF Final Energy:  -251.35169716633754

   => Energetics <=

    Nuclear Repulsion Energy =            245.6509852998011070
    One-Electron Energy =                -825.4895161923273008
    Two-Electron Energy =                 328.4868337261885358
    DFT Exchange-Correlation Energy =       0.0000000000000000
    Empirical Dispersion Energy =           0.0000000000000000
    PCM Polarization Energy =               0.0000000000000000
    EFP Energy =                            0.0000000000000000
    Total Energy =                       -251.3516971663377149

    Alert: EFP and PCM quantities not currently incorporated into SCF psivars.

Properties will be evaluated at   0.000000,   0.000000,   0.000000 Bohr
  ==> Properties <==


Properties computed using the SCF density matrix

  Nuclear Dipole Moment: (a.u.)
     X:    -3.4976      Y:     0.7435      Z:     0.7289

  Electronic Dipole Moment: (a.u.)
     X:     3.5517      Y:    -0.4533      Z:    -0.2717

  Dipole Moment: (a.u.)
     X:     0.0542      Y:     0.2902      Z:     0.4572     Total:     0.5443

  Dipole Moment: (Debye)
     X:     0.1377      Y:     0.7376      Z:     1.1622     Total:     1.3834


  Saving occupied orbitals to File 180.

*** tstop() called on cx1-1-1-3.cx1.hpc.ic.ac.uk at Fri Sep  2 12:15:49 2016
Module time:
	user time   =      12.91 seconds =       0.22 minutes
	system time =       0.13 seconds =       0.00 minutes
	total time  =          5 seconds =       0.08 minutes
Total time:
	user time   =      12.91 seconds =       0.22 minutes
	system time =       0.13 seconds =       0.00 minutes
	total time  =          5 seconds =       0.08 minutes

*** tstart() called on cx1-1-1-3.cx1.hpc.ic.ac.uk
*** at Fri Sep  2 12:15:49 2016


         ------------------------------------------------------------
                                   SCF GRAD                          
                          Rob Parrish, Justin Turney,                
                       Andy Simmonett, and Alex Sokolov              
         ------------------------------------------------------------

  ==> Geometry <==

    Molecular point group: c1
    Full point group: C1

    Geometry (in Angstrom), charge = 0, multiplicity = 1:

       Center              X                  Y                   Z               Mass       
    ------------   -----------------  -----------------  -----------------  -----------------
           H          3.892592693981     0.356465646324    -0.129986926228     1.007825032070
           N          3.092258693981    -0.245155353676    -0.097389926228    14.003074004780
           C          1.864963693981     0.533046646324    -0.009785926228    12.000000000000
           H          3.198918693981    -0.824977353676     0.713326073772     1.007825032070
           C          0.645149693981    -0.380971353676    -0.058563926228    12.000000000000
           H          1.841370693981     1.208089646324    -0.859855926228     1.007825032070
           H          1.815160693981     1.156475646324     0.886459073772     1.007825032070
           C         -0.679870306019     0.380370646324    -0.002663926228    12.000000000000
           H          0.698402693981    -0.975849353676    -0.965822926228     1.007825032070
           H          0.692883693981    -1.082780353676     0.773615073772     1.007825032070
           C         -1.902095306019    -0.538980353676     0.033844073772    12.000000000000
           H         -0.754255306019     1.038969646324    -0.866702926228     1.007825032070
           H         -0.692442306019     1.026224646324     0.874013073772     1.007825032070
           C         -3.224043306019     0.226063646324     0.085539073772    12.000000000000
           H         -1.892365306019    -1.184294353676    -0.841763926228     1.007825032070
           H         -1.831844306019    -1.196557353676     0.897738073772     1.007825032070
           H         -3.339762306019     0.867928646324    -0.783331926228     1.007825032070
           H         -4.071050306019    -0.452599353676     0.110010073772     1.007825032070
           H         -3.278871306019     0.855281646324     0.969547073772     1.007825032070

  Nuclear repulsion =  245.650985299801107

  ==> Basis Set <==

  Basis Set: 6-31G*
    Number of shells: 62
    Number of basis function: 116
    Number of Cartesian functions: 116
    Spherical Harmonics?: false
    Max angular momentum: 2

  ==> DFJKGrad: Density-Fitted SCF Gradients <==

    Gradient:                    1
    J tasked:                  Yes
    K tasked:                  Yes
    wK tasked:                  No
    OpenMP threads:              4
    Integrals threads:           4
    Memory (MB):              1430
    Schwarz Cutoff:          0E+00
    Fitting Condition:       1E-12

   => Auxiliary Basis Set <=

  Basis Set: 
    Number of shells: 261
    Number of basis function: 811
    Number of Cartesian functions: 811
    Spherical Harmonics?: false
    Max angular momentum: 3


  -Total Gradient:
     Atom            X                  Y                   Z
    ------   -----------------  -----------------  -----------------
       1       -0.000000729996     0.000004393710     0.000005663373
       2       -0.000015129961    -0.000029870401     0.000035804361
       3       -0.000038267111     0.000016384853     0.000237947047
       4        0.000006747273     0.000014303066    -0.000015704260
       5       -0.000004985018     0.000034078156    -0.000013247210
       6       -0.000003830684    -0.000095665780     0.000019431305
       7        0.000013973337     0.000092116532     0.000025379713
       8        0.000046830421    -0.000009222900    -0.000003843556
       9        0.000085705339     0.000132805448    -0.000147621029
      10       -0.000131142153    -0.000143475715    -0.000128197902
      11        0.000037393237    -0.000023606728     0.000220778762
      12       -0.000128935464    -0.000112903203    -0.000161321187
      13        0.000130872039     0.000119511094    -0.000139422083
      14       -0.000020794713    -0.000010632781     0.000077652851
      15        0.000013345678     0.000049256164     0.000002065757
      16       -0.000010141809    -0.000059421264     0.000010243608
      17        0.000011423838     0.000012278817    -0.000014994526
      18        0.000021567160     0.000013913303    -0.000004018846
      19       -0.000013901411    -0.000004242371    -0.000006596176


*** tstop() called on cx1-1-1-3.cx1.hpc.ic.ac.uk at Fri Sep  2 12:15:54 2016
Module time:
	user time   =      17.86 seconds =       0.30 minutes
	system time =       0.19 seconds =       0.00 minutes
	total time  =          5 seconds =       0.08 minutes
Total time:
	user time   =      30.79 seconds =       0.51 minutes
	system time =       0.32 seconds =       0.01 minutes
	total time  =         10 seconds =       0.17 minutes
CURRENT ENERGY: -251.3516971663

			-----------------------------------------
			 OPTKING 2.0: for geometry optimizations 
			  - R.A. King,  Bethel University        
			-----------------------------------------

	Internal coordinates to be generated automatically.
	Detected frag with atoms:  1 2 3 4 5 6 7 8 9 10 11 12 13 14 15 16 17 18 19
	---Fragment 1 Bond Connectivity---
	 1 : 2
	 2 : 1 3 4
	 3 : 2 5 6 7
	 4 : 2
	 5 : 3 8 9 10
	 6 : 3
	 7 : 3
	 8 : 5 11 12 13
	 9 : 5
	 10 : 5
	 11 : 8 14 15 16
	 12 : 8
	 13 : 8
	 14 : 11 17 18 19
	 15 : 11
	 16 : 11
	 17 : 14
	 18 : 14
	 19 : 14

	Assuming in current code that numbering for constraints corresponds to unified fragment.
	Frozen dihedral atom list: 
	    12     8     5     9
	---Fragment 1 Geometry and Gradient---
	 H           7.3559341385        0.6736224473       -0.2456396914
	 N           5.8435220637       -0.4632764785       -0.1840402887
	 C           3.5242706294        1.0073121776       -0.0184927205
	 H           6.0450802530       -1.5589812643        1.3479909229
	 C           1.2191562363       -0.7199315229       -0.1106697818
	 H           3.4796863207        2.2829585755       -1.6248922143
	 H           3.4301565988        2.1854222509        1.6751648774
	 C          -1.2847686843        0.7187963505       -0.0050340910
	 H           1.3197898221       -1.8440880254       -1.8251408234
	 H           1.3093604236       -2.0461583305        1.4619206217
	 C          -3.5944392070       -1.0185252595        0.0639560307
	 H          -1.4253359627        1.9633680919       -1.6378311691
	 H          -1.3085263212        1.9392835324        1.6516453460
	 C          -6.0925588889        0.4271983802        0.1616454231
	 H          -3.5760521718       -2.2379919892       -1.5907032891
	 H          -3.4616840565       -2.2611657007        1.6964790985
	 H          -6.3112361073        1.6401474444       -1.4802828117
	 H          -7.6931701516       -0.8552888264        0.2078889113
	 H          -6.1961687934        1.6162480780        1.8321784424
	            -0.0000007300        0.0000043937        0.0000056634
	            -0.0000151300       -0.0000298704        0.0000358044
	            -0.0000382671        0.0000163849        0.0002379470
	             0.0000067473        0.0000143031       -0.0000157043
	            -0.0000049850        0.0000340782       -0.0000132472
	            -0.0000038307       -0.0000956658        0.0000194313
	             0.0000139733        0.0000921165        0.0000253797
	             0.0000468304       -0.0000092229       -0.0000038436
	             0.0000857053        0.0001328054       -0.0001476210
	            -0.0001311422       -0.0001434757       -0.0001281979
	             0.0000373932       -0.0000236067        0.0002207788
	            -0.0001289355       -0.0001129032       -0.0001613212
	             0.0001308720        0.0001195111       -0.0001394221
	            -0.0000207947       -0.0000106328        0.0000776529
	             0.0000133457        0.0000492562        0.0000020658
	            -0.0000101418       -0.0000594213        0.0000102436
	             0.0000114238        0.0000122788       -0.0000149945
	             0.0000215672        0.0000139133       -0.0000040188
	            -0.0000139014       -0.0000042424       -0.0000065962

	Previous optimization step data not found.  Starting new optimization.

	---Fragment 1 Intrafragment Coordinates---
	 - Coordinate -           - BOHR/RAD -       - ANG/DEG -
	 R(1,2)           =         1.893073	       1.001771
	 R(2,3)           =         2.751175	       1.455859
	 R(2,4)           =         1.894285	       1.002412
	 R(3,5)           =         2.881913	       1.525043
	 R(3,6)           =         2.051775	       1.085753
	 R(3,7)           =         2.065255	       1.092886
	 R(5,8)           =         2.889764	       1.529197
	 R(5,9)           =         2.052624	       1.086202
	 R(5,10)          =         2.059139	       1.089650
	 R(8,11)          =         2.890956	       1.529828
	 R(8,12)          =         2.057849	       1.088967
	 R(8,13)          =         2.057848	       1.088967
	 R(11,14)         =         2.887951	       1.528238
	 R(11,15)         =         2.055562	       1.087757
	 R(11,16)         =         2.055945	       1.087959
	 R(14,17)         =         2.053045	       1.086425
	 R(14,18)         =         2.051553	       1.085635
	 R(14,19)         =         2.053109	       1.086458
	 B(1,2,3)         =         1.933104	     110.758722
	 B(1,2,4)         =         1.863652	     106.779396
	 B(2,3,5)         =         1.930494	     110.609167
	 B(2,3,6)         =         1.879202	     107.670322
	 B(2,3,7)         =         1.974342	     113.121478
	 B(3,2,4)         =         1.928602	     110.500731
	 B(3,5,8)         =         1.975229	     113.172275
	 B(3,5,9)         =         1.892033	     108.405498
	 B(3,5,10)        =         1.903447	     109.059474
	 B(5,3,6)         =         1.907316	     109.281147
	 B(5,3,7)         =         1.908869	     109.370116
	 B(5,8,11)        =         1.975704	     113.199514
	 B(5,8,12)        =         1.908468	     109.347156
	 B(5,8,13)        =         1.912098	     109.555128
	 B(6,3,7)         =         1.861274	     106.643124
	 B(8,5,9)         =         1.923761	     110.223395
	 B(8,5,10)        =         1.907844	     109.311432
	 B(8,11,14)       =         1.972573	     113.020100
	 B(8,11,15)       =         1.907268	     109.278430
	 B(8,11,16)       =         1.907718	     109.304216
	 B(9,5,10)        =         1.857731	     106.440152
	 B(11,8,12)       =         1.904783	     109.136037
	 B(11,8,13)       =         1.904963	     109.146320
	 B(11,14,17)      =         1.939968	     111.151978
	 B(11,14,18)      =         1.941959	     111.266051
	 B(11,14,19)      =         1.940243	     111.167751
	 B(12,8,13)       =         1.853845	     106.217507
	 B(14,11,15)      =         1.909169	     109.387299
	 B(14,11,16)      =         1.908761	     109.363953
	 B(15,11,16)      =         1.854629	     106.262401
	 B(17,14,18)      =         1.879953	     107.713380
	 B(17,14,19)      =         1.878834	     107.649275
	 B(18,14,19)      =         1.880030	     107.717778
	 D(1,2,3,5)       =         3.072646	     176.049658
	 D(1,2,3,6)       =         0.989702	      56.705776
	 D(1,2,3,7)       =        -1.062323	     -60.866605
	 D(2,3,5,8)       =        -3.118670	    -178.686611
	 D(2,3,5,9)       =        -0.978957	     -56.090097
	 D(2,3,5,10)      =         1.036927	      59.411538
	 D(3,5,8,11)      =        -3.080796	    -176.516605
	 D(3,5,8,12)      =         1.074779	      61.580320
	 D(3,5,8,13)      =        -0.950321	     -54.449356
	 D(4,2,3,5)       =        -1.148948	     -65.829851
	 D(4,2,3,6)       =         3.051294	     174.826266
	 D(4,2,3,7)       =         0.999269	      57.253886
	 D(5,8,11,14)     =        -3.138661	    -179.832041
	 D(5,8,11,15)     =        -1.008422	     -57.778345
	 D(5,8,11,16)     =         1.014483	      58.125598
	 D(6,3,5,8)       =        -1.052775	     -60.319539
	 D(6,3,5,9)       =         1.086938	      62.276976
	 D(6,3,5,10)      =         3.102822	     177.778611
	 D(7,3,5,8)       =         0.978775	      56.079677
	 D(7,3,5,9)       =         3.118488	     178.676192
	 D(7,3,5,10)      =        -1.148814	     -65.822173
	 D(8,11,14,17)    =         1.045902	      59.925783
	 D(8,11,14,18)    =         3.141058	     179.969387
	 D(8,11,14,19)    =        -1.046688	     -59.970816
	 D(9,5,8,11)      =         1.080412	      61.903073
	*D(9,5,8,12)      =        -1.047198	     -60.000002
	 D(9,5,8,13)      =        -3.072297	    -176.029679
	 D(10,5,8,11)     =        -0.955672	     -54.755979
	 D(10,5,8,12)     =        -3.083282	    -176.659054
	 D(10,5,8,13)     =         1.174803	      67.311270
	 D(12,8,11,14)    =        -1.008990	     -57.810862
	 D(12,8,11,15)    =         1.121249	      64.242835
	 D(12,8,11,16)    =        -3.139031	    -179.853223
	 D(13,8,11,14)    =         1.010067	      57.872561
	 D(13,8,11,15)    =         3.140306	     179.926257
	 D(13,8,11,16)    =        -1.119974	     -64.169800
	 D(15,11,14,17)   =        -1.083271	     -62.066842
	 D(15,11,14,18)   =         1.011885	      57.976762
	 D(15,11,14,19)   =         3.107324	     178.036559
	 D(16,11,14,17)   =        -3.107827	    -178.065364
	 D(16,11,14,18)   =        -1.012671	     -58.021760
	 D(16,11,14,19)   =         1.082768	      62.038037

	Current energy   :      -251.3516971663

	Generating empirical Hessian (Schlegel '84) for each fragment.
	Taking RFO optimization step.
	Going to follow RFO solution 1.
	Using RFO vector 1.
	Norm of target step-size    0.09219
	Projected energy change by RFO approximation:        -0.0000044165

	Back-transformation to cartesian coordinates...
	Successfully converged to displaced geometry.

	Back-transformation to cartesian coordinates to adjust frozen coordinates...
	Successfully converged to displaced geometry.

	--- Internal Coordinate Step in ANG or DEG, aJ/ANG or AJ/DEG ---
	 ---------------------------------------------------------------------------
	   Coordinate                Previous        Force       Change         New 
	   ----------                --------       ------       ------       ------
	    1 R(1,2)          =      1.001771    -0.000015    -0.000002     1.001769
	    2 R(2,3)          =      1.455859     0.000027     0.000005     1.455864
	    3 R(2,4)          =      1.002412     0.000167     0.000023     1.002435
	    4 R(3,5)          =      1.525043     0.000156     0.000033     1.525076
	    5 R(3,6)          =      1.085753     0.000615     0.000112     1.085864
	    6 R(3,7)          =      1.092886    -0.000599    -0.000112     1.092774
	    7 R(5,8)          =      1.529197     0.000734     0.000160     1.529357
	    8 R(5,9)          =      1.086202    -0.000451    -0.000082     1.086120
	    9 R(5,10)         =      1.089650     0.000093     0.000017     1.089667
	   10 R(8,11)         =      1.529828     0.000089     0.000019     1.529847
	   11 R(8,12)         =      1.088967    -0.000565    -0.000104     1.088863
	   12 R(8,13)         =      1.088967     0.000353     0.000065     1.089032
	   13 R(11,14)        =      1.528238    -0.000073    -0.000016     1.528222
	   14 R(11,15)        =      1.087757     0.000253     0.000046     1.087803
	   15 R(11,16)        =      1.087959    -0.000358    -0.000066     1.087894
	   16 R(14,17)        =      1.086425    -0.000149    -0.000027     1.086398
	   17 R(14,18)        =      1.085635     0.000211     0.000038     1.085673
	   18 R(14,19)        =      1.086458     0.000059     0.000011     1.086469
	   19 B(1,2,3)        =    110.758722     0.000001     0.005114   110.763836
	   20 B(1,2,4)        =    106.779396     0.000000     0.004427   106.783823
	   21 B(2,3,5)        =    110.609167     0.000002     0.005175   110.614341
	   22 B(2,3,6)        =    107.670322    -0.000002     0.005436   107.675758
	   23 B(2,3,7)        =    113.121478     0.000001    -0.001971   113.119507
	   24 B(3,2,4)        =    110.500731    -0.000001    -0.002155   110.498576
	   25 B(3,5,8)        =    113.172275     0.000001    -0.057225   113.115050
	   26 B(3,5,9)        =    108.405498    -0.000007    -0.252692   108.152806
	   27 B(3,5,10)       =    109.059474    -0.000001     0.033982   109.093457
	   28 B(5,3,6)        =    109.281147     0.000003     0.029231   109.310378
	   29 B(5,3,7)        =    109.370116    -0.000004    -0.034809   109.335307
	   30 B(5,8,11)       =    113.199514     0.000002    -0.049846   113.149669
	   31 B(5,8,12)       =    109.347156    -0.000004    -0.089337   109.257819
	   32 B(5,8,13)       =    109.555128     0.000006     0.166995   109.722123
	   33 B(6,3,7)        =    106.643124     0.000000    -0.000913   106.642211
	   34 B(8,5,9)        =    110.223395    -0.000002    -0.068744   110.154652
	   35 B(8,5,10)       =    109.311432     0.000005     0.164364   109.475796
	   36 B(8,11,14)      =    113.020100     0.000001     0.003131   113.023232
	   37 B(8,11,15)      =    109.278430     0.000002     0.022213   109.300643
	   38 B(8,11,16)      =    109.304216    -0.000003    -0.023157   109.281059
	   39 B(9,5,10)       =    106.440152     0.000003     0.193435   106.633587
	   40 B(11,8,12)      =    109.136037    -0.000005    -0.240968   108.895069
	   41 B(11,8,13)      =    109.146320    -0.000002     0.039083   109.185403
	   42 B(11,14,17)     =    111.151978     0.000001     0.007958   111.159936
	   43 B(11,14,18)     =    111.266051     0.000000     0.001648   111.267699
	   44 B(11,14,19)     =    111.167751    -0.000002    -0.009224   111.158527
	   45 B(12,8,13)      =    106.217507     0.000003     0.187233   106.404740
	   46 B(14,11,15)     =    109.387299    -0.000002    -0.007847   109.379452
	   47 B(14,11,16)     =    109.363953     0.000002     0.005115   109.369067
	   48 B(15,11,16)     =    106.262401     0.000000     0.000376   106.262778
	   49 B(17,14,18)     =    107.713380    -0.000001    -0.001220   107.712161
	   50 B(17,14,19)     =    107.649275     0.000000     0.000256   107.649531
	   51 B(18,14,19)     =    107.717778     0.000001     0.000557   107.718335
	   52 D(1,2,3,5)      =    176.049658     0.000001     0.029263   176.078922
	   53 D(1,2,3,6)      =     56.705776    -0.000000    -0.012541    56.693235
	   54 D(1,2,3,7)      =    -60.866605    -0.000000    -0.013790   -60.880395
	   55 D(2,3,5,8)      =   -178.686611     0.000001     1.101245  -177.585367
	   56 D(2,3,5,9)      =    -56.090097    -0.000000     0.794691   -55.295406
	   57 D(2,3,5,10)     =     59.411538    -0.000000     0.905022    60.316561
	   58 D(3,5,8,11)     =   -176.516605    -0.000004    -0.821607  -177.338212
	   59 D(3,5,8,12)     =     61.580320    -0.000002    -0.415020    61.165301
	   60 D(3,5,8,13)     =    -54.449356    -0.000003    -0.683810   -55.133166
	   61 D(4,2,3,5)      =    -65.829851     0.000001     0.036598   -65.793254
	   62 D(4,2,3,6)      =    174.826266    -0.000000    -0.005207   174.821059
	   63 D(4,2,3,7)      =     57.253886    -0.000000    -0.006456    57.247430
	   64 D(5,8,11,14)    =   -179.832041     0.000002     1.526064  -178.305977
	   65 D(5,8,11,15)    =    -57.778345     0.000002     1.534142   -56.244203
	   66 D(5,8,11,16)    =     58.125598     0.000002     1.534066    59.659664
	   67 D(6,3,5,8)      =    -60.319539     0.000002     1.129045   -59.190494
	   68 D(6,3,5,9)      =     62.276976     0.000000     0.822492    63.099467
	   69 D(6,3,5,10)     =    177.778611     0.000000     0.932822   178.711433
	   70 D(7,3,5,8)      =     56.079677     0.000001     1.124816    57.204493
	   71 D(7,3,5,9)      =    178.676192     0.000000     0.818263   179.494454
	   72 D(7,3,5,10)     =    -65.822173    -0.000000     0.928593   -64.893580
	   73 D(8,11,14,17)   =     59.925783     0.000000     0.171692    60.097475
	   74 D(8,11,14,18)   =    179.969387     0.000000     0.176615   180.146002
	   75 D(8,11,14,19)   =    -59.970816     0.000000     0.172214   -59.798602
	   76 D(9,5,8,11)     =     61.903073    -0.000002    -0.406587    61.496485
	   77 *D(9,5,8,12)    =    -60.000002     0.000000    -0.000000   -60.000002
	   78 D(9,5,8,13)     =   -176.029679    -0.000001    -0.268790  -176.298469
	   79 D(10,5,8,11)    =    -54.755979    -0.000003    -0.698326   -55.454305
	   80 D(10,5,8,12)    =   -176.659054    -0.000001    -0.291738  -176.950792
	   81 D(10,5,8,13)    =     67.311270    -0.000002    -0.560529    66.750741
	   82 D(12,8,11,14)   =    -57.810862    -0.000000     1.205295   -56.605567
	   83 D(12,8,11,15)   =     64.242835    -0.000000     1.213373    65.456207
	   84 D(12,8,11,16)   =   -179.853223    -0.000000     1.213297  -178.639925
	   85 D(13,8,11,14)   =     57.872561    -0.000000     1.317169    59.189730
	   86 D(13,8,11,15)   =    179.926257    -0.000000     1.325247   181.251504
	   87 D(13,8,11,16)   =    -64.169800    -0.000000     1.325171   -62.844629
	   88 D(15,11,14,17)  =    -62.066842    -0.000000     0.146741   -61.920101
	   89 D(15,11,14,18)  =     57.976762    -0.000000     0.151664    58.128426
	   90 D(15,11,14,19)  =    178.036559    -0.000000     0.147263   178.183822
	   91 D(16,11,14,17)  =   -178.065364    -0.000000     0.147826  -177.917538
	   92 D(16,11,14,18)  =    -58.021760    -0.000000     0.152749   -57.869012
	   93 D(16,11,14,19)  =     62.038037    -0.000000     0.148348    62.186385
	 ---------------------------------------------------------------------------

  ==> Convergence Check <==

  Measures of convergence in internal coordinates in au.
  Criteria marked as inactive (o), active & met (*), and active & unmet ( ).
  --------------------------------------------------------------------------------------------- ~
   Step     Total Energy     Delta E     MAX Force     RMS Force      MAX Disp      RMS Disp    ~
  --------------------------------------------------------------------------------------------- ~
    Convergence Criteria    1.00e-06 *    3.00e-04 *             o    1.20e-03 *             o  ~
  --------------------------------------------------------------------------------------------- ~
      1    -251.35169717   -2.51e+02      2.21e-04 *    5.65e-05 o    2.68e-02      9.56e-03 o  ~
  ---------------------------------------------------------------------------------------------

	Writing optimization data to binary file.
	Structure for next step:
	Cartesian Geometry (in Angstrom)
	    H     3.8898059159   0.3599948124  -0.1616871633
	    N     3.0905854530  -0.2427759462  -0.1235435652
	    C     1.8643655639   0.5328735781  -0.0039937886
	    H     3.2116387844  -0.8336891712   0.6771084245
	    C     0.6445389157  -0.3816301756  -0.0435255096
	    H     1.8255354501   1.2198024402  -0.8440667847
	    H     1.8295221773   1.1435856264   0.9015293483
	    C    -0.6797326175   0.3808234577   0.0189507049
	    H     0.6937450655  -0.9722258297  -0.9537077687
	    H     0.6987551591  -1.0842932285   0.7875574642
	    C    -1.9023489891  -0.5384061059   0.0446191444
	    H    -0.7541264234   1.0425577683  -0.8425575977
	    H    -0.6943116977   1.0204394653   0.9002386506
	    C    -3.2250710994   0.2267304734   0.0654792992
	    H    -1.8779410776  -1.1934923256  -0.8234716667
	    H    -1.8464696418  -1.1862211224   0.9168154514
	    H    -3.3275311277   0.8568377265  -0.8135693405
	    H    -4.0722759116  -0.4518778278   0.0860081448
	    H    -3.2935830133   0.8677177234   0.9400400100
			--------------------------
			 OPTKING Finished Execution 
			--------------------------

    Structure for next step:
    Molecular point group: c1
    Full point group: C1

    Geometry (in Angstrom), charge = 0, multiplicity = 1:

    H            3.890352152848     0.359531018714    -0.161969946165
    N            3.091131750957    -0.243239693846    -0.123826350944
    C            1.864911955442     0.532409771252    -0.004276583438
    H            3.212185073134    -0.834152873765     0.676825577594
    C            0.645085400481    -0.382093912633    -0.043808301492
    H            1.826081844628     1.219338580822    -0.844349515416
    H            1.830068571518     1.143121772880     0.901246484298
    C           -0.679186031592     0.380359662442     0.018667908238
    H            0.694291546508    -0.972689521627    -0.953990491001
    H            0.699301639727    -1.084756911926     0.787274608840
    C           -1.901802309880    -0.538869830952     0.044336345771
    H           -0.753579831876     1.042093922462    -0.842840328496
    H           -0.693765110735     1.019975621192     0.899955786660
    C           -3.224524319186     0.226266689855     0.065196499023
    H           -1.877394400256    -1.193956000602    -0.823754398984
    H           -1.845922966803    -1.186684798002     0.916532586252
    H           -3.326984339630     0.856373894932    -0.813852073556
    H           -4.071729066668    -0.452341559514     0.085725343043
    H           -3.293036227791     0.867253891005     0.939757143071

gradient() will perform analytic gradient computation.

*** tstart() called on cx1-1-1-3.cx1.hpc.ic.ac.uk
*** at Fri Sep  2 12:15:55 2016


         ---------------------------------------------------------
                                   SCF
            by Justin Turney, Rob Parrish, and Andy Simmonett
                              RHF Reference
                        4 Threads,   2000 MiB Core
         ---------------------------------------------------------

  ==> Geometry <==

    Molecular point group: c1
    Full point group: C1

    Geometry (in Angstrom), charge = 0, multiplicity = 1:

       Center              X                  Y                   Z               Mass       
    ------------   -----------------  -----------------  -----------------  -----------------
           H          3.890352152848     0.359531018714    -0.161969946165     1.007825032070
           N          3.091131750957    -0.243239693846    -0.123826350944    14.003074004780
           C          1.864911955442     0.532409771252    -0.004276583438    12.000000000000
           H          3.212185073134    -0.834152873765     0.676825577594     1.007825032070
           C          0.645085400481    -0.382093912633    -0.043808301492    12.000000000000
           H          1.826081844628     1.219338580822    -0.844349515416     1.007825032070
           H          1.830068571518     1.143121772880     0.901246484298     1.007825032070
           C         -0.679186031592     0.380359662442     0.018667908238    12.000000000000
           H          0.694291546508    -0.972689521627    -0.953990491001     1.007825032070
           H          0.699301639727    -1.084756911926     0.787274608840     1.007825032070
           C         -1.901802309880    -0.538869830952     0.044336345771    12.000000000000
           H         -0.753579831876     1.042093922462    -0.842840328496     1.007825032070
           H         -0.693765110735     1.019975621192     0.899955786660     1.007825032070
           C         -3.224524319186     0.226266689855     0.065196499023    12.000000000000
           H         -1.877394400256    -1.193956000602    -0.823754398984     1.007825032070
           H         -1.845922966803    -1.186684798002     0.916532586252     1.007825032070
           H         -3.326984339630     0.856373894932    -0.813852073556     1.007825032070
           H         -4.071729066668    -0.452341559514     0.085725343043     1.007825032070
           H         -3.293036227791     0.867253891005     0.939757143071     1.007825032070

  Running in c1 symmetry.

  Rotational constants: A =      0.51656  B =      0.03806  C =      0.03673 [cm^-1]
  Rotational constants: A =  15486.01844  B =   1140.93121  C =   1101.21456 [MHz]
  Nuclear repulsion =  245.656653876168235

  Charge       = 0
  Multiplicity = 1
  Electrons    = 50
  Nalpha       = 25
  Nbeta        = 25

  ==> Algorithm <==

  SCF Algorithm Type is DF.
  DIIS enabled.
  MOM disabled.
  Fractional occupation disabled.
  Guess Type is READ.
  Energy threshold   = 1.00e-08
  Density threshold  = 1.00e-08
  Integral threshold = 0.00e+00

  ==> Primary Basis <==

  Basis Set: 6-31G*
    Number of shells: 62
    Number of basis function: 116
    Number of Cartesian functions: 116
    Spherical Harmonics?: false
    Max angular momentum: 2

  ==> Pre-Iterations <==

   -------------------------------------------------------
    Irrep   Nso     Nmo     Nalpha   Nbeta   Ndocc  Nsocc
   -------------------------------------------------------
     A        116     116       0       0       0       0
   -------------------------------------------------------
    Total     116     116      25      25      25       0
   -------------------------------------------------------

 OEINTS: Overlap, kinetic, potential, dipole, and quadrupole integrals
         stored in file 35.

  ==> Integral Setup <==

  ==> DFJK: Density-Fitted J/K Matrices <==

    J tasked:                  Yes
    K tasked:                  Yes
    wK tasked:                  No
    OpenMP threads:              4
    Integrals threads:           4
    Memory (MB):              1430
    Algorithm:                Core
    Integral Cache:           NONE
    Schwarz Cutoff:          1E-12
    Fitting Condition:       1E-12

   => Auxiliary Basis Set <=

  Basis Set: 
    Number of shells: 261
    Number of basis function: 811
    Number of Cartesian functions: 811
    Spherical Harmonics?: false
    Max angular momentum: 3

  Minimum eigenvalue in the overlap matrix is 3.1608175044E-03.
  Using Symmetric Orthogonalization.
  SCF Guess: Reading in previously saved MOs, projecting if necessary.

  Using orbitals from previous SCF, no projection.
  Recomputing DOCC and SOCC from number of alpha and beta electrons from previous calculation.
              A 
    DOCC [    25 ]

  ==> Iterations <==

                           Total Energy        Delta E     RMS |[F,P]|

   @DF-RHF iter   0:  -251.34994508237750   -2.51350e+02   3.39454e-04 
   @DF-RHF iter   1:  -251.35164434772148   -1.69927e-03   6.15659e-05 
   @DF-RHF iter   2:  -251.35169235327103   -4.80055e-05   2.02794e-05 DIIS
   @DF-RHF iter   3:  -251.35169881122519   -6.45795e-06   5.32627e-06 DIIS
   @DF-RHF iter   4:  -251.35169904070628   -2.29481e-07   1.18621e-06 DIIS
   @DF-RHF iter   5:  -251.35169907074166   -3.00354e-08   3.51702e-07 DIIS
   @DF-RHF iter   6:  -251.35169907323913   -2.49747e-09   1.14694e-07 DIIS
   @DF-RHF iter   7:  -251.35169907350300   -2.63867e-10   2.76722e-08 DIIS
   @DF-RHF iter   8:  -251.35169907351653   -1.35287e-11   5.93074e-09 DIIS

  ==> Post-Iterations <==

    Orbital Energies (a.u.)
    -----------------------

    Doubly Occupied:                                                      

       1A    -15.532464     2A    -11.239666     3A    -11.213901  
       4A    -11.212747     5A    -11.209448     6A    -11.207481  
       7A     -1.176585     8A     -1.072957     9A     -0.998366  
      10A     -0.900174    11A     -0.812832    12A     -0.789195  
      13A     -0.664843    14A     -0.642110    15A     -0.616517  
      16A     -0.589115    17A     -0.564327    18A     -0.547858  
      19A     -0.530948    20A     -0.497888    21A     -0.481115  
      22A     -0.464840    23A     -0.461272    24A     -0.449586  
      25A     -0.380942  

    Virtual:                                                              

      26A      0.228173    27A      0.235975    28A      0.268573  
      29A      0.270616    30A      0.280299    31A      0.311415  
      32A      0.321169    33A      0.329669    34A      0.341673  
      35A      0.348060    36A      0.355036    37A      0.363444  
      38A      0.367999    39A      0.397517    40A      0.405722  
      41A      0.450339    42A      0.472378    43A      0.494288  
      44A      0.697961    45A      0.719269    46A      0.748054  
      47A      0.753915    48A      0.773215    49A      0.809931  
      50A      0.831008    51A      0.879257    52A      0.916123  
      53A      0.947706    54A      0.966835    55A      0.989193  
      56A      1.011355    57A      1.033645    58A      1.072678  
      59A      1.110291    60A      1.119001    61A      1.135517  
      62A      1.160180    63A      1.179433    64A      1.188015  
      65A      1.202001    66A      1.210286    67A      1.220053  
      68A      1.227120    69A      1.228931    70A      1.236662  
      71A      1.253676    72A      1.258053    73A      1.275651  
      74A      1.338683    75A      1.394346    76A      1.548199  
      77A      1.620481    78A      1.694903    79A      1.713856  
      80A      1.731280    81A      1.796653    82A      1.817277  
      83A      1.930592    84A      2.036887    85A      2.132545  
      86A      2.154156    87A      2.175749    88A      2.228158  
      89A      2.245180    90A      2.262676    91A      2.297842  
      92A      2.325557    93A      2.337585    94A      2.386962  
      95A      2.442630    96A      2.448218    97A      2.569612  
      98A      2.593854    99A      2.633376   100A      2.665444  
     101A      2.699776   102A      2.760107   103A      2.786077  
     104A      2.806632   105A      2.879996   106A      2.931822  
     107A      2.955024   108A      3.027721   109A      3.161113  
     110A      3.200168   111A      4.220194   112A      4.574959  
     113A      4.674609   114A      4.772315   115A      4.861760  
     116A      4.991745  

    Final Occupation by Irrep:
              A 
    DOCC [    25 ]

  Energy converged.

  @DF-RHF Final Energy:  -251.35169907351653

   => Energetics <=

    Nuclear Repulsion Energy =            245.6566538761682352
    One-Electron Energy =                -825.5023469730742818
    Two-Electron Energy =                 328.4939940233897460
    DFT Exchange-Correlation Energy =       0.0000000000000000
    Empirical Dispersion Energy =           0.0000000000000000
    PCM Polarization Energy =               0.0000000000000000
    EFP Energy =                            0.0000000000000000
    Total Energy =                       -251.3516990735163290

    Alert: EFP and PCM quantities not currently incorporated into SCF psivars.

Properties will be evaluated at   0.000000,   0.000000,   0.000000 Bohr
  ==> Properties <==


Properties computed using the SCF density matrix

  Nuclear Dipole Moment: (a.u.)
     X:    -3.4871      Y:     0.7348      Z:     0.7190

  Electronic Dipole Moment: (a.u.)
     X:     3.5493      Y:    -0.4513      Z:    -0.2583

  Dipole Moment: (a.u.)
     X:     0.0622      Y:     0.2835      Z:     0.4607     Total:     0.5445

  Dipole Moment: (Debye)
     X:     0.1581      Y:     0.7206      Z:     1.1710     Total:     1.3840


  Saving occupied orbitals to File 180.

*** tstop() called on cx1-1-1-3.cx1.hpc.ic.ac.uk at Fri Sep  2 12:16:00 2016
Module time:
	user time   =      12.43 seconds =       0.21 minutes
	system time =       0.17 seconds =       0.00 minutes
	total time  =          5 seconds =       0.08 minutes
Total time:
	user time   =      44.61 seconds =       0.74 minutes
	system time =       0.56 seconds =       0.01 minutes
	total time  =         16 seconds =       0.27 minutes

*** tstart() called on cx1-1-1-3.cx1.hpc.ic.ac.uk
*** at Fri Sep  2 12:16:00 2016


         ------------------------------------------------------------
                                   SCF GRAD                          
                          Rob Parrish, Justin Turney,                
                       Andy Simmonett, and Alex Sokolov              
         ------------------------------------------------------------

  ==> Geometry <==

    Molecular point group: c1
    Full point group: C1

    Geometry (in Angstrom), charge = 0, multiplicity = 1:

       Center              X                  Y                   Z               Mass       
    ------------   -----------------  -----------------  -----------------  -----------------
           H          3.890352152848     0.359531018714    -0.161969946165     1.007825032070
           N          3.091131750957    -0.243239693846    -0.123826350944    14.003074004780
           C          1.864911955442     0.532409771252    -0.004276583438    12.000000000000
           H          3.212185073134    -0.834152873765     0.676825577594     1.007825032070
           C          0.645085400481    -0.382093912633    -0.043808301492    12.000000000000
           H          1.826081844628     1.219338580822    -0.844349515416     1.007825032070
           H          1.830068571518     1.143121772880     0.901246484298     1.007825032070
           C         -0.679186031592     0.380359662442     0.018667908238    12.000000000000
           H          0.694291546508    -0.972689521627    -0.953990491001     1.007825032070
           H          0.699301639727    -1.084756911926     0.787274608840     1.007825032070
           C         -1.901802309880    -0.538869830952     0.044336345771    12.000000000000
           H         -0.753579831876     1.042093922462    -0.842840328496     1.007825032070
           H         -0.693765110735     1.019975621192     0.899955786660     1.007825032070
           C         -3.224524319186     0.226266689855     0.065196499023    12.000000000000
           H         -1.877394400256    -1.193956000602    -0.823754398984     1.007825032070
           H         -1.845922966803    -1.186684798002     0.916532586252     1.007825032070
           H         -3.326984339630     0.856373894932    -0.813852073556     1.007825032070
           H         -4.071729066668    -0.452341559514     0.085725343043     1.007825032070
           H         -3.293036227791     0.867253891005     0.939757143071     1.007825032070

  Nuclear repulsion =  245.656653876168235

  ==> Basis Set <==

  Basis Set: 6-31G*
    Number of shells: 62
    Number of basis function: 116
    Number of Cartesian functions: 116
    Spherical Harmonics?: false
    Max angular momentum: 2

  ==> DFJKGrad: Density-Fitted SCF Gradients <==

    Gradient:                    1
    J tasked:                  Yes
    K tasked:                  Yes
    wK tasked:                  No
    OpenMP threads:              4
    Integrals threads:           4
    Memory (MB):              1430
    Schwarz Cutoff:          0E+00
    Fitting Condition:       1E-12

   => Auxiliary Basis Set <=

  Basis Set: 
    Number of shells: 261
    Number of basis function: 811
    Number of Cartesian functions: 811
    Spherical Harmonics?: false
    Max angular momentum: 3


  -Total Gradient:
     Atom            X                  Y                   Z
    ------   -----------------  -----------------  -----------------
       1        0.000001318094    -0.000001930912    -0.000026089998
       2       -0.000017892164     0.000010633321    -0.000023800366
       3       -0.000064899885    -0.000090446008    -0.000137317687
       4       -0.000018772723     0.000007309087    -0.000002775063
       5       -0.000351123652    -0.000664736298     0.000403437970
       6        0.000028115215     0.000063038678     0.000005826172
       7       -0.000047161398    -0.000079151778    -0.000007036075
       8        0.000380646708     0.000622067733     0.000516591610
       9        0.000364400958     0.000484179664    -0.000321173659
      10        0.000012961132    -0.000043044151     0.000059634434
      11        0.000083223667     0.000110044467    -0.000138750299
      12       -0.000429249626    -0.000476902898    -0.000340557191
      13        0.000034178497     0.000037791619     0.000100823167
      14       -0.000007392481     0.000011569845    -0.000092029579
      15       -0.000005736828    -0.000071850842     0.000017662547
      16        0.000030402560     0.000092369154     0.000010683518
      17       -0.000017789690     0.000012978765    -0.000001760954
      18        0.000000322407    -0.000003389079    -0.000014345887
      19        0.000024449215    -0.000020530364    -0.000009022660


*** tstop() called on cx1-1-1-3.cx1.hpc.ic.ac.uk at Fri Sep  2 12:16:05 2016
Module time:
	user time   =      17.89 seconds =       0.30 minutes
	system time =       0.18 seconds =       0.00 minutes
	total time  =          5 seconds =       0.08 minutes
Total time:
	user time   =      62.51 seconds =       1.04 minutes
	system time =       0.74 seconds =       0.01 minutes
	total time  =         21 seconds =       0.35 minutes
CURRENT ENERGY: -251.3516990735

			-----------------------------------------
			 OPTKING 2.0: for geometry optimizations 
			  - R.A. King,  Bethel University        
			-----------------------------------------

	Previous internal coordinate definitions found.
	---Fragment 1 Geometry and Gradient---
	 H           7.3517001294        0.6794151616       -0.3060788400
	 N           5.8413924500       -0.4596564060       -0.2339978913
	 C           3.5241728577        1.0061086581       -0.0080815715
	 H           6.0701500764       -1.5763204844        1.2790149814
	 C           1.2190347392       -0.7220528519       -0.0827856922
	 H           3.4507945826        2.3042159810       -1.5955893446
	 H           3.4583284046        2.1601870873        1.7031090335
	 C          -1.2834755930        0.7187755940        0.0352772340
	 H           1.3120208793       -1.8381168082       -1.8027807614
	 H           1.3214885834       -2.0498934843        1.4877334021
	 C          -3.5938855246       -1.0183164018        0.0837835512
	 H          -1.4240595015        1.9692721182       -1.5927373946
	 H          -1.3110260598        1.9274745863        1.7006699685
	 C          -6.0934678721        0.4275820768        0.1232035280
	 H          -3.5477612599       -2.2562498559       -1.5566702148
	 H          -3.4882888697       -2.2425092743        1.7319955799
	 H          -6.2870892503        1.6183121288       -1.5379575317
	 H          -7.6944528233       -0.8548016660        0.1619974210
	 H          -6.2229366162        1.6388723417        1.7758836318
	             0.0000013181       -0.0000019309       -0.0000260900
	            -0.0000178922        0.0000106333       -0.0000238004
	            -0.0000648999       -0.0000904460       -0.0001373177
	            -0.0000187727        0.0000073091       -0.0000027751
	            -0.0003511237       -0.0006647363        0.0004034380
	             0.0000281152        0.0000630387        0.0000058262
	            -0.0000471614       -0.0000791518       -0.0000070361
	             0.0003806467        0.0006220677        0.0005165916
	             0.0003644010        0.0004841797       -0.0003211737
	             0.0000129611       -0.0000430442        0.0000596344
	             0.0000832237        0.0001100445       -0.0001387503
	            -0.0004292496       -0.0004769029       -0.0003405572
	             0.0000341785        0.0000377916        0.0001008232
	            -0.0000073925        0.0000115698       -0.0000920296
	            -0.0000057368       -0.0000718508        0.0000176625
	             0.0000304026        0.0000923692        0.0000106835
	            -0.0000177897        0.0000129788       -0.0000017610
	             0.0000003224       -0.0000033891       -0.0000143459
	             0.0000244492       -0.0000205304       -0.0000090227

	---Fragment 1 Intrafragment Coordinates---
	 - Coordinate -           - BOHR/RAD -       - ANG/DEG -
	 R(1,2)           =         1.893069	       1.001769
	 R(2,3)           =         2.751184	       1.455864
	 R(2,4)           =         1.894327	       1.002435
	 R(3,5)           =         2.881976	       1.525076
	 R(3,6)           =         2.051986	       1.085864
	 R(3,7)           =         2.065044	       1.092774
	 R(5,8)           =         2.890066	       1.529357
	 R(5,9)           =         2.052469	       1.086120
	 R(5,10)          =         2.059172	       1.089667
	 R(8,11)          =         2.890992	       1.529847
	 R(8,12)          =         2.057653	       1.088863
	 R(8,13)          =         2.057971	       1.089032
	 R(11,14)         =         2.887921	       1.528222
	 R(11,15)         =         2.055650	       1.087803
	 R(11,16)         =         2.055821	       1.087894
	 R(14,17)         =         2.052994	       1.086398
	 R(14,18)         =         2.051625	       1.085673
	 R(14,19)         =         2.053129	       1.086469
	 B(1,2,3)         =         1.933194	     110.763836
	 B(1,2,4)         =         1.863729	     106.783823
	 B(2,3,5)         =         1.930584	     110.614341
	 B(2,3,6)         =         1.879297	     107.675758
	 B(2,3,7)         =         1.974308	     113.119507
	 B(3,2,4)         =         1.928564	     110.498576
	 B(3,5,8)         =         1.974230	     113.115050
	 B(3,5,9)         =         1.887623	     108.152806
	 B(3,5,10)        =         1.904040	     109.093457
	 B(5,3,6)         =         1.907826	     109.310378
	 B(5,3,7)         =         1.908261	     109.335307
	 B(5,8,11)        =         1.974834	     113.149669
	 B(5,8,12)        =         1.906909	     109.257819
	 B(5,8,13)        =         1.915012	     109.722123
	 B(6,3,7)         =         1.861258	     106.642211
	 B(8,5,9)         =         1.922561	     110.154652
	 B(8,5,10)        =         1.910713	     109.475796
	 B(8,11,14)       =         1.972628	     113.023232
	 B(8,11,15)       =         1.907656	     109.300643
	 B(8,11,16)       =         1.907314	     109.281059
	 B(9,5,10)        =         1.861107	     106.633587
	 B(11,8,12)       =         1.900577	     108.895069
	 B(11,8,13)       =         1.905645	     109.185403
	 B(11,14,17)      =         1.940107	     111.159936
	 B(11,14,18)      =         1.941988	     111.267699
	 B(11,14,19)      =         1.940082	     111.158527
	 B(12,8,13)       =         1.857113	     106.404740
	 B(14,11,15)      =         1.909032	     109.379452
	 B(14,11,16)      =         1.908850	     109.369067
	 B(15,11,16)      =         1.854635	     106.262778
	 B(17,14,18)      =         1.879932	     107.712161
	 B(17,14,19)      =         1.878839	     107.649531
	 B(18,14,19)      =         1.880040	     107.718335
	 D(1,2,3,5)       =         3.073157	     176.078922
	 D(1,2,3,6)       =         0.989484	      56.693235
	 D(1,2,3,7)       =        -1.062563	     -60.880395
	 D(2,3,5,8)       =        -3.099449	    -177.585367
	 D(2,3,5,9)       =        -0.965087	     -55.295406
	 D(2,3,5,10)      =         1.052723	      60.316561
	 D(3,5,8,11)      =        -3.095136	    -177.338212
	 D(3,5,8,12)      =         1.067536	      61.165301
	 D(3,5,8,13)      =        -0.962255	     -55.133166
	 D(4,2,3,5)       =        -1.148309	     -65.793254
	 D(4,2,3,6)       =         3.051203	     174.821059
	 D(4,2,3,7)       =         0.999156	      57.247430
	 D(5,8,11,14)     =        -3.112026	    -178.305977
	 D(5,8,11,15)     =        -0.981647	     -56.244203
	 D(5,8,11,16)     =         1.041258	      59.659664
	 D(6,3,5,8)       =        -1.033069	     -59.190494
	 D(6,3,5,9)       =         1.101293	      63.099467
	 D(6,3,5,10)      =         3.119103	     178.711433
	 D(7,3,5,8)       =         0.998407	      57.204493
	 D(7,3,5,9)       =         3.132769	     179.494454
	 D(7,3,5,10)      =        -1.132607	     -64.893580
	 D(8,11,14,17)    =         1.048899	      60.097475
	 D(8,11,14,18)    =        -3.139044	    -179.853998
	 D(8,11,14,19)    =        -1.043682	     -59.798602
	 D(9,5,8,11)      =         1.073316	      61.496485
	*D(9,5,8,12)      =        -1.047198	     -60.000002
	 D(9,5,8,13)      =        -3.076989	    -176.298469
	 D(10,5,8,11)     =        -0.967860	     -55.454305
	 D(10,5,8,12)     =        -3.088374	    -176.950792
	 D(10,5,8,13)     =         1.165020	      66.750741
	 D(12,8,11,14)    =        -0.987954	     -56.605567
	 D(12,8,11,15)    =         1.142426	      65.456207
	 D(12,8,11,16)    =        -3.117855	    -178.639925
	 D(13,8,11,14)    =         1.033056	      59.189730
	 D(13,8,11,15)    =        -3.119750	    -178.748496
	 D(13,8,11,16)    =        -1.096846	     -62.844629
	 D(15,11,14,17)   =        -1.080710	     -61.920101
	 D(15,11,14,18)   =         1.014532	      58.128426
	 D(15,11,14,19)   =         3.109894	     178.183822
	 D(16,11,14,17)   =        -3.105247	    -177.917538
	 D(16,11,14,18)   =        -1.010005	     -57.869012
	 D(16,11,14,19)   =         1.085357	      62.186385

	Current energy   :      -251.3516990735

	Energy change for the previous step:
		Projected    :        -0.0000044165
		Actual       :        -0.0000019072

	Performing BFGS update.
	Previous computed or guess Hessian on step 1.
	Steps to be used in Hessian update: 1
	Taking RFO optimization step.
	Going to follow RFO solution 1.
	Using RFO vector 1.
	Norm of target step-size    0.07127
	Projected energy change by RFO approximation:        -0.0000243444

	Back-transformation to cartesian coordinates...
	Successfully converged to displaced geometry.

	Back-transformation to cartesian coordinates to adjust frozen coordinates...
	Successfully converged to displaced geometry.

	--- Internal Coordinate Step in ANG or DEG, aJ/ANG or AJ/DEG ---
	 ---------------------------------------------------------------------------
	   Coordinate                Previous        Force       Change         New 
	   ----------                --------       ------       ------       ------
	    1 R(1,2)          =      1.001769    -0.000007    -0.000001     1.001768
	    2 R(2,3)          =      1.455864     0.000280     0.000027     1.455891
	    3 R(2,4)          =      1.002435     0.000072     0.000009     1.002444
	    4 R(3,5)          =      1.525076     0.001274     0.000154     1.525230
	    5 R(3,6)          =      1.085864    -0.000283    -0.000012     1.085853
	    6 R(3,7)          =      1.092774     0.000400     0.000024     1.092798
	    7 R(5,8)          =      1.529357    -0.000643    -0.000053     1.529305
	    8 R(5,9)          =      1.086120    -0.000184    -0.000030     1.086089
	    9 R(5,10)         =      1.089667    -0.000609    -0.000059     1.089608
	   10 R(8,11)         =      1.529847     0.001389     0.000168     1.530015
	   11 R(8,12)         =      1.088863    -0.000074    -0.000023     1.088841
	   12 R(8,13)         =      1.089032    -0.000851    -0.000076     1.088956
	   13 R(11,14)        =      1.528222     0.000008    -0.000001     1.528221
	   14 R(11,15)        =      1.087803    -0.000239    -0.000017     1.087786
	   15 R(11,16)        =      1.087894     0.000370     0.000027     1.087921
	   16 R(14,17)        =      1.086398    -0.000088    -0.000013     1.086385
	   17 R(14,18)        =      1.085673    -0.000013     0.000004     1.085678
	   18 R(14,19)        =      1.086469     0.000172     0.000019     1.086488
	   19 B(1,2,3)        =    110.763836    -0.000001    -0.003981   110.759856
	   20 B(1,2,4)        =    106.783823    -0.000001    -0.005617   106.778206
	   21 B(2,3,5)        =    110.614341     0.000002     0.004560   110.618901
	   22 B(2,3,6)        =    107.675758     0.000002     0.004733   107.680492
	   23 B(2,3,7)        =    113.119507    -0.000004    -0.010207   113.109300
	   24 B(3,2,4)        =    110.498576     0.000002     0.002962   110.501538
	   25 B(3,5,8)        =    113.115050    -0.000000    -0.002176   113.112874
	   26 B(3,5,9)        =    108.152806     0.000004     0.022114   108.174920
	   27 B(3,5,10)       =    109.093457    -0.000003    -0.018239   109.075218
	   28 B(5,3,6)        =    109.310378    -0.000005    -0.013189   109.297189
	   29 B(5,3,7)        =    109.335307     0.000005     0.015360   109.350667
	   30 B(5,8,11)       =    113.149669    -0.000001    -0.001955   113.147714
	   31 B(5,8,12)       =    109.257819    -0.000003    -0.001780   109.256039
	   32 B(5,8,13)       =    109.722123     0.000001    -0.014439   109.707684
	   33 B(6,3,7)        =    106.642211    -0.000000    -0.002220   106.639992
	   34 B(8,5,9)        =    110.154652    -0.000002    -0.004449   110.150203
	   35 B(8,5,10)       =    109.475796    -0.000001    -0.010579   109.465217
	   36 B(8,11,14)      =    113.023232    -0.000001    -0.000285   113.022946
	   37 B(8,11,15)      =    109.300643    -0.000003    -0.006511   109.294132
	   38 B(8,11,16)      =    109.281059     0.000005     0.013305   109.294364
	   39 B(9,5,10)       =    106.633587     0.000002     0.014527   106.648114
	   40 B(11,8,12)      =    108.895069     0.000008     0.045923   108.940992
	   41 B(11,8,13)      =    109.185403    -0.000005    -0.033610   109.151793
	   42 B(11,14,17)     =    111.159936    -0.000003    -0.006039   111.153897
	   43 B(11,14,18)     =    111.267699     0.000000     0.000705   111.268404
	   44 B(11,14,19)     =    111.158527     0.000003     0.007152   111.165679
	   45 B(12,8,13)      =    106.404740     0.000001     0.006905   106.411645
	   46 B(14,11,15)     =    109.379452     0.000003     0.008852   109.388304
	   47 B(14,11,16)     =    109.369067    -0.000004    -0.013747   109.355321
	   48 B(15,11,16)     =    106.262778    -0.000000    -0.001699   106.261079
	   49 B(17,14,18)     =    107.712161     0.000001     0.001319   107.713480
	   50 B(17,14,19)     =    107.649531    -0.000000    -0.000478   107.649053
	   51 B(18,14,19)     =    107.718335    -0.000002    -0.002773   107.715562
	   52 D(1,2,3,5)      =    176.078922    -0.000000     0.040449   176.119371
	   53 D(1,2,3,6)      =     56.693235     0.000000     0.050941    56.744176
	   54 D(1,2,3,7)      =    -60.880395     0.000001     0.056557   -60.823838
	   55 D(2,3,5,8)      =   -177.585367    -0.000001    -0.353950  -177.939317
	   56 D(2,3,5,9)      =    -55.295406    -0.000001    -0.345283   -55.640689
	   57 D(2,3,5,10)     =     60.316561    -0.000000    -0.325791    59.990770
	   58 D(3,5,8,11)     =   -177.338212     0.000003     0.079865  -177.258347
	   59 D(3,5,8,12)     =     61.165301     0.000001     0.023742    61.189042
	   60 D(3,5,8,13)     =    -55.133166     0.000001     0.024631   -55.108536
	   61 D(4,2,3,5)      =    -65.793254    -0.000001     0.032857   -65.760397
	   62 D(4,2,3,6)      =    174.821059     0.000000     0.043349   174.864408
	   63 D(4,2,3,7)      =     57.247430     0.000000     0.048965    57.296394
	   64 D(5,8,11,14)    =   -178.305977    -0.000002    -1.340727  -179.646704
	   65 D(5,8,11,15)    =    -56.244203    -0.000001    -1.334270   -57.578473
	   66 D(5,8,11,16)    =     59.659664    -0.000001    -1.332505    58.327159
	   67 D(6,3,5,8)      =    -59.190494    -0.000001    -0.353541   -59.544035
	   68 D(6,3,5,9)      =     63.099467    -0.000001    -0.344874    62.754593
	   69 D(6,3,5,10)     =    178.711433     0.000000    -0.325382   178.386051
	   70 D(7,3,5,8)      =     57.204493    -0.000001    -0.354986    56.849507
	   71 D(7,3,5,9)      =    179.494454    -0.000001    -0.346320   179.148134
	   72 D(7,3,5,10)     =    -64.893580     0.000000    -0.326827   -65.220407
	   73 D(8,11,14,17)   =     60.097475    -0.000000     0.107261    60.204737
	   74 D(8,11,14,18)   =   -179.853998    -0.000000     0.105339  -179.748659
	   75 D(8,11,14,19)   =    -59.798602    -0.000000     0.107121   -59.691481
	   76 D(9,5,8,11)     =     61.496485     0.000002     0.056124    61.552609
	   77 *D(9,5,8,12)    =    -60.000002    -0.000000     0.000000   -60.000002
	   78 D(9,5,8,13)     =   -176.298469     0.000000     0.000889  -176.297580
	   79 D(10,5,8,11)    =    -55.454305     0.000002     0.047334   -55.406970
	   80 D(10,5,8,12)    =   -176.950792    -0.000000    -0.008789  -176.959581
	   81 D(10,5,8,13)    =     66.750741    -0.000000    -0.007900    66.742841
	   82 D(12,8,11,14)   =    -56.605567    -0.000001    -1.311495   -57.917061
	   83 D(12,8,11,15)   =     65.456207    -0.000001    -1.305038    64.151170
	   84 D(12,8,11,16)   =   -178.639925    -0.000001    -1.303273  -179.943198
	   85 D(13,8,11,14)   =     59.189730    -0.000001    -1.296363    57.893366
	   86 D(13,8,11,15)   =   -178.748496    -0.000000    -1.289906  -180.038403
	   87 D(13,8,11,16)   =    -62.844629    -0.000000    -1.288142   -64.132771
	   88 D(15,11,14,17)  =    -61.920101     0.000000     0.109419   -61.810682
	   89 D(15,11,14,18)  =     58.128426     0.000000     0.107497    58.235923
	   90 D(15,11,14,19)  =    178.183822     0.000000     0.109279   178.293101
	   91 D(16,11,14,17)  =   -177.917538     0.000000     0.114215  -177.803323
	   92 D(16,11,14,18)  =    -57.869012     0.000000     0.112293   -57.756719
	   93 D(16,11,14,19)  =     62.186385     0.000000     0.114074    62.300459
	 ---------------------------------------------------------------------------

  ==> Convergence Check <==

  Measures of convergence in internal coordinates in au.
  Criteria marked as inactive (o), active & met (*), and active & unmet ( ).
  ---------------------------------------------------------------------------------------------
   Step     Total Energy     Delta E     MAX Force     RMS Force      MAX Disp      RMS Disp   
  ---------------------------------------------------------------------------------------------
    Convergence Criteria    1.00e-06 *    3.00e-04 *             o    1.20e-03 *             o
  ---------------------------------------------------------------------------------------------
      2    -251.35169907   -1.91e-06      1.69e-04 *    4.89e-05 o    2.34e-02      7.39e-03 o  ~
  ---------------------------------------------------------------------------------------------

	Writing optimization data to binary file.
	Structure for next step:
	Cartesian Geometry (in Angstrom)
	    H     3.8917064029   0.3576267796  -0.1470589436
	    N     3.0921347789  -0.2447206039  -0.1096153640
	    C     1.8651070734   0.5321843681  -0.0074426667
	    H     3.2066998519  -0.8278727730   0.6976651475
	    C     0.6453065768  -0.3826070267  -0.0470712004
	    H     1.8326848909   1.2104172444  -0.8548066196
	    H     1.8236493467   1.1522495732   0.8914502199
	    C    -0.6791144814   0.3801875210   0.0060927306
	    H     0.6978692532  -0.9782527281  -0.9537317887
	    H     0.6962161334  -1.0803912557   0.7882439714
	    C    -1.9019176280  -0.5390184482   0.0336444016
	    H    -0.7501724021   1.0370586798  -0.8593810209
	    H    -0.6967576103   1.0246144129   0.8837188514
	    C    -3.2240019688   0.2262111605   0.0780866985
	    H    -1.8869555602  -1.1834452068  -0.8425796968
	    H    -1.8372432085  -1.1975100171   0.8972290560
	    H    -3.3363708177   0.8656112843  -0.7929889815
	    H    -4.0711902430  -0.4523393647   0.1012679729
	    H    -3.2821653563   0.8579361808   0.9601275808
			--------------------------
			 OPTKING Finished Execution 
			--------------------------

    Structure for next step:
    Molecular point group: c1
    Full point group: C1

    Geometry (in Angstrom), charge = 0, multiplicity = 1:

    H            3.891443537671     0.357988372663    -0.147058265673
    N            3.091871974720    -0.244358964852    -0.109614688898
    C            1.864844362954     0.532545947841    -0.007441999462
    H            3.206437039033    -0.827511089397     0.697665760928
    C            0.645043959515    -0.382245377136    -0.047070530072
    H            1.832422182944     1.210778772301    -0.854805887645
    H            1.823386639415     1.152611105549     0.891450818497
    C           -0.679376997619     0.380549112328     0.006093396838
    H            0.697606631912    -0.977891033021    -0.953731049183
    H            0.695953512208    -1.080029552840     0.788244577857
    C           -1.902180050820    -0.538656786689     0.033645065777
    H           -0.750434912882     1.037420220982    -0.859380288612
    H           -0.697020125130     1.024975955027     0.883719450663
    C           -3.224264290633     0.226572763576     0.078087359234
    H           -1.887217984125    -1.183083496027    -0.842578965747
    H           -1.837505636245    -1.197148305333     0.897229654228
    H           -3.336633130963     0.865972838546    -0.792988254212
    H           -4.071452500104    -0.451977709763     0.101268631881
    H           -3.282427673718     0.858297735634     0.960128174140

gradient() will perform analytic gradient computation.

*** tstart() called on cx1-1-1-3.cx1.hpc.ic.ac.uk
*** at Fri Sep  2 12:16:05 2016


         ---------------------------------------------------------
                                   SCF
            by Justin Turney, Rob Parrish, and Andy Simmonett
                              RHF Reference
                        4 Threads,   2000 MiB Core
         ---------------------------------------------------------

  ==> Geometry <==

    Molecular point group: c1
    Full point group: C1

    Geometry (in Angstrom), charge = 0, multiplicity = 1:

       Center              X                  Y                   Z               Mass       
    ------------   -----------------  -----------------  -----------------  -----------------
           H          3.891443537671     0.357988372663    -0.147058265673     1.007825032070
           N          3.091871974720    -0.244358964852    -0.109614688898    14.003074004780
           C          1.864844362954     0.532545947841    -0.007441999462    12.000000000000
           H          3.206437039033    -0.827511089397     0.697665760928     1.007825032070
           C          0.645043959515    -0.382245377136    -0.047070530072    12.000000000000
           H          1.832422182944     1.210778772301    -0.854805887645     1.007825032070
           H          1.823386639415     1.152611105549     0.891450818497     1.007825032070
           C         -0.679376997619     0.380549112328     0.006093396838    12.000000000000
           H          0.697606631912    -0.977891033021    -0.953731049183     1.007825032070
           H          0.695953512208    -1.080029552840     0.788244577857     1.007825032070
           C         -1.902180050820    -0.538656786689     0.033645065777    12.000000000000
           H         -0.750434912882     1.037420220982    -0.859380288612     1.007825032070
           H         -0.697020125130     1.024975955027     0.883719450663     1.007825032070
           C         -3.224264290633     0.226572763576     0.078087359234    12.000000000000
           H         -1.887217984125    -1.183083496027    -0.842578965747     1.007825032070
           H         -1.837505636245    -1.197148305333     0.897229654228     1.007825032070
           H         -3.336633130963     0.865972838546    -0.792988254212     1.007825032070
           H         -4.071452500104    -0.451977709763     0.101268631881     1.007825032070
           H         -3.282427673718     0.858297735634     0.960128174140     1.007825032070

  Running in c1 symmetry.

  Rotational constants: A =      0.51640  B =      0.03806  C =      0.03673 [cm^-1]
  Rotational constants: A =  15481.33795  B =   1140.86938  C =   1101.17905 [MHz]
  Nuclear repulsion =  245.650894365490558

  Charge       = 0
  Multiplicity = 1
  Electrons    = 50
  Nalpha       = 25
  Nbeta        = 25

  ==> Algorithm <==

  SCF Algorithm Type is DF.
  DIIS enabled.
  MOM disabled.
  Fractional occupation disabled.
  Guess Type is READ.
  Energy threshold   = 1.00e-08
  Density threshold  = 1.00e-08
  Integral threshold = 0.00e+00

  ==> Primary Basis <==

  Basis Set: 6-31G*
    Number of shells: 62
    Number of basis function: 116
    Number of Cartesian functions: 116
    Spherical Harmonics?: false
    Max angular momentum: 2

  ==> Pre-Iterations <==

   -------------------------------------------------------
    Irrep   Nso     Nmo     Nalpha   Nbeta   Ndocc  Nsocc
   -------------------------------------------------------
     A        116     116       0       0       0       0
   -------------------------------------------------------
    Total     116     116      25      25      25       0
   -------------------------------------------------------

 OEINTS: Overlap, kinetic, potential, dipole, and quadrupole integrals
         stored in file 35.

  ==> Integral Setup <==

  ==> DFJK: Density-Fitted J/K Matrices <==

    J tasked:                  Yes
    K tasked:                  Yes
    wK tasked:                  No
    OpenMP threads:              4
    Integrals threads:           4
    Memory (MB):              1430
    Algorithm:                Core
    Integral Cache:           NONE
    Schwarz Cutoff:          1E-12
    Fitting Condition:       1E-12

   => Auxiliary Basis Set <=

  Basis Set: 
    Number of shells: 261
    Number of basis function: 811
    Number of Cartesian functions: 811
    Spherical Harmonics?: false
    Max angular momentum: 3

  Minimum eigenvalue in the overlap matrix is 3.1615778507E-03.
  Using Symmetric Orthogonalization.
  SCF Guess: Reading in previously saved MOs, projecting if necessary.

  Using orbitals from previous SCF, no projection.
  Recomputing DOCC and SOCC from number of alpha and beta electrons from previous calculation.
              A 
    DOCC [    25 ]

  ==> Iterations <==

                           Total Energy        Delta E     RMS |[F,P]|

   @DF-RHF iter   0:  -251.35140525593891   -2.51351e+02   2.16891e-04 
   @DF-RHF iter   1:  -251.35167795543998   -2.72700e-04   4.19321e-05 
   @DF-RHF iter   2:  -251.35170053001508   -2.25746e-05   1.37447e-05 DIIS
   @DF-RHF iter   3:  -251.35170360557379   -3.07556e-06   2.29785e-06 DIIS
   @DF-RHF iter   4:  -251.35170365970885   -5.41351e-08   7.62124e-07 DIIS
   @DF-RHF iter   5:  -251.35170367047601   -1.07672e-08   2.00494e-07 DIIS
   @DF-RHF iter   6:  -251.35170367127751   -8.01492e-10   6.71598e-08 DIIS
   @DF-RHF iter   7:  -251.35170367136413   -8.66294e-11   1.77282e-08 DIIS
   @DF-RHF iter   8:  -251.35170367136931   -5.17275e-12   3.68300e-09 DIIS

  ==> Post-Iterations <==

    Orbital Energies (a.u.)
    -----------------------

    Doubly Occupied:                                                      

       1A    -15.532465     2A    -11.239685     3A    -11.213930  
       4A    -11.212756     5A    -11.209466     6A    -11.207497  
       7A     -1.176570     8A     -1.072951     9A     -0.998373  
      10A     -0.900165    11A     -0.812851    12A     -0.789210  
      13A     -0.664831    14A     -0.642163    15A     -0.616472  
      16A     -0.589055    17A     -0.564209    18A     -0.548196  
      19A     -0.530756    20A     -0.498050    21A     -0.481045  
[...]
	 R(3,6)           =         2.051924	       1.085831
	 R(3,7)           =         2.065140	       1.092825
	 R(5,8)           =         2.889910	       1.529275
	 R(5,9)           =         2.052418	       1.086093
	 R(5,10)          =         2.058947	       1.089548
	 R(8,11)          =         2.891462	       1.530096
	 R(8,12)          =         2.057599	       1.088834
	 R(8,13)          =         2.057730	       1.088904
	 R(11,14)         =         2.887926	       1.528225
	 R(11,15)         =         2.055586	       1.087769
	 R(11,16)         =         2.055911	       1.087941
	 R(14,17)         =         2.052991	       1.086396
	 R(14,18)         =         2.051628	       1.085675
	 R(14,19)         =         2.053156	       1.086483
	 B(1,2,3)         =         1.933081	     110.757355
	 B(1,2,4)         =         1.863589	     106.775804
	 B(2,3,5)         =         1.930636	     110.617288
	 B(2,3,6)         =         1.879351	     107.678902
	 B(2,3,7)         =         1.974128	     113.109190
	 B(3,2,4)         =         1.928603	     110.500825
	 B(3,5,8)         =         1.974233	     113.115232
	 B(3,5,9)         =         1.888653	     108.211826
	 B(3,5,10)        =         1.903507	     109.062899
	 B(5,3,6)         =         1.907414	     109.286776
	 B(5,3,7)         =         1.908751	     109.363350
	 B(5,8,11)        =         1.974894	     113.153113
	 B(5,8,12)        =         1.906924	     109.258717
	 B(5,8,13)        =         1.914476	     109.691417
	 B(6,3,7)         =         1.861224	     106.640277
	 B(8,5,9)         =         1.922673	     110.161069
	 B(8,5,10)        =         1.910095	     109.440356
	 B(8,11,14)       =         1.972588	     113.020940
	 B(8,11,15)       =         1.907254	     109.277628
	 B(8,11,16)       =         1.907865	     109.312611
	 B(9,5,10)        =         1.861124	     106.634577
	 B(11,8,12)       =         1.901925	     108.972286
	 B(11,8,13)       =         1.904890	     109.142185
	 B(11,14,17)      =         1.940058	     111.157122
	 B(11,14,18)      =         1.941993	     111.268005
	 B(11,14,19)      =         1.940188	     111.164587
	 B(12,8,13)       =         1.856982	     106.397218
	 B(14,11,15)      =         1.909077	     109.382045
	 B(14,11,16)      =         1.908725	     109.361893
	 B(15,11,16)      =         1.854607	     106.261160
	 B(17,14,18)      =         1.879938	     107.712506
	 B(17,14,19)      =         1.878820	     107.648458
	 B(18,14,19)      =         1.879987	     107.715293
	 D(1,2,3,5)       =         3.074054	     176.130325
	 D(1,2,3,6)       =         0.990818	      56.769679
	 D(1,2,3,7)       =        -1.061118	     -60.797593
	 D(2,3,5,8)       =        -3.109536	    -178.163308
	 D(2,3,5,9)       =        -0.974295	     -55.822998
	 D(2,3,5,10)      =         1.043809	      59.805874
	 D(3,5,8,11)      =        -3.091952	    -177.155828
	 D(3,5,8,12)      =         1.068944	      61.245987
	 D(3,5,8,13)      =        -0.960394	     -55.026540
	 D(4,2,3,5)       =        -1.147631	     -65.754434
	 D(4,2,3,6)       =         3.052318	     174.884920
	 D(4,2,3,7)       =         1.000382	      57.317648
	 D(5,8,11,14)     =        -3.128585	    -179.254727
	 D(5,8,11,15)     =        -0.998464	     -57.207768
	 D(5,8,11,16)     =         1.024490	      58.698932
	 D(6,3,5,8)       =        -1.043312	     -59.777368
	 D(6,3,5,9)       =         1.091929	      62.562942
	 D(6,3,5,10)      =         3.110034	     178.191814
	 D(7,3,5,8)       =         0.988167	      56.617792
	 D(7,3,5,9)       =         3.123408	     178.958101
	 D(7,3,5,10)      =        -1.141673	     -65.413026
	 D(8,11,14,17)    =         1.046179	      59.941629
	 D(8,11,14,18)    =         3.141399	     179.988903
	 D(8,11,14,19)    =        -1.046417	     -59.955264
	 D(9,5,8,11)      =         1.075091	      61.598182
	*D(9,5,8,12)      =        -1.047198	     -60.000002
	 D(9,5,8,13)      =        -3.076536	    -176.272529
	 D(10,5,8,11)     =        -0.965806	     -55.336592
	 D(10,5,8,12)     =        -3.088094	    -176.934777
	 D(10,5,8,13)     =         1.165752	      66.792697
	 D(12,8,11,14)    =        -1.003489	     -57.495672
	 D(12,8,11,15)    =         1.126632	      64.551287
	 D(12,8,11,16)    =        -3.133599	    -179.542013
	 D(13,8,11,14)    =         1.017693	      58.309537
	 D(13,8,11,15)    =        -3.135371	    -179.643505
	 D(13,8,11,16)    =        -1.112417	     -63.736804
	 D(15,11,14,17)   =        -1.082920	     -62.046754
	 D(15,11,14,18)   =         1.012300	      58.000521
	 D(15,11,14,19)   =         3.107670	     178.056353
	 D(16,11,14,17)   =        -3.107378	    -178.039671
	 D(16,11,14,18)   =        -1.012158	     -57.992397
	 D(16,11,14,19)   =         1.083211	      62.063436

	Current energy   :      -251.3517045601

	Energy change for the previous step:
		Projected    :        -0.0000042648
		Actual       :        -0.0000008888
	Energy ratio indicates iffy step: Trust radius decreased to 3.125e-02.


	Performing BFGS update.
	Previous computed or guess Hessian on step 1.
	Steps to be used in Hessian update: 3 2
	Taking RFO optimization step.
	Going to follow RFO solution 1.
	Using RFO vector 1.
	Norm of target step-size    0.00906
	Projected energy change by RFO approximation:        -0.0000008903

	Back-transformation to cartesian coordinates...
	Successfully converged to displaced geometry.

	Back-transformation to cartesian coordinates to adjust frozen coordinates...
	Successfully converged to displaced geometry.

	--- Internal Coordinate Step in ANG or DEG, aJ/ANG or AJ/DEG ---
	 ---------------------------------------------------------------------------
	   Coordinate                Previous        Force       Change         New 
	   ----------                --------       ------       ------       ------
	    1 R(1,2)          =      1.001769     0.000025     0.000003     1.001772
	    2 R(2,3)          =      1.455895    -0.000065    -0.000011     1.455884
	    3 R(2,4)          =      1.002444    -0.000025    -0.000004     1.002440
	    4 R(3,5)          =      1.525317    -0.000059    -0.000011     1.525305
	    5 R(3,6)          =      1.085831    -0.000015    -0.000007     1.085824
	    6 R(3,7)          =      1.092825    -0.000017     0.000002     1.092827
	    7 R(5,8)          =      1.529275     0.000071     0.000008     1.529283
	    8 R(5,9)          =      1.086093    -0.000019     0.000002     1.086095
	    9 R(5,10)         =      1.089548     0.000001    -0.000004     1.089544
	   10 R(8,11)         =      1.530096    -0.000104    -0.000021     1.530075
	   11 R(8,12)         =      1.088834    -0.000006     0.000003     1.088838
	   12 R(8,13)         =      1.088904    -0.000004    -0.000004     1.088900
	   13 R(11,14)        =      1.528225    -0.000003     0.000001     1.528226
	   14 R(11,15)        =      1.087769     0.000047     0.000005     1.087774
	   15 R(11,16)        =      1.087941    -0.000067    -0.000007     1.087934
	   16 R(14,17)        =      1.086396     0.000004     0.000004     1.086400
	   17 R(14,18)        =      1.085675    -0.000013    -0.000004     1.085671
	   18 R(14,19)        =      1.086483     0.000000    -0.000002     1.086481
	   19 B(1,2,3)        =    110.757355     0.000000     0.000967   110.758323
	   20 B(1,2,4)        =    106.775804     0.000000     0.001603   106.777407
	   21 B(2,3,5)        =    110.617288    -0.000001    -0.005121   110.612166
	   22 B(2,3,6)        =    107.678902    -0.000000    -0.003390   107.675512
	   23 B(2,3,7)        =    113.109190     0.000001     0.006688   113.115879
	   24 B(3,2,4)        =    110.500825    -0.000001    -0.002638   110.498188
	   25 B(3,5,8)        =    113.115232    -0.000001     0.004175   113.119407
	   26 B(3,5,9)        =    108.211826     0.000001     0.018959   108.230785
	   27 B(3,5,10)       =    109.062899     0.000000     0.001281   109.064179
	   28 B(5,3,6)        =    109.286776     0.000000    -0.001941   109.284836
	   29 B(5,3,7)        =    109.363350    -0.000000     0.001419   109.364770
	   30 B(5,8,11)       =    113.153113    -0.000000     0.003487   113.156600
	   31 B(5,8,12)       =    109.258717     0.000002     0.014270   109.272987
	   32 B(5,8,13)       =    109.691417    -0.000001    -0.015061   109.676356
	   33 B(6,3,7)        =    106.640277    -0.000000     0.002295   106.642572
	   34 B(8,5,9)        =    110.161069    -0.000000     0.003501   110.164569
	   35 B(8,5,10)       =    109.440356     0.000000    -0.007682   109.432674
	   36 B(8,11,14)      =    113.020940    -0.000000    -0.001481   113.019460
	   37 B(8,11,15)      =    109.277628     0.000001     0.005713   109.283341
	   38 B(8,11,16)      =    109.312611    -0.000001    -0.009550   109.303061
	   39 B(9,5,10)       =    106.634577    -0.000001    -0.021617   106.612959
	   40 B(11,8,12)      =    108.972286    -0.000001     0.008550   108.980836
	   41 B(11,8,13)      =    109.142185     0.000001     0.004880   109.147064
	   42 B(11,14,17)     =    111.157122    -0.000000    -0.000341   111.156781
	   43 B(11,14,18)     =    111.268005    -0.000000    -0.000431   111.267574
	   44 B(11,14,19)     =    111.164587     0.000000     0.001027   111.165614
	   45 B(12,8,13)      =    106.397218    -0.000000    -0.017328   106.379889
	   46 B(14,11,15)     =    109.382045     0.000000     0.005643   109.387688
	   47 B(14,11,16)     =    109.361893     0.000000    -0.001697   109.360196
	   48 B(15,11,16)     =    106.261160     0.000000     0.001557   106.262717
	   49 B(17,14,18)     =    107.712506     0.000000    -0.000027   107.712479
	   50 B(17,14,19)     =    107.648458    -0.000000    -0.000154   107.648305
	   51 B(18,14,19)     =    107.715293    -0.000000    -0.000089   107.715204
	   52 D(1,2,3,5)      =    176.130325    -0.000000    -0.015916   176.114409
	   53 D(1,2,3,6)      =     56.769679     0.000000    -0.008532    56.761147
	   54 D(1,2,3,7)      =    -60.797593    -0.000000    -0.013062   -60.810654
	   55 D(2,3,5,8)      =   -178.163308     0.000000     0.091052  -178.072256
	   56 D(2,3,5,9)      =    -55.822998     0.000000     0.111794   -55.711204
	   57 D(2,3,5,10)     =     59.805874     0.000000     0.097144    59.903018
	   58 D(3,5,8,11)     =   -177.155828     0.000000     0.053329  -177.102500
	   59 D(3,5,8,12)     =     61.245987     0.000000     0.029805    61.275792
	   60 D(3,5,8,13)     =    -55.026540     0.000000     0.051036   -54.975504
	   61 D(4,2,3,5)      =    -65.754434    -0.000000    -0.014984   -65.769417
	   62 D(4,2,3,6)      =    174.884920     0.000000    -0.007599   174.877321
	   63 D(4,2,3,7)      =     57.317648    -0.000000    -0.012129    57.305519
	   64 D(5,8,11,14)    =   -179.254727    -0.000000    -0.040238  -179.294964
	   65 D(5,8,11,15)    =    -57.207768    -0.000000    -0.029898   -57.237667
	   66 D(5,8,11,16)    =     58.698932    -0.000000    -0.030177    58.668755
	   67 D(6,3,5,8)      =    -59.777368     0.000000     0.082622   -59.694746
	   68 D(6,3,5,9)      =     62.562942     0.000000     0.103364    62.666305
	   69 D(6,3,5,10)     =    178.191814    -0.000000     0.088714   178.280528
	   70 D(7,3,5,8)      =     56.617792     0.000000     0.085082    56.702874
	   71 D(7,3,5,9)      =    178.958101     0.000000     0.105824   179.063925
	   72 D(7,3,5,10)     =    -65.413026     0.000000     0.091174   -65.321852
	   73 D(8,11,14,17)   =     59.941629     0.000000     0.144065    60.085694
	   74 D(8,11,14,18)   =    179.988903     0.000000     0.143512   180.132415
	   75 D(8,11,14,19)   =    -59.955264     0.000000     0.143801   -59.811464
	   76 D(9,5,8,11)     =     61.598182    -0.000000     0.023523    61.621706
	   77 *D(9,5,8,12)    =    -60.000002    -0.000000    -0.000000   -60.000002
	   78 D(9,5,8,13)     =   -176.272529     0.000000     0.021231  -176.251298
	   79 D(10,5,8,11)    =    -55.336592     0.000000     0.052269   -55.284323
	   80 D(10,5,8,12)    =   -176.934777     0.000000     0.028746  -176.906031
	   81 D(10,5,8,13)    =     66.792697     0.000000     0.049977    66.842673
	   82 D(12,8,11,14)   =    -57.495672    -0.000000    -0.013557   -57.509229
	   83 D(12,8,11,15)   =     64.551287     0.000000    -0.003218    64.548069
	   84 D(12,8,11,16)   =   -179.542013     0.000000    -0.003496  -179.545509
	   85 D(13,8,11,14)   =     58.309537    -0.000000    -0.026825    58.282712
	   86 D(13,8,11,15)   =   -179.643505     0.000000    -0.016486  -179.659991
	   87 D(13,8,11,16)   =    -63.736804     0.000000    -0.016765   -63.753569
	   88 D(15,11,14,17)  =    -62.046754     0.000000     0.133682   -61.913072
	   89 D(15,11,14,18)  =     58.000521     0.000000     0.133128    58.133649
	   90 D(15,11,14,19)  =    178.056353     0.000000     0.133417   178.189770
	   91 D(16,11,14,17)  =   -178.039671    -0.000000     0.129594  -177.910077
	   92 D(16,11,14,18)  =    -57.992397    -0.000000     0.129041   -57.863356
	   93 D(16,11,14,19)  =     62.063436    -0.000000     0.129330    62.192765
	 ---------------------------------------------------------------------------

  ==> Convergence Check <==

  Measures of convergence in internal coordinates in au.
  Criteria marked as inactive (o), active & met (*), and active & unmet ( ).
  ---------------------------------------------------------------------------------------------
   Step     Total Energy     Delta E     MAX Force     RMS Force      MAX Disp      RMS Disp   
  ---------------------------------------------------------------------------------------------
    Convergence Criteria    1.00e-06 *    3.00e-04 *             o    1.20e-03 *             o
  ---------------------------------------------------------------------------------------------
      4    -251.35170456   -8.89e-07 *    2.32e-05 *    7.39e-06 o    2.51e-03      9.39e-04 o  ~
  ---------------------------------------------------------------------------------------------


  **** Optimization is complete! (in 4 steps) ****

  ==> Optimization Summary <==

  Measures of convergence in internal coordinates in au.
  --------------------------------------------------------------------------------------------------------------- ~
   Step         Total Energy             Delta E       MAX Force       RMS Force        MAX Disp        RMS Disp  ~
  --------------------------------------------------------------------------------------------------------------- ~
      1    -251.351697166338   -251.351697166338      0.00022139      0.00005651      0.02677582      0.00956001  ~
      2    -251.351699073517     -0.000001907179      0.00016854      0.00004892      0.02340010      0.00738992  ~
      3    -251.351703671369     -0.000004597853      0.00006003      0.00001972      0.00735464      0.00278535  ~
      4    -251.351704560147     -0.000000888778      0.00002321      0.00000739      0.00251441      0.00093904  ~
  --------------------------------------------------------------------------------------------------------------- ~

	Writing optimization data to binary file.
	Final energy is   -251.3517045601472
	Final (previous) structure:
	Cartesian Geometry (in Angstrom)
	    H     3.8916154614   0.3578662998  -0.1462589507
	    N     3.0919406201  -0.2444044187  -0.1097657933
	    C     1.8649283999   0.5326630229  -0.0085850959
	    H     3.2056551441  -0.8277290260   0.6975104942
	    C     0.6449921470  -0.3820395481  -0.0493924905
	    H     1.8332456668   1.2107877755  -0.8560359766
	    H     1.8228848055   1.1528505787   0.8902286443
	    C    -0.6793468917   0.3805176575   0.0081753531
	    H     0.6960064924  -0.9755942056  -0.9575158494
	    H     0.6969620451  -1.0819359800   0.7840093235
	    C    -1.9021451186  -0.5387881595   0.0370585499
	    H    -0.7521869399   1.0394520700  -0.8555724612
	    H    -0.6948505739   1.0230583658   0.8871593068
	    C    -3.2243787881   0.2264771515   0.0762855740
	    H    -1.8854963393  -1.1861186806  -0.8369712595
	    H    -1.8390240824  -1.1944046564   0.9029678632
	    H    -3.3332505012   0.8660718250  -0.7951052503
	    H    -4.0716677268  -0.4520549264   0.0959142438
	    H    -3.2860844412   0.8580183605   0.9582118458
	Saving final (previous) structure.
			--------------------------
			 OPTKING Finished Execution 
			--------------------------

    Final optimized geometry and variables:
    Molecular point group: c1
    Full point group: C1

    Geometry (in Angstrom), charge = 0, multiplicity = 1:

    H            3.891615164204     0.357866272495    -0.146258939538
    N            3.091940383944    -0.244404400024    -0.109765784913
    C            1.864928257513     0.532662982208    -0.008585095244
    H            3.205654899300    -0.827728962827     0.697510440920
    C            0.644992097730    -0.382039518963    -0.049392486728
    H            1.833245526822     1.210787683018    -0.856035911203
    H            1.822884666329     1.152850490709     0.890228576279
    C           -0.679346839776     0.380517628483     0.008175352512
    H            0.696006439297    -0.975594131052    -0.957515776329
    H            0.696961991860    -1.081935897411     0.784009263661
    C           -1.902144973385    -0.538788118371     0.037058547059
    H           -0.752186882484     1.039451990615    -0.855572395910
    H           -0.694850520841     1.023058287685     0.887159239063
    C           -3.224378541898     0.226477134166     0.076285568168
    H           -1.885496195295    -1.186118590062    -0.836971195610
    H           -1.839023941932    -1.194404565203     0.902967794209
    H           -3.333250246669     0.866071758890    -0.795105189618
    H           -4.071667415866    -0.452054891910     0.095914236470
    H           -3.286084190222     0.858018294996     0.958211772606

	Cleaning optimization helper files.


Properties will be evaluated at   0.000000,   0.000000,   0.000000 Bohr

Properties computed using the  density matrix

  Nuclear Dipole Moment: (a.u.)
     X:    -3.4928      Y:     0.7416      Z:     0.7208

  Electronic Dipole Moment: (a.u.)
     X:     3.5505      Y:    -0.4535      Z:    -0.2626

  Dipole Moment: (a.u.)
     X:     0.0578      Y:     0.2881      Z:     0.4582     Total:     0.5443

  Dipole Moment: (Debye)
     X:     0.1468      Y:     0.7322      Z:     1.1645     Total:     1.3834

  Quadrupole Moment: (Debye Ang)
    XX:   -39.6823     YY:   -41.2840     ZZ:   -40.7525
    XY:     2.9761     XZ:     4.1398     YZ:    -1.6891

  Traceless Quadrupole Moment: (Debye Ang)
    XX:     0.8906     YY:    -0.7111     ZZ:    -0.1795
    XY:     2.9761     XZ:     4.1398     YZ:    -1.6891

  Mulliken Charges: (a.u.)
   Center  Symbol    Alpha    Beta     Spin     Total
       1     H     0.33249  0.33249  0.00000  0.33503
       2     N     3.92191  3.92191  0.00000 -0.84382
       3     C     3.06024  3.06024  0.00000 -0.12049
       4     H     0.33538  0.33538  0.00000  0.32924
       5     C     3.15164  3.15164  0.00000 -0.30327
       6     H     0.42091  0.42091  0.00000  0.15818
       7     H     0.43478  0.43478  0.00000  0.13045
       8     C     3.15487  3.15487  0.00000 -0.30974
       9     H     0.41294  0.41294  0.00000  0.17413
      10     H     0.42770  0.42770  0.00000  0.14460
      11     C     3.15091  3.15091  0.00000 -0.30182
      12     H     0.42336  0.42336  0.00000  0.15328
      13     H     0.42486  0.42486  0.00000  0.15028
      14     C     3.23930  3.23930  0.00000 -0.47861
      15     H     0.42192  0.42192  0.00000  0.15617
      16     H     0.42336  0.42336  0.00000  0.15328
      17     H     0.42177  0.42177  0.00000  0.15646
      18     H     0.41938  0.41938  0.00000  0.16124
      19     H     0.42229  0.42229  0.00000  0.15541

   Total alpha = 25.00000, Total beta = 25.00000, Total charge =  0.00000


*** PSI4 exiting successfully. Buy a developer a beer!
