    -----------------------------------------------------------------------
          Psi4: An Open-Source Ab Initio Electronic Structure Package
                              Psi4 (no tag) Driver

                          Git: Rev {detached?}  

    J. M. Turney, A. C. Simmonett, R. M. Parrish, E. G. Hohenstein,
    F. A. Evangelista, J. T. Fermann, B. J. Mintz, L. A. Burns, J. J. Wilke,
    M. L. Abrams, N. J. Russ, M. L. Leininger, C. L. Janssen, E. T. Seidl,
    W. D. Allen, H. F. Schaefer, R. A. King, E. F. Valeev, C. D. Sherrill,
    and T. D. Crawford, WIREs Comput. Mol. Sci. 2, 556-565 (2012)
    (doi: 10.1002/wcms.93)

                         Additional Contributions by
    A. E. DePrince, M. Saitow, U. Bozkaya, A. Yu. Sokolov
    -----------------------------------------------------------------------


    Psi4 started on: Fri Sep  9 22:07:06 2016

    Process ID:  47213
    PSI4DATADIR: /export131/home/mjharvey/miniconda3/share
    Memory level set to 256.000 MB

  ==> Input File <==

--------------------------------------------------------------------------
set {
	reference rhf
	basis cc-pvtz
}


set_num_threads( 4 )
memory 2 gb

molecule MOL {
0 1

H	 -1.835082	 1.385983	 0.000069
C	 -1.300516	 0.441153	 -0.000028
O	 -0.006604	 0.654344	 -0.000106
O	 -1.828920	 -0.612308	 0.000113
C	 0.576849	 1.187572	 -1.185464
C	 2.059186	 1.341165	 -0.940943
H	 0.108866	 2.135704	 -1.409060
H	 0.375436	 0.514900	 -2.006992
H	 2.245750	 2.014000	 -0.113624
H	 2.534399	 1.745988	 -1.826462
H	 2.513660	 0.385047	 -0.714533

	symmetry c1
}
set optking {
	frozen_dihedral = ("
		5 3 2 4
	")
}

ee = optimize('scf')
oeprop('DIPOLE', 'QUADRUPOLE', 'MULLIKEN_CHARGES')
f=open( 'psi4out.xyz', 'w' )
f.write( "11  " )
f.write( str(ee) + "\n" )
f.write( MOL.save_string_xyz() )
f.close()
--------------------------------------------------------------------------

  Memory set to   2.000 GiB by Python script.
gradient() will perform analytic gradient computation.

*** tstart() called on cx1-27-3-1
*** at Fri Sep  9 22:07:07 2016


         ---------------------------------------------------------
                                   SCF
            by Justin Turney, Rob Parrish, and Andy Simmonett
                              RHF Reference
                        4 Threads,   2000 MiB Core
         ---------------------------------------------------------

  ==> Geometry <==

    Molecular point group: c1
    Full point group: C1

    Geometry (in Angstrom), charge = 0, multiplicity = 1:

       Center              X                  Y                   Z               Mass       
    ------------   -----------------  -----------------  -----------------  -----------------
           H         -1.735897671265     0.784164741189     0.427359502556     1.007825032070
           C         -1.201331671265    -0.160665258811     0.427262502556    12.000000000000
           O          0.092580328735     0.052525741189     0.427184502556    15.994914619560
           O         -1.729735671265    -1.214126258811     0.427403502556    15.994914619560
           C          0.676033328735     0.585753741189    -0.758173497444    12.000000000000
           C          2.158370328735     0.739346741189    -0.513652497444    12.000000000000
           H          0.208050328735     1.533885741189    -0.981769497444     1.007825032070
           H          0.474620328735    -0.086918258811    -1.579701497444     1.007825032070
           H          2.344934328735     1.412181741189     0.313666502556     1.007825032070
           H          2.633583328735     1.144169741189    -1.399171497444     1.007825032070
           H          2.612844328735    -0.216771258811    -0.287242497444     1.007825032070

  Running in c1 symmetry.

  Rotational constants: A =      0.77849  B =      0.08323  C =      0.08245 [cm^-1]
  Rotational constants: A =  23338.40328  B =   2495.27612  C =   2471.78452 [MHz]
  Nuclear repulsion =  177.191930567691912

  Charge       = 0
  Multiplicity = 1
  Electrons    = 40
  Nalpha       = 20
  Nbeta        = 20

  ==> Algorithm <==

  SCF Algorithm Type is DF.
  DIIS enabled.
  MOM disabled.
  Fractional occupation disabled.
  Guess Type is CORE.
  Energy threshold   = 1.00e-08
  Density threshold  = 1.00e-08
  Integral threshold = 0.00e+00

  ==> Primary Basis <==

  Basis Set: CC-PVTZ
    Number of shells: 86
    Number of basis function: 234
    Number of Cartesian functions: 265
    Spherical Harmonics?: true
    Max angular momentum: 3

  ==> Pre-Iterations <==

   -------------------------------------------------------
    Irrep   Nso     Nmo     Nalpha   Nbeta   Ndocc  Nsocc
   -------------------------------------------------------
     A        234     234       0       0       0       0
   -------------------------------------------------------
    Total     234     234      20      20      20       0
   -------------------------------------------------------

 OEINTS: Overlap, kinetic, potential, dipole, and quadrupole integrals
         stored in file 35.

  ==> Integral Setup <==

  ==> DFJK: Density-Fitted J/K Matrices <==

    J tasked:                  Yes
    K tasked:                  Yes
    wK tasked:                  No
    OpenMP threads:              4
    Integrals threads:           4
    Memory (MB):              1430
    Algorithm:                Core
    Integral Cache:           NONE
    Schwarz Cutoff:          1E-12
    Fitting Condition:       1E-12

   => Auxiliary Basis Set <=

  Basis Set: 
    Number of shells: 185
    Number of basis function: 575
    Number of Cartesian functions: 690
    Spherical Harmonics?: true
    Max angular momentum: 4

  Minimum eigenvalue in the overlap matrix is 1.0017949635E-03.
  Using Symmetric Orthogonalization.
  SCF Guess: Core (One-Electron) Hamiltonian.

  ==> Iterations <==

                           Total Energy        Delta E     RMS |[F,P]|

   @DF-RHF iter   1:  -193.51340054650743   -1.93513e+02   5.76585e-02 
   @DF-RHF iter   2:  -136.55641283914113    5.69570e+01   4.78329e-02 DIIS
   @DF-RHF iter   3:  -228.89307494927399   -9.23367e+01   2.33000e-02 DIIS
   @DF-RHF iter   4:  -196.63928683380979    3.22538e+01   3.46269e-02 DIIS
   @DF-RHF iter   5:  -266.07988057133480   -6.94406e+01   5.77062e-03 DIIS
   @DF-RHF iter   6:  -266.67767056786658   -5.97790e-01   3.56343e-03 DIIS
   @DF-RHF iter   7:  -266.90490772744249   -2.27237e-01   5.26802e-04 DIIS
   @DF-RHF iter   8:  -266.91113666108583   -6.22893e-03   2.69394e-04 DIIS
   @DF-RHF iter   9:  -266.91286763229130   -1.73097e-03   5.30148e-05 DIIS
   @DF-RHF iter  10:  -266.91302625853564   -1.58626e-04   1.97972e-05 DIIS
   @DF-RHF iter  11:  -266.91304966337873   -2.34048e-05   5.77985e-06 DIIS
   @DF-RHF iter  12:  -266.91305192719699   -2.26382e-06   1.96266e-06 DIIS
   @DF-RHF iter  13:  -266.91305218072819   -2.53531e-07   5.12961e-07 DIIS
   @DF-RHF iter  14:  -266.91305219851643   -1.77882e-08   1.40170e-07 DIIS
   @DF-RHF iter  15:  -266.91305219975311   -1.23669e-09   4.05917e-08 DIIS
   @DF-RHF iter  16:  -266.91305219983974   -8.66294e-11   9.52401e-09 DIIS

  ==> Post-Iterations <==

    Orbital Energies (a.u.)
    -----------------------

    Doubly Occupied:                                                      

       1A    -20.589786     2A    -20.556128     3A    -11.372007  
       4A    -11.305174     5A    -11.230964     6A     -1.473450  
       7A     -1.382617     8A     -1.056064     9A     -0.892610  
      10A     -0.837509    11A     -0.744949    12A     -0.693817  
      13A     -0.658050    14A     -0.635732    15A     -0.566320  
      16A     -0.548493    17A     -0.538669    18A     -0.505882  
      19A     -0.469883    20A     -0.455740  

    Virtual:                                                              

      21A      0.132512    22A      0.155174    23A      0.165107  
      24A      0.186660    25A      0.200333    26A      0.216827  
      27A      0.231627    28A      0.268393    29A      0.314263  
      30A      0.319961    31A      0.356097    32A      0.390419  
      33A      0.395891    34A      0.439504    35A      0.464057  
      36A      0.489725    37A      0.541171    38A      0.552422  
      39A      0.583165    40A      0.591748    41A      0.609475  
      42A      0.628089    43A      0.634562    44A      0.650711  
      45A      0.659097    46A      0.671681    47A      0.692676  
      48A      0.718295    49A      0.758280    50A      0.774863  
      51A      0.800198    52A      0.833225    53A      0.861532  
      54A      0.871635    55A      0.924495    56A      0.930584  
      57A      0.972031    58A      0.998052    59A      1.019380  
      60A      1.054676    61A      1.080997    62A      1.127980  
      63A      1.150310    64A      1.160815    65A      1.196136  
      66A      1.221002    67A      1.244864    68A      1.252912  
      69A      1.272911    70A      1.285807    71A      1.306370  
      72A      1.320669    73A      1.347912    74A      1.370596  
      75A      1.378844    76A      1.425857    77A      1.437545  
      78A      1.477483    79A      1.492501    80A      1.516123  
      81A      1.541158    82A      1.553841    83A      1.581564  
      84A      1.642413    85A      1.682854    86A      1.691375  
      87A      1.773580    88A      1.817480    89A      1.848018  
      90A      1.939652    91A      1.963741    92A      2.002619  
      93A      2.167881    94A      2.207890    95A      2.304472  
      96A      2.313628    97A      2.329505    98A      2.386480  
      99A      2.422069   100A      2.467064   101A      2.489406  
     102A      2.520051   103A      2.567959   104A      2.646278  
     105A      2.684066   106A      2.690709   107A      2.728401  
     108A      2.775799   109A      2.814838   110A      2.857161  
     111A      2.887861   112A      2.913481   113A      2.960218  
     114A      3.016514   115A      3.075254   116A      3.089754  
     117A      3.098883   118A      3.128981   119A      3.169573  
     120A      3.194304   121A      3.211297   122A      3.247071  
     123A      3.257720   124A      3.295767   125A      3.312497  
     126A      3.314162   127A      3.343772   128A      3.377821  
     129A      3.392186   130A      3.419825   131A      3.438017  
     132A      3.447685   133A      3.488274   134A      3.507767  
     135A      3.536349   136A      3.569731   137A      3.593642  
     138A      3.620686   139A      3.657167   140A      3.690908  
     141A      3.726312   142A      3.741283   143A      3.752888  
     144A      3.755899   145A      3.817079   146A      3.831795  
     147A      3.855318   148A      3.871508   149A      3.892478  
     150A      3.923467   151A      3.954173   152A      3.999287  
     153A      4.064368   154A      4.110438   155A      4.123021  
     156A      4.129241   157A      4.133853   158A      4.168368  
     159A      4.197828   160A      4.216686   161A      4.248942  
     162A      4.285067   163A      4.339794   164A      4.380680  
     165A      4.387960   166A      4.400756   167A      4.423615  
     168A      4.433907   169A      4.472499   170A      4.498157  
     171A      4.564427   172A      4.586250   173A      4.612979  
     174A      4.668264   175A      4.685357   176A      4.736724  
     177A      4.779477   178A      4.856657   179A      4.894545  
     180A      4.928336   181A      5.016725   182A      5.052257  
     183A      5.097129   184A      5.157627   185A      5.180539  
     186A      5.198300   187A      5.220075   188A      5.257547  
     189A      5.300458   190A      5.344548   191A      5.358320  
     192A      5.428350   193A      5.561223   194A      5.572762  
     195A      5.615236   196A      5.625146   197A      5.672703  
     198A      5.693274   199A      5.709718   200A      5.716492  
     201A      5.759948   202A      5.832162   203A      5.853807  
     204A      5.867678   205A      5.924739   206A      5.981847  
     207A      6.184939   208A      6.213445   209A      6.262474  
     210A      6.271999   211A      6.277941   212A      6.410390  
     213A      6.468578   214A      6.667898   215A      6.741700  
     216A      6.807285   217A      6.838610   218A      6.898599  
     219A      6.913171   220A      6.969964   221A      7.241103  
     222A      7.280673   223A      7.350273   224A      7.405888  
     225A      7.553447   226A      7.654026   227A      7.793856  
     228A      7.866625   229A      7.978468   230A     10.535964  
     231A     12.239187   232A     13.419176   233A     14.270049  
     234A     14.340939  

    Final Occupation by Irrep:
              A 
    DOCC [    20 ]

  Energy converged.

  @DF-RHF Final Energy:  -266.91305219983974

   => Energetics <=

    Nuclear Repulsion Energy =            177.1919305676919123
    One-Electron Energy =                -715.1822770927294641
    Two-Electron Energy =                 271.0772943251979541
    DFT Exchange-Correlation Energy =       0.0000000000000000
    Empirical Dispersion Energy =           0.0000000000000000
    PCM Polarization Energy =               0.0000000000000000
    EFP Energy =                            0.0000000000000000
    Total Energy =                       -266.9130521998396262

    Alert: EFP and PCM quantities not currently incorporated into SCF psivars.

Properties will be evaluated at   0.000000,   0.000000,   0.000000 Bohr
  ==> Properties <==


Properties computed using the SCF density matrix

  Nuclear Dipole Moment: (a.u.)
     X:     6.1214      Y:     4.2793      Z:    -3.2835

  Electronic Dipole Moment: (a.u.)
     X:    -5.4542      Y:    -3.0599      Z:     2.6651

  Dipole Moment: (a.u.)
     X:     0.6672      Y:     1.2194      Z:    -0.6184     Total:     1.5213

  Dipole Moment: (Debye)
     X:     1.6958      Y:     3.0994      Z:    -1.5718     Total:     3.8668


  Saving occupied orbitals to File 180.

*** tstop() called on cx1-27-3-1 at Fri Sep  9 22:07:13 2016
Module time:
	user time   =      16.76 seconds =       0.28 minutes
	system time =       0.24 seconds =       0.00 minutes
	total time  =          6 seconds =       0.10 minutes
Total time:
	user time   =      16.76 seconds =       0.28 minutes
	system time =       0.24 seconds =       0.00 minutes
	total time  =          6 seconds =       0.10 minutes

*** tstart() called on cx1-27-3-1
*** at Fri Sep  9 22:07:13 2016


         ------------------------------------------------------------
                                   SCF GRAD                          
                          Rob Parrish, Justin Turney,                
                       Andy Simmonett, and Alex Sokolov              
         ------------------------------------------------------------

  ==> Geometry <==

    Molecular point group: c1
    Full point group: C1

    Geometry (in Angstrom), charge = 0, multiplicity = 1:

       Center              X                  Y                   Z               Mass       
    ------------   -----------------  -----------------  -----------------  -----------------
           H         -1.735897671265     0.784164741189     0.427359502556     1.007825032070
           C         -1.201331671265    -0.160665258811     0.427262502556    12.000000000000
           O          0.092580328735     0.052525741189     0.427184502556    15.994914619560
           O         -1.729735671265    -1.214126258811     0.427403502556    15.994914619560
           C          0.676033328735     0.585753741189    -0.758173497444    12.000000000000
           C          2.158370328735     0.739346741189    -0.513652497444    12.000000000000
           H          0.208050328735     1.533885741189    -0.981769497444     1.007825032070
           H          0.474620328735    -0.086918258811    -1.579701497444     1.007825032070
           H          2.344934328735     1.412181741189     0.313666502556     1.007825032070
           H          2.633583328735     1.144169741189    -1.399171497444     1.007825032070
           H          2.612844328735    -0.216771258811    -0.287242497444     1.007825032070

  Nuclear repulsion =  177.191930567691912

  ==> Basis Set <==

  Basis Set: CC-PVTZ
    Number of shells: 86
    Number of basis function: 234
    Number of Cartesian functions: 265
    Spherical Harmonics?: true
    Max angular momentum: 3

  ==> DFJKGrad: Density-Fitted SCF Gradients <==

    Gradient:                    1
    J tasked:                  Yes
    K tasked:                  Yes
    wK tasked:                  No
    OpenMP threads:              4
    Integrals threads:           4
    Memory (MB):              1430
    Schwarz Cutoff:          0E+00
    Fitting Condition:       1E-12

   => Auxiliary Basis Set <=

  Basis Set: 
    Number of shells: 185
    Number of basis function: 575
    Number of Cartesian functions: 690
    Spherical Harmonics?: true
    Max angular momentum: 4


  -Total Gradient:
     Atom            X                  Y                   Z
    ------   -----------------  -----------------  -----------------
       1        0.010224218455    -0.000149364006     0.000178905836
       2        0.020248198814     0.002949201907     0.006592342982
       3       -0.023646509857     0.012469517490    -0.000057218649
       4       -0.009052542618    -0.011913437975    -0.004099463373
       5        0.002005594157    -0.000137557098    -0.006141666691
       6       -0.000651645167    -0.000947542792     0.001518846823
       7        0.000038542769    -0.004036658261     0.000922626971
       8       -0.000980366695     0.001942387369     0.000705870885
       9        0.000726963380     0.000156277309     0.000106785858
      10       -0.000166004676    -0.000154344520     0.000152016041
      11        0.001253551440    -0.000178479423     0.000120953319


*** tstop() called on cx1-27-3-1 at Fri Sep  9 22:07:21 2016
Module time:
	user time   =      33.37 seconds =       0.56 minutes
	system time =       0.36 seconds =       0.01 minutes
	total time  =          8 seconds =       0.13 minutes
Total time:
	user time   =      50.17 seconds =       0.84 minutes
	system time =       0.60 seconds =       0.01 minutes
	total time  =         14 seconds =       0.23 minutes
CURRENT ENERGY: -266.9130521998

			-----------------------------------------
			 OPTKING 2.0: for geometry optimizations 
			  - R.A. King,  Bethel University        
			-----------------------------------------

	Internal coordinates to be generated automatically.
	Detected frag with atoms:  1 2 3 4 5 6 7 8 9 10 11
	---Fragment 1 Bond Connectivity---
	 1 : 2
	 2 : 1 3 4
	 3 : 2 5
	 4 : 2
	 5 : 3 6 7 8
	 6 : 5 9 10 11
	 7 : 5
	 8 : 5
	 9 : 6
	 10 : 6
	 11 : 6

	Assuming in current code that numbering for constraints corresponds to unified fragment.
	Frozen dihedral atom list: 
	     5     3     2     4
	---Fragment 1 Geometry and Gradient---
	 H          -3.2803711934        1.4818566039        0.8075924201
	 C          -2.2701878535       -0.3036133382        0.8074091167
	 O           0.1749514666        0.0992592658        0.8072617180
	 O          -3.2687267010       -2.2943661199        0.8076755681
	 C           1.2775178480        1.1069141522       -1.4327402714
	 C           4.0787288147        1.3971628581       -0.9706625476
	 H           0.3931581432        2.8986239700       -1.8552754758
	 H           0.8969024384       -0.1642517051       -2.9852032019
	 H           4.4312836809        2.6686367407        0.5927437869
	 H           4.9767512394        2.1621674604       -2.6440509431
	 H           4.9375602092       -0.4096383126       -0.5428096539
	             0.0102242185       -0.0001493640        0.0001789058
	             0.0202481988        0.0029492019        0.0065923430
	            -0.0236465099        0.0124695175       -0.0000572186
	            -0.0090525426       -0.0119134380       -0.0040994634
	             0.0020055942       -0.0001375571       -0.0061416667
	            -0.0006516452       -0.0009475428        0.0015188468
	             0.0000385428       -0.0040366583        0.0009226270
	            -0.0009803667        0.0019423874        0.0007058709
	             0.0007269634        0.0001562773        0.0001067859
	            -0.0001660047       -0.0001543445        0.0001520160
	             0.0012535514       -0.0001784794        0.0001209533

	Previous optimization step data not found.  Starting new optimization.

	---Fragment 1 Intrafragment Coordinates---
	 - Coordinate -           - BOHR/RAD -       - ANG/DEG -
	 R(1,2)           =         2.051432	       1.085571
	 R(2,3)           =         2.478107	       1.311358
	 R(2,4)           =         2.227145	       1.178555
	 R(3,5)           =         2.692328	       1.424719
	 R(5,6)           =         2.853865	       1.510200
	 R(5,7)           =         2.042266	       1.080721
	 R(5,8)           =         2.042271	       1.080723
	 R(6,9)           =         2.045771	       1.082576
	 R(6,10)          =         2.047414	       1.083445
	 R(6,11)          =         2.045771	       1.082576
	 B(1,2,3)         =         1.922376	     110.144058
	 B(1,2,4)         =         2.161797	     123.861862
	 B(2,3,5)         =         2.054396	     117.708213
	 B(3,2,4)         =         2.199012	     125.994079
	 B(3,5,6)         =         1.881071	     107.777404
	 B(3,5,7)         =         1.899855	     108.853697
	 B(3,5,8)         =         1.899880	     108.855085
	 B(5,6,9)         =         1.934888	     110.860892
	 B(5,6,10)        =         1.913662	     109.644748
	 B(5,6,11)        =         1.934889	     110.860977
	 B(6,5,7)         =         1.949065	     111.673198
	 B(6,5,8)         =         1.949067	     111.673314
	 B(7,5,8)         =         1.883978	     107.943994
	 B(9,6,10)        =         1.893143	     108.469088
	 B(9,6,11)        =         1.893085	     108.465794
	 B(10,6,11)       =         1.893149	     108.469449
	 D(1,2,3,5)       =        -1.221908	     -70.010179
	 D(2,3,5,6)       =        -3.141308	    -179.983667
	 D(2,3,5,7)       =         1.025043	      58.730628
	 D(2,3,5,8)       =        -1.024456	     -58.697013
	 D(3,5,6,9)       =        -1.051805	     -60.263989
	 D(3,5,6,10)      =         3.141593	     180.000000
	 D(3,5,6,11)      =         1.051806	      60.264027
	*D(4,2,3,5)       =         1.919863	     110.000020
	 D(7,5,6,9)       =         1.034058	      59.247182
	 D(7,5,6,10)      =        -1.055725	     -60.488559
	 D(7,5,6,11)      =         3.137669	     179.775198
	 D(8,5,6,9)       =        -3.137699	    -179.776935
	 D(8,5,6,10)      =         1.055703	      60.487323
	 D(8,5,6,11)      =        -1.034089	     -59.248919

	Current energy   :      -266.9130521998

	Generating empirical Hessian (Schlegel '84) for each fragment.
	Taking RFO optimization step.
	Going to follow RFO solution 1.
	Using RFO vector 1.
	Norm of target step-size    0.22177
	Projected energy change by RFO approximation:         0.0023863601

	Back-transformation to cartesian coordinates...
	Successfully converged to displaced geometry.

	Back-transformation to cartesian coordinates to adjust frozen coordinates...
	Successfully converged to displaced geometry.

	--- Internal Coordinate Step in ANG or DEG, aJ/ANG or AJ/DEG ---
	 ---------------------------------------------------------------------------
	   Coordinate                Previous        Force       Change         New 
	   ----------                --------       ------       ------       ------
	    1 R(1,2)          =      1.085571     0.042550     0.007671     1.093242
	    2 R(2,3)          =      1.311358     0.161917     0.016141     1.327499
	    3 R(2,4)          =      1.178555    -0.121168    -0.006670     1.171884
	    4 R(3,5)          =      1.424719    -0.015086    -0.002304     1.422415
	    5 R(5,6)          =      1.510200    -0.010994    -0.002233     1.507967
	    6 R(5,7)          =      1.080721     0.030887     0.005480     1.086201
	    7 R(5,8)          =      1.080723     0.012876     0.002284     1.083008
	    8 R(6,9)          =      1.082576    -0.002505    -0.000447     1.082129
	    9 R(6,10)         =      1.083445     0.002099     0.000376     1.083821
	   10 R(6,11)         =      1.082576    -0.005843    -0.001043     1.081533
	   11 B(1,2,3)        =    110.144058     0.001074     4.479853   114.623911
	   12 B(1,2,4)        =    123.861862    -0.000304    -1.885003   121.976859
	   13 B(2,3,5)        =    117.708213    -0.000273    -0.812133   116.896079
	   14 B(3,2,4)        =    125.994079    -0.000770    -2.602682   123.391398
	   15 B(3,5,6)        =    107.777404     0.000130     0.413565   108.190968
	   16 B(3,5,7)        =    108.853697     0.000055     0.638462   109.492159
	   17 B(3,5,8)        =    108.855085    -0.000045    -0.197747   108.657338
	   18 B(5,6,9)        =    110.860892    -0.000060    -0.310224   110.550668
	   19 B(5,6,10)       =    109.644748     0.000044     0.278202   109.922950
	   20 B(5,6,11)       =    110.860977    -0.000107    -0.543615   110.317362
	   21 B(6,5,7)        =    111.673198    -0.000158    -0.796932   110.876266
	   22 B(6,5,8)        =    111.673314    -0.000081    -0.568536   111.104779
	   23 B(7,5,8)        =    107.943994     0.000102     0.538959   108.482952
	   24 B(9,6,10)       =    108.469088     0.000022     0.189556   108.658644
	   25 B(9,6,11)       =    108.465794     0.000066     0.160936   108.626730
	   26 B(10,6,11)      =    108.469449     0.000041     0.246714   108.716163
	   27 D(1,2,3,5)      =    -70.010179     0.000006     1.011681   -68.998498
	   28 D(2,3,5,6)      =   -179.983667    -0.000012    -6.278869  -186.262536
	   29 D(2,3,5,7)      =     58.730628     0.000007    -5.938407    52.792221
	   30 D(2,3,5,8)      =    -58.697013    -0.000022    -6.835377   -65.532390
	   31 D(3,5,6,9)      =    -60.263989    -0.000003    -0.088211   -60.352200
	   32 D(3,5,6,10)     =    180.000000    -0.000006    -0.306030   179.693970
	   33 D(3,5,6,11)     =     60.264027    -0.000009    -0.447665    59.816362
	   34 *D(4,2,3,5)     =    110.000020    -0.000000     0.000000   110.000020
	   35 D(7,5,6,9)      =     59.247182     0.000011     0.482498    59.729681
	   36 D(7,5,6,10)     =    -60.488559     0.000007     0.264410   -60.224149
	   37 D(7,5,6,11)     =    179.775198     0.000004     0.123044   179.898243
	   38 D(8,5,6,9)      =   -179.776935     0.000002     0.229998  -179.546937
	   39 D(8,5,6,10)     =     60.487323    -0.000002     0.011910    60.499233
	   40 D(8,5,6,11)     =    -59.248919    -0.000004    -0.129456   -59.378375
	 ---------------------------------------------------------------------------

  ==> Convergence Check <==

  Measures of convergence in internal coordinates in au.
  Criteria marked as inactive (o), active & met (*), and active & unmet ( ).
  --------------------------------------------------------------------------------------------- ~
   Step     Total Energy     Delta E     MAX Force     RMS Force      MAX Disp      RMS Disp    ~
  --------------------------------------------------------------------------------------------- ~
    Convergence Criteria    1.00e-06 *    3.00e-04 *             o    1.20e-03 *             o  ~
  --------------------------------------------------------------------------------------------- ~
      1    -266.91305220   -2.67e+02      1.97e-02      5.00e-03 o    1.19e-01      3.51e-02 o  ~
  ---------------------------------------------------------------------------------------------

	Writing optimization data to binary file.
	Structure for next step:
	Cartesian Geometry (in Angstrom)
	    H    -1.7561617516   0.8097757455   0.4864422603
	    C    -1.2082898093  -0.1350074402   0.4374511476
	    O     0.1129018438  -0.0077249153   0.4149920701
	    O    -1.7574863648  -1.1691762104   0.3906390556
	    C     0.6854208235   0.5532115158  -0.7600974885
	    C     2.1606431058   0.7499828447  -0.5172684214
	    H     0.2003950039   1.4990521997  -0.9836306341
	    H     0.5133322284  -0.1247350213  -1.5869469135
	    H     2.3222481830   1.4221974839   0.3152058496
	    H     2.6270588256   1.1724455224  -1.3996793367
	    H     2.6339900268  -0.1964742224  -0.2939423279
			--------------------------
			 OPTKING Finished Execution 
			--------------------------

    Structure for next step:
    Molecular point group: c1
    Full point group: C1

    Geometry (in Angstrom), charge = 0, multiplicity = 1:

    H           -1.755355874982     0.812315933425     0.495662258222
    C           -1.207483974530    -0.132467180127     0.446671149261
    O            0.113707577630    -0.005184664962     0.424212073464
    O           -1.756680488077    -1.166635871372     0.399859060789
    C            0.686226513633     0.555751723302    -0.750877395388
    C            2.161448683272     0.752523037194    -0.508048346883
    H            0.201200731069     1.501592335034    -0.974410523994
    H            0.514137931705    -0.122194762019    -1.577726757303
    H            2.323053748110     1.424737625021     0.324425860523
    H            2.627864367470     1.174985682615    -1.390459194791
    H            2.634795568178    -0.193933957687    -0.284722270415

gradient() will perform analytic gradient computation.

*** tstart() called on cx1-27-3-1
*** at Fri Sep  9 22:07:22 2016


         ---------------------------------------------------------
                                   SCF
            by Justin Turney, Rob Parrish, and Andy Simmonett
                              RHF Reference
                        4 Threads,   2000 MiB Core
         ---------------------------------------------------------

  ==> Geometry <==

    Molecular point group: c1
    Full point group: C1

    Geometry (in Angstrom), charge = 0, multiplicity = 1:

       Center              X                  Y                   Z               Mass       
    ------------   -----------------  -----------------  -----------------  -----------------
           H         -1.755355874982     0.812315933425     0.495662258222     1.007825032070
           C         -1.207483974530    -0.132467180127     0.446671149261    12.000000000000
           O          0.113707577630    -0.005184664962     0.424212073464    15.994914619560
           O         -1.756680488077    -1.166635871372     0.399859060789    15.994914619560
           C          0.686226513633     0.555751723302    -0.750877395388    12.000000000000
           C          2.161448683272     0.752523037194    -0.508048346883    12.000000000000
           H          0.201200731069     1.501592335034    -0.974410523994     1.007825032070
           H          0.514137931705    -0.122194762019    -1.577726757303     1.007825032070
           H          2.323053748110     1.424737625021     0.324425860523     1.007825032070
           H          2.627864367470     1.174985682615    -1.390459194791     1.007825032070
           H          2.634795568178    -0.193933957687    -0.284722270415     1.007825032070

  Running in c1 symmetry.

  Rotational constants: A =      0.79453  B =      0.08323  C =      0.08250 [cm^-1]
  Rotational constants: A =  23819.34774  B =   2495.31608  C =   2473.43226 [MHz]
  Nuclear repulsion =  177.167656685897327

  Charge       = 0
  Multiplicity = 1
  Electrons    = 40
  Nalpha       = 20
  Nbeta        = 20

  ==> Algorithm <==

  SCF Algorithm Type is DF.
  DIIS enabled.
  MOM disabled.
  Fractional occupation disabled.
  Guess Type is READ.
  Energy threshold   = 1.00e-08
  Density threshold  = 1.00e-08
  Integral threshold = 0.00e+00

  ==> Primary Basis <==

  Basis Set: CC-PVTZ
    Number of shells: 86
    Number of basis function: 234
    Number of Cartesian functions: 265
    Spherical Harmonics?: true
    Max angular momentum: 3

  ==> Pre-Iterations <==

   -------------------------------------------------------
    Irrep   Nso     Nmo     Nalpha   Nbeta   Ndocc  Nsocc
   -------------------------------------------------------
     A        234     234       0       0       0       0
   -------------------------------------------------------
    Total     234     234      20      20      20       0
   -------------------------------------------------------

 OEINTS: Overlap, kinetic, potential, dipole, and quadrupole integrals
         stored in file 35.

  ==> Integral Setup <==

  ==> DFJK: Density-Fitted J/K Matrices <==

    J tasked:                  Yes
    K tasked:                  Yes
    wK tasked:                  No
    OpenMP threads:              4
    Integrals threads:           4
    Memory (MB):              1430
    Algorithm:                Core
    Integral Cache:           NONE
    Schwarz Cutoff:          1E-12
    Fitting Condition:       1E-12

   => Auxiliary Basis Set <=

  Basis Set: 
    Number of shells: 185
    Number of basis function: 575
    Number of Cartesian functions: 690
    Spherical Harmonics?: true
    Max angular momentum: 4

  Minimum eigenvalue in the overlap matrix is 1.0006858624E-03.
  Using Symmetric Orthogonalization.
  SCF Guess: Reading in previously saved MOs, projecting if necessary.

  Using orbitals from previous SCF, no projection.
  Recomputing DOCC and SOCC from number of alpha and beta electrons from previous calculation.
              A 
    DOCC [    20 ]

  ==> Iterations <==

                           Total Energy        Delta E     RMS |[F,P]|

   @DF-RHF iter   0:  -266.89651864132020   -2.66897e+02   7.21165e-04 
   @DF-RHF iter   1:  -266.91369027841012   -1.71716e-02   1.03962e-04 
   @DF-RHF iter   2:  -266.91416233425139   -4.72056e-04   4.10918e-05 DIIS
   @DF-RHF iter   3:  -266.91424600199991   -8.36677e-05   2.03345e-05 DIIS
   @DF-RHF iter   4:  -266.91426800586055   -2.20039e-05   7.18282e-06 DIIS
   @DF-RHF iter   5:  -266.91427228676298   -4.28090e-06   3.38203e-06 DIIS
   @DF-RHF iter   6:  -266.91427367205688   -1.38529e-06   1.32784e-06 DIIS
   @DF-RHF iter   7:  -266.91427384306724   -1.71010e-07   6.46283e-07 DIIS
   @DF-RHF iter   8:  -266.91427387795954   -3.48923e-08   2.46282e-07 DIIS
   @DF-RHF iter   9:  -266.91427388539364   -7.43410e-09   8.05200e-08 DIIS
   @DF-RHF iter  10:  -266.91427388620042   -8.06779e-10   2.33947e-08 DIIS
   @DF-RHF iter  11:  -266.91427388625260   -5.21823e-11   7.13648e-09 DIIS

  ==> Post-Iterations <==

    Orbital Energies (a.u.)
    -----------------------

    Doubly Occupied:                                                      

       1A    -20.589234     2A    -20.556239     3A    -11.372692  
       4A    -11.302661     5A    -11.228906     6A     -1.471999  
       7A     -1.382171     8A     -1.052666     9A     -0.887679  
      10A     -0.834957    11A     -0.744462    12A     -0.693309  
      13A     -0.654343    14A     -0.637113    15A     -0.566623  
      16A     -0.545144    17A     -0.538432    18A     -0.506715  
      19A     -0.468468    20A     -0.456375  

    Virtual:                                                              

      21A      0.133176    22A      0.155550    23A      0.165239  
      24A      0.186708    25A      0.200611    26A      0.215523  
      27A      0.232673    28A      0.269440    29A      0.311435  
      30A      0.320263    31A      0.355607    32A      0.391152  
      33A      0.400280    34A      0.441614    35A      0.467057  
      36A      0.487088    37A      0.536002    38A      0.550499  
      39A      0.580035    40A      0.590615    41A      0.608424  
      42A      0.630561    43A      0.637453    44A      0.651683  
      45A      0.661898    46A      0.671228    47A      0.690727  
      48A      0.722349    49A      0.757075    50A      0.771758  
      51A      0.807666    52A      0.838124    53A      0.859855  
      54A      0.869925    55A      0.920088    56A      0.935301  
      57A      0.967632    58A      1.008021    59A      1.014708  
      60A      1.053169    61A      1.081961    62A      1.127934  
      63A      1.149613    64A      1.161111    65A      1.202437  
      66A      1.208816    67A      1.245041    68A      1.253497  
      69A      1.274621    70A      1.293413    71A      1.310452  
      72A      1.314094    73A      1.350192    74A      1.375134  
      75A      1.380889    76A      1.425546    77A      1.439491  
      78A      1.473632    79A      1.483486    80A      1.510186  
      81A      1.531059    82A      1.550551    83A      1.581351  
      84A      1.637755    85A      1.682432    86A      1.694234  
      87A      1.773243    88A      1.807372    89A      1.850149  
      90A      1.949042    91A      1.964517    92A      2.018088  
      93A      2.175381    94A      2.202022    95A      2.300446  
      96A      2.310988    97A      2.337396    98A      2.371859  
      99A      2.415414   100A      2.462080   101A      2.479944  
     102A      2.524446   103A      2.569726   104A      2.649985  
     105A      2.693449   106A      2.701956   107A      2.731646  
     108A      2.780834   109A      2.816460   110A      2.859652  
     111A      2.886395   112A      2.916003   113A      2.961707  
     114A      3.022629   115A      3.075252   116A      3.088662  
     117A      3.099947   118A      3.128256   119A      3.172096  
     120A      3.203629   121A      3.209994   122A      3.242678  
     123A      3.262641   124A      3.296400   125A      3.316279  
     126A      3.318177   127A      3.339227   128A      3.380858  
     129A      3.397053   130A      3.417864   131A      3.437621  
     132A      3.448400   133A      3.497806   134A      3.511858  
     135A      3.534189   136A      3.561778   137A      3.581310  
     138A      3.617577   139A      3.659019   140A      3.694264  
     141A      3.703517   142A      3.723822   143A      3.751140  
     144A      3.752464   145A      3.793161   146A      3.832569  
     147A      3.852852   148A      3.869537   149A      3.881883  
     150A      3.922790   151A      3.959037   152A      4.002437  
     153A      4.064558   154A      4.121000   155A      4.124866  
     156A      4.132255   157A      4.137846   158A      4.169683  
     159A      4.201320   160A      4.214282   161A      4.251610  
     162A      4.280919   163A      4.340904   164A      4.368701  
     165A      4.383920   166A      4.396198   167A      4.420202  
     168A      4.429833   169A      4.467143   170A      4.496615  
     171A      4.567151   172A      4.581252   173A      4.619878  
     174A      4.667574   175A      4.691748   176A      4.737122  
     177A      4.779606   178A      4.854450   179A      4.895145  
     180A      4.919976   181A      5.006921   182A      5.032355  
     183A      5.079394   184A      5.150517   185A      5.187297  
     186A      5.201210   187A      5.210270   188A      5.243680  
     189A      5.288948   190A      5.326129   191A      5.352777  
     192A      5.411190   193A      5.559996   194A      5.577583  
     195A      5.609302   196A      5.621386   197A      5.673244  
     198A      5.691545   199A      5.707547   200A      5.711056  
     201A      5.751240   202A      5.831433   203A      5.850528  
     204A      5.861150   205A      5.941062   206A      5.961450  
     207A      6.188718   208A      6.213753   209A      6.261287  
     210A      6.272629   211A      6.279365   212A      6.391159  
     213A      6.481562   214A      6.650307   215A      6.740045  
     216A      6.771598   217A      6.832046   218A      6.896651  
     219A      6.922751   220A      6.952454   221A      7.241539  
     222A      7.282225   223A      7.348926   224A      7.406856  
     225A      7.557200   226A      7.653544   227A      7.773549  
     228A      7.871236   229A      7.937515   230A     10.524205  
     231A     12.126336   232A     13.393042   233A     14.275420  
     234A     14.340352  

    Final Occupation by Irrep:
              A 
    DOCC [    20 ]

  Energy converged.

  @DF-RHF Final Energy:  -266.91427388625260

   => Energetics <=

    Nuclear Repulsion Energy =            177.1676566858973274
    One-Electron Energy =                -715.1834827326485993
    Two-Electron Energy =                 271.1015521604986702
    DFT Exchange-Correlation Energy =       0.0000000000000000
    Empirical Dispersion Energy =           0.0000000000000000
    PCM Polarization Energy =               0.0000000000000000
    EFP Energy =                            0.0000000000000000
    Total Energy =                       -266.9142738862526016

    Alert: EFP and PCM quantities not currently incorporated into SCF psivars.

Properties will be evaluated at   0.000000,   0.000000,   0.000000 Bohr
  ==> Properties <==


Properties computed using the SCF density matrix

  Nuclear Dipole Moment: (a.u.)
     X:     6.1285      Y:     4.3044      Z:    -3.1902

  Electronic Dipole Moment: (a.u.)
     X:    -5.5132      Y:    -3.0840      Z:     2.6396

  Dipole Moment: (a.u.)
     X:     0.6153      Y:     1.2204      Z:    -0.5506     Total:     1.4735

  Dipole Moment: (Debye)
     X:     1.5640      Y:     3.1020      Z:    -1.3994     Total:     3.7453


  Saving occupied orbitals to File 180.

*** tstop() called on cx1-27-3-1 at Fri Sep  9 22:07:27 2016
Module time:
	user time   =      15.05 seconds =       0.25 minutes
	system time =       0.20 seconds =       0.00 minutes
	total time  =          5 seconds =       0.08 minutes
Total time:
	user time   =      66.65 seconds =       1.11 minutes
	system time =       0.86 seconds =       0.01 minutes
	total time  =         20 seconds =       0.33 minutes

*** tstart() called on cx1-27-3-1
*** at Fri Sep  9 22:07:27 2016


         ------------------------------------------------------------
                                   SCF GRAD                          
                          Rob Parrish, Justin Turney,                
                       Andy Simmonett, and Alex Sokolov              
         ------------------------------------------------------------

  ==> Geometry <==

    Molecular point group: c1
    Full point group: C1

    Geometry (in Angstrom), charge = 0, multiplicity = 1:

       Center              X                  Y                   Z               Mass       
    ------------   -----------------  -----------------  -----------------  -----------------
           H         -1.755355874982     0.812315933425     0.495662258222     1.007825032070
           C         -1.207483974530    -0.132467180127     0.446671149261    12.000000000000
           O          0.113707577630    -0.005184664962     0.424212073464    15.994914619560
           O         -1.756680488077    -1.166635871372     0.399859060789    15.994914619560
           C          0.686226513633     0.555751723302    -0.750877395388    12.000000000000
           C          2.161448683272     0.752523037194    -0.508048346883    12.000000000000
           H          0.201200731069     1.501592335034    -0.974410523994     1.007825032070
           H          0.514137931705    -0.122194762019    -1.577726757303     1.007825032070
           H          2.323053748110     1.424737625021     0.324425860523     1.007825032070
           H          2.627864367470     1.174985682615    -1.390459194791     1.007825032070
           H          2.634795568178    -0.193933957687    -0.284722270415     1.007825032070

  Nuclear repulsion =  177.167656685897327

  ==> Basis Set <==

  Basis Set: CC-PVTZ
    Number of shells: 86
    Number of basis function: 234
    Number of Cartesian functions: 265
    Spherical Harmonics?: true
    Max angular momentum: 3

  ==> DFJKGrad: Density-Fitted SCF Gradients <==

    Gradient:                    1
    J tasked:                  Yes
    K tasked:                  Yes
    wK tasked:                  No
    OpenMP threads:              4
    Integrals threads:           4
    Memory (MB):              1430
    Schwarz Cutoff:          0E+00
    Fitting Condition:       1E-12

   => Auxiliary Basis Set <=

  Basis Set: 
    Number of shells: 185
    Number of basis function: 575
    Number of Cartesian functions: 690
    Spherical Harmonics?: true
    Max angular momentum: 4


  -Total Gradient:
     Atom            X                  Y                   Z
    ------   -----------------  -----------------  -----------------
       1       -0.003220178881     0.000343815804    -0.000737441162
       2        0.005676264216     0.001429647369     0.009006773267
       3       -0.005728031413     0.000623797913    -0.000123564119
       4        0.001536193050     0.000110109257    -0.005229751323
       5        0.002398922379    -0.002432297981    -0.002861316447
       6       -0.000699439846    -0.000371134283    -0.000006791950
       7        0.000112625554     0.000064460956     0.000205228492
       8        0.000342468120    -0.000008890615     0.000067737360
       9       -0.000210808911    -0.000034341823    -0.000078859982
      10        0.000134399171     0.000189477119    -0.000119904109
      11       -0.000342413441     0.000085356284    -0.000122110026


*** tstop() called on cx1-27-3-1 at Fri Sep  9 22:07:36 2016
Module time:
	user time   =      33.16 seconds =       0.55 minutes
	system time =       0.39 seconds =       0.01 minutes
	total time  =          9 seconds =       0.15 minutes
Total time:
	user time   =      99.83 seconds =       1.66 minutes
	system time =       1.25 seconds =       0.02 minutes
	total time  =         29 seconds =       0.48 minutes
CURRENT ENERGY: -266.9142738863

			-----------------------------------------
			 OPTKING 2.0: for geometry optimizations 
			  - R.A. King,  Bethel University        
			-----------------------------------------

	Previous internal coordinate definitions found.
	---Fragment 1 Geometry and Gradient---
	 H          -3.3171418695        1.5350546476        0.9366659224
	 C          -2.2818140217       -0.2503266920        0.8440861436
	 O           0.2148761810       -0.0097975969        0.8016446411
	 O          -3.3196450254       -2.2046222937        0.7556241166
	 C           1.2967801759        1.0502185549       -1.4189526367
	 C           4.0845460617        1.4220624490       -0.9600722379
	 H           0.3802142795        2.8375982765       -1.8413690313
	 H           0.9715798854       -0.2309146351       -2.9814714838
	 H           4.3899353759        2.6923639225        0.6130760268
	 H           4.9659439689        2.2204011502       -2.6275870771
	 H           4.9790420400       -0.3664820679       -0.5380471150
	            -0.0032201789        0.0003438158       -0.0007374412
	             0.0056762642        0.0014296474        0.0090067733
	            -0.0057280314        0.0006237979       -0.0001235641
	             0.0015361930        0.0001101093       -0.0052297513
	             0.0023989224       -0.0024322980       -0.0028613164
	            -0.0006994398       -0.0003711343       -0.0000067919
	             0.0001126256        0.0000644610        0.0002052285
	             0.0003424681       -0.0000088906        0.0000677374
	            -0.0002108089       -0.0000343418       -0.0000788600
	             0.0001343992        0.0001894771       -0.0001199041
	            -0.0003424134        0.0000853563       -0.0001221100

	---Fragment 1 Intrafragment Coordinates---
	 - Coordinate -           - BOHR/RAD -       - ANG/DEG -
	 R(1,2)           =         2.065929	       1.093242
	 R(2,3)           =         2.508609	       1.327499
	 R(2,4)           =         2.214541	       1.171884
	 R(3,5)           =         2.687974	       1.422415
	 R(5,6)           =         2.849645	       1.507967
	 R(5,7)           =         2.052621	       1.086201
	 R(5,8)           =         2.046588	       1.083008
	 R(6,9)           =         2.044926	       1.082129
	 R(6,10)          =         2.048124	       1.083821
	 R(6,11)          =         2.043800	       1.081533
	 B(1,2,3)         =         2.000565	     114.623911
	 B(1,2,4)         =         2.128898	     121.976859
	 B(2,3,5)         =         2.040221	     116.896079
	 B(3,2,4)         =         2.153586	     123.391398
	 B(3,5,6)         =         1.888289	     108.190968
	 B(3,5,7)         =         1.910999	     109.492159
	 B(3,5,8)         =         1.896428	     108.657338
	 B(5,6,9)         =         1.929473	     110.550668
	 B(5,6,10)        =         1.918517	     109.922950
	 B(5,6,11)        =         1.925401	     110.317362
	 B(6,5,7)         =         1.935156	     110.876266
	 B(6,5,8)         =         1.939144	     111.104779
	 B(7,5,8)         =         1.893385	     108.482952
	 B(9,6,10)        =         1.896451	     108.658644
	 B(9,6,11)        =         1.895894	     108.626730
	 B(10,6,11)       =         1.897455	     108.716163
	 D(1,2,3,5)       =        -1.204251	     -68.998498
	 D(2,3,5,6)       =         3.032291	     173.737464
	 D(2,3,5,7)       =         0.921398	      52.792221
	 D(2,3,5,8)       =        -1.143756	     -65.532390
	 D(3,5,6,9)       =        -1.053345	     -60.352200
	 D(3,5,6,10)      =         3.136251	     179.693970
	 D(3,5,6,11)      =         1.043992	      59.816362
	*D(4,2,3,5)       =         1.919863	     110.000020
	 D(7,5,6,9)       =         1.042480	      59.729681
	 D(7,5,6,10)      =        -1.051110	     -60.224149
	 D(7,5,6,11)      =         3.139817	     179.898243
	 D(8,5,6,9)       =        -3.133685	    -179.546937
	 D(8,5,6,10)      =         1.055911	      60.499233
	 D(8,5,6,11)      =        -1.036348	     -59.378375

	Current energy   :      -266.9142738863

	Energy change for the previous step:
		Projected    :         0.0023863601
		Actual       :        -0.0012216864

	Performing BFGS update.
	Previous computed or guess Hessian on step 1.
	Steps to be used in Hessian update: 1
	Taking RFO optimization step.
	Going to follow RFO solution 1.
	Using RFO vector 1.
	Norm of target step-size    0.10469
	Projected energy change by RFO approximation:         0.0003710332

	Back-transformation to cartesian coordinates...
	Successfully converged to displaced geometry.

	Back-transformation to cartesian coordinates to adjust frozen coordinates...
	Successfully converged to displaced geometry.

	--- Internal Coordinate Step in ANG or DEG, aJ/ANG or AJ/DEG ---
	 ---------------------------------------------------------------------------
	   Coordinate                Previous        Force       Change         New 
	   ----------                --------       ------       ------       ------
	    1 R(1,2)          =      1.093242    -0.015471    -0.001842     1.091400
	    2 R(2,3)          =      1.327499     0.033799     0.004100     1.331599
	    3 R(2,4)          =      1.171884     0.005011    -0.000254     1.171630
	    4 R(3,5)          =      1.422415    -0.017456    -0.002476     1.419939
	    5 R(5,6)          =      1.507967     0.009588     0.001520     1.509487
	    6 R(5,7)          =      1.086201     0.000300     0.000454     1.086655
	    7 R(5,8)          =      1.083008     0.000829     0.000297     1.083305
	    8 R(6,9)          =      1.082129     0.000935     0.000111     1.082240
	    9 R(6,10)         =      1.083821    -0.001889    -0.000265     1.083556
	   10 R(6,11)         =      1.081533     0.002058     0.000240     1.081773
	   11 B(1,2,3)        =    114.623911    -0.000360    -0.972545   113.651367
	   12 B(1,2,4)        =    121.976859     0.000051     0.202870   122.179729
	   13 B(2,3,5)        =    116.896079    -0.000166    -0.489584   116.406495
	   14 B(3,2,4)        =    123.391398     0.000312     0.691602   124.082999
	   15 B(3,5,6)        =    108.190968     0.000017     0.103129   108.294097
	   16 B(3,5,7)        =    109.492159    -0.000001     0.088322   109.580481
	   17 B(3,5,8)        =    108.657338    -0.000022    -0.130078   108.527260
	   18 B(5,6,9)        =    110.550668     0.000019     0.062894   110.613561
	   19 B(5,6,10)       =    109.922950    -0.000016    -0.052570   109.870380
	   20 B(5,6,11)       =    110.317362     0.000027     0.070025   110.387387
	   21 B(6,5,7)        =    110.876266     0.000001    -0.023292   110.852974
	   22 B(6,5,8)        =    111.104779     0.000019     0.044622   111.149401
	   23 B(7,5,8)        =    108.482952    -0.000015    -0.083468   108.399485
	   24 B(9,6,10)       =    108.658644    -0.000002     0.004332   108.662976
	   25 B(9,6,11)       =    108.626730    -0.000020    -0.049156   108.577574
	   26 B(10,6,11)      =    108.716163    -0.000009    -0.038012   108.678151
	   27 D(1,2,3,5)      =    -68.998498    -0.000027    -4.315105   -73.313603
	   28 D(2,3,5,6)      =    173.737464    -0.000001    -2.149912   171.587551
	   29 D(2,3,5,7)      =     52.792221    -0.000004    -2.237429    50.554791
	   30 D(2,3,5,8)      =    -65.532390     0.000004    -2.111441   -67.643831
	   31 D(3,5,6,9)      =    -60.352200    -0.000002    -0.430951   -60.783151
	   32 D(3,5,6,10)     =    179.693970    -0.000002    -0.442467   179.251503
	   33 D(3,5,6,11)     =     59.816362    -0.000001    -0.406102    59.410260
	   34 *D(4,2,3,5)     =    110.000020     0.000000    -0.000000   110.000020
	   35 D(7,5,6,9)      =     59.729681     0.000000    -0.271294    59.458387
	   36 D(7,5,6,10)     =    -60.224149     0.000000    -0.282810   -60.506959
	   37 D(7,5,6,11)     =    179.898243     0.000001    -0.246445   179.651798
	   38 D(8,5,6,9)      =   -179.546937    -0.000001    -0.362648  -179.909585
	   39 D(8,5,6,10)     =     60.499233    -0.000001    -0.374165    60.125069
	   40 D(8,5,6,11)     =    -59.378375     0.000000    -0.337799   -59.716174
	 ---------------------------------------------------------------------------

  ==> Convergence Check <==

  Measures of convergence in internal coordinates in au.
  Criteria marked as inactive (o), active & met (*), and active & unmet ( ).
  ---------------------------------------------------------------------------------------------
   Step     Total Energy     Delta E     MAX Force     RMS Force      MAX Disp      RMS Disp   
  ---------------------------------------------------------------------------------------------
    Convergence Criteria    1.00e-06 *    3.00e-04 *             o    1.20e-03 *             o
  ---------------------------------------------------------------------------------------------
      2    -266.91427389   -1.22e-03      4.74e-03      1.36e-03 o    7.53e-02      1.65e-02 o  ~
  ---------------------------------------------------------------------------------------------

	Writing optimization data to binary file.
	Structure for next step:
	Cartesian Geometry (in Angstrom)
	    H    -1.7223154570   0.8249134659   0.5673371851
	    C    -1.2113804838  -0.1297810420   0.4307418166
	    O     0.1161227745  -0.0272413090   0.4113400835
	    O    -1.7924264017  -1.1453502802   0.3697318597
	    C     0.6887191229   0.5392917925  -0.7580186091
	    C     2.1604844682   0.7601702605  -0.5056862391
	    H     0.1909594028   1.4770597545  -0.9896324909
	    H     0.5319890782  -0.1440868896  -1.5838390084
	    H     2.3070498071   1.4424957176   0.3214734673
	    H     2.6265182661   1.1807549427  -1.3888706594
	    H     2.6471947058  -0.1767361612  -0.2699917511
			--------------------------
			 OPTKING Finished Execution 
			--------------------------

    Structure for next step:
    Molecular point group: c1
    Full point group: C1

    Geometry (in Angstrom), charge = 0, multiplicity = 1:

    H           -1.715216682945     0.825979086801     0.579115932108
    C           -1.204281748769    -0.128715348250     0.442520574040
    O            0.123221408167    -0.026175623038     0.423118842500
    O           -1.785327622343    -1.144284508905     0.381510621803
    C            0.695817712795     0.540357435188    -0.746239760870
    C            2.167582945714     0.761235886319    -0.493907410157
    H            0.198058030706     1.478125325576    -0.977853624920
    H            0.539087680128    -0.143021194735    -1.572060097125
    H            2.314148273456     1.443561291297     0.333252233159
    H            2.633616708014     1.181820536380    -1.377091762936
    H            2.654293146210    -0.175670463840    -0.258212940116

gradient() will perform analytic gradient computation.

*** tstart() called on cx1-27-3-1
*** at Fri Sep  9 22:07:36 2016


         ---------------------------------------------------------
                                   SCF
            by Justin Turney, Rob Parrish, and Andy Simmonett
                              RHF Reference
                        4 Threads,   2000 MiB Core
         ---------------------------------------------------------

  ==> Geometry <==

    Molecular point group: c1
    Full point group: C1

    Geometry (in Angstrom), charge = 0, multiplicity = 1:

       Center              X                  Y                   Z               Mass       
    ------------   -----------------  -----------------  -----------------  -----------------
           H         -1.715216682945     0.825979086801     0.579115932108     1.007825032070
           C         -1.204281748769    -0.128715348250     0.442520574040    12.000000000000
           O          0.123221408167    -0.026175623038     0.423118842500    15.994914619560
           O         -1.785327622343    -1.144284508905     0.381510621803    15.994914619560
           C          0.695817712795     0.540357435188    -0.746239760870    12.000000000000
           C          2.167582945714     0.761235886319    -0.493907410157    12.000000000000
           H          0.198058030706     1.478125325576    -0.977853624920     1.007825032070
           H          0.539087680128    -0.143021194735    -1.572060097125     1.007825032070
           H          2.314148273456     1.443561291297     0.333252233159     1.007825032070
           H          2.633616708014     1.181820536380    -1.377091762936     1.007825032070
           H          2.654293146210    -0.175670463840    -0.258212940116     1.007825032070

  Running in c1 symmetry.

  Rotational constants: A =      0.80697  B =      0.08291  C =      0.08216 [cm^-1]
  Rotational constants: A =  24192.22130  B =   2485.45866  C =   2463.18588 [MHz]
  Nuclear repulsion =  177.047685015766234

  Charge       = 0
  Multiplicity = 1
  Electrons    = 40
  Nalpha       = 20
  Nbeta        = 20

  ==> Algorithm <==

  SCF Algorithm Type is DF.
  DIIS enabled.
  MOM disabled.
  Fractional occupation disabled.
  Guess Type is READ.
  Energy threshold   = 1.00e-08
  Density threshold  = 1.00e-08
  Integral threshold = 0.00e+00

  ==> Primary Basis <==

  Basis Set: CC-PVTZ
    Number of shells: 86
    Number of basis function: 234
    Number of Cartesian functions: 265
    Spherical Harmonics?: true
    Max angular momentum: 3

  ==> Pre-Iterations <==

   -------------------------------------------------------
    Irrep   Nso     Nmo     Nalpha   Nbeta   Ndocc  Nsocc
   -------------------------------------------------------
     A        234     234       0       0       0       0
   -------------------------------------------------------
    Total     234     234      20      20      20       0
   -------------------------------------------------------

 OEINTS: Overlap, kinetic, potential, dipole, and quadrupole integrals
         stored in file 35.

  ==> Integral Setup <==

  ==> DFJK: Density-Fitted J/K Matrices <==

    J tasked:                  Yes
    K tasked:                  Yes
    wK tasked:                  No
    OpenMP threads:              4
    Integrals threads:           4
    Memory (MB):              1430
    Algorithm:                Core
    Integral Cache:           NONE
    Schwarz Cutoff:          1E-12
    Fitting Condition:       1E-12

   => Auxiliary Basis Set <=

  Basis Set: 
    Number of shells: 185
    Number of basis function: 575
    Number of Cartesian functions: 690
    Spherical Harmonics?: true
    Max angular momentum: 4

  Minimum eigenvalue in the overlap matrix is 1.0046779097E-03.
  Using Symmetric Orthogonalization.
  SCF Guess: Reading in previously saved MOs, projecting if necessary.

  Using orbitals from previous SCF, no projection.
  Recomputing DOCC and SOCC from number of alpha and beta electrons from previous calculation.
              A 
    DOCC [    20 ]

  ==> Iterations <==

                           Total Energy        Delta E     RMS |[F,P]|

   @DF-RHF iter   0:  -266.91034284440593   -2.66910e+02   3.77067e-04 
   @DF-RHF iter   1:  -266.91402237599993   -3.67953e-03   5.50369e-05 
   @DF-RHF iter   2:  -266.91416925721535   -1.46881e-04   2.27003e-05 DIIS
   @DF-RHF iter   3:  -266.91420136744580   -3.21102e-05   1.45852e-05 DIIS
   @DF-RHF iter   4:  -266.91421116865217   -9.80121e-06   4.99644e-06 DIIS
   @DF-RHF iter   5:  -266.91421465383166   -3.48518e-06   1.95648e-06 DIIS
   @DF-RHF iter   6:  -266.91421516505272   -5.11221e-07   6.95964e-07 DIIS
   @DF-RHF iter   7:  -266.91421521963912   -5.45864e-08   2.81676e-07 DIIS
   @DF-RHF iter   8:  -266.91421522879443   -9.15531e-09   9.90077e-08 DIIS
   @DF-RHF iter   9:  -266.91421522981705   -1.02261e-09   3.62365e-08 DIIS
   @DF-RHF iter  10:  -266.91421522989776   -8.07177e-11   1.12623e-08 DIIS
   @DF-RHF iter  11:  -266.91421522990606   -8.29914e-12   3.28073e-09 DIIS

  ==> Post-Iterations <==

    Orbital Energies (a.u.)
    -----------------------

    Doubly Occupied:                                                      

       1A    -20.589479     2A    -20.558050     3A    -11.373240  
       4A    -11.302281     5A    -11.228868     6A     -1.471426  
       7A     -1.383732     8A     -1.051760     9A     -0.888084  
      10A     -0.834758    11A     -0.744159    12A     -0.693790  
      13A     -0.652502    14A     -0.639519    15A     -0.566744  
      16A     -0.544443    17A     -0.538739    18A     -0.507706  
      19A     -0.468468    20A     -0.456910  

    Virtual:                                                              

      21A      0.132848    22A      0.155250    23A      0.164881  
      24A      0.186835    25A      0.201091    26A      0.216671  
      27A      0.232486    28A      0.269282    29A      0.310392  
      30A      0.319367    31A      0.356999    32A      0.388950  
      33A      0.401021    34A      0.443213    35A      0.467649  
      36A      0.487858    37A      0.535002    38A      0.552894  
      39A      0.582446    40A      0.587447    41A      0.607913  
      42A      0.629033    43A      0.638785    44A      0.650875  
      45A      0.661933    46A      0.668829    47A      0.689128  
      48A      0.723591    49A      0.756223    50A      0.773352  
      51A      0.808852    52A      0.837409    53A      0.860340  
      54A      0.867737    55A      0.918469    56A      0.937336  
      57A      0.966852    58A      1.006280    59A      1.016146  
      60A      1.053007    61A      1.083237    62A      1.122084  
      63A      1.150199    64A      1.158084    65A      1.204723  
      66A      1.218259    67A      1.244538    68A      1.251462  
      69A      1.277091    70A      1.294473    71A      1.309410  
      72A      1.312773    73A      1.350115    74A      1.376552  
      75A      1.382457    76A      1.426133    77A      1.438160  
      78A      1.473624    79A      1.484632    80A      1.507643  
      81A      1.530967    82A      1.550474    83A      1.581513  
      84A      1.636914    85A      1.680522    86A      1.695175  
      87A      1.773145    88A      1.806411    89A      1.853188  
      90A      1.946084    91A      1.964441    92A      2.010882  
      93A      2.178474    94A      2.200244    95A      2.300794  
      96A      2.310900    97A      2.336237    98A      2.375076  
      99A      2.415815   100A      2.460970   101A      2.479356  
     102A      2.529431   103A      2.570256   104A      2.649446  
     105A      2.690903   106A      2.704814   107A      2.728201  
     108A      2.780316   109A      2.818101   110A      2.864303  
     111A      2.886231   112A      2.910789   113A      2.965996  
     114A      3.030594   115A      3.072234   116A      3.087014  
     117A      3.100116   118A      3.125476   119A      3.174333  
     120A      3.198604   121A      3.208298   122A      3.242434  
     123A      3.260118   124A      3.294240   125A      3.313592  
     126A      3.316886   127A      3.337056   128A      3.383113  
     129A      3.397320   130A      3.414748   131A      3.437905  
     132A      3.457875   133A      3.494784   134A      3.511479  
     135A      3.534036   136A      3.562266   137A      3.583316  
     138A      3.617816   139A      3.659102   140A      3.690300  
     141A      3.703415   142A      3.729637   143A      3.751259  
     144A      3.753533   145A      3.789808   146A      3.832418  
     147A      3.853875   148A      3.870575   149A      3.886220  
     150A      3.921981   151A      3.950777   152A      4.003014  
     153A      4.061700   154A      4.121071   155A      4.125054  
     156A      4.134604   157A      4.140811   158A      4.169881  
     159A      4.199251   160A      4.213448   161A      4.254352  
     162A      4.278172   163A      4.340410   164A      4.369505  
     165A      4.383604   166A      4.397234   167A      4.421746  
     168A      4.432673   169A      4.467153   170A      4.495482  
     171A      4.566405   172A      4.575012   173A      4.619716  
     174A      4.669620   175A      4.691411   176A      4.737107  
     177A      4.777640   178A      4.859992   179A      4.895866  
     180A      4.922811   181A      5.004895   182A      5.032943  
     183A      5.084764   184A      5.138240   185A      5.188101  
     186A      5.203080   187A      5.207227   188A      5.244445  
     189A      5.288380   190A      5.326134   191A      5.355244  
     192A      5.409784   193A      5.557476   194A      5.574483  
     195A      5.612065   196A      5.620603   197A      5.673774  
     198A      5.689705   199A      5.708834   200A      5.710994  
     201A      5.752034   202A      5.829787   203A      5.856165  
     204A      5.867766   205A      5.942813   206A      5.968889  
     207A      6.182028   208A      6.208465   209A      6.258514  
     210A      6.273966   211A      6.276637   212A      6.391694  
     213A      6.474240   214A      6.646056   215A      6.740774  
     216A      6.774134   217A      6.832642   218A      6.896405  
     219A      6.919566   220A      6.956221   221A      7.240508  
     222A      7.280383   223A      7.347191   224A      7.412585  
     225A      7.556524   226A      7.650468   227A      7.770118  
     228A      7.860183   229A      7.941733   230A     10.538719  
     231A     12.085305   232A     13.392370   233A     14.267283  
     234A     14.359646  

    Final Occupation by Irrep:
              A 
    DOCC [    20 ]

  Energy converged.

  @DF-RHF Final Energy:  -266.91421522990606

   => Energetics <=

    Nuclear Repulsion Energy =            177.0476850157662341
    One-Electron Energy =                -714.9344835509941731
    Two-Electron Energy =                 270.9725833053217343
    DFT Exchange-Correlation Energy =       0.0000000000000000
    Empirical Dispersion Energy =           0.0000000000000000
    PCM Polarization Energy =               0.0000000000000000
    EFP Energy =                            0.0000000000000000
    Total Energy =                       -266.9142152299062332

    Alert: EFP and PCM quantities not currently incorporated into SCF psivars.

Properties will be evaluated at   0.000000,   0.000000,   0.000000 Bohr
  ==> Properties <==


Properties computed using the SCF density matrix

  Nuclear Dipole Moment: (a.u.)
     X:     6.2018      Y:     4.3169      Z:    -3.0643

  Electronic Dipole Moment: (a.u.)
     X:    -5.5673      Y:    -3.1120      Z:     2.5445

  Dipole Moment: (a.u.)
     X:     0.6345      Y:     1.2049      Z:    -0.5198     Total:     1.4576

  Dipole Moment: (Debye)
     X:     1.6126      Y:     3.0625      Z:    -1.3213     Total:     3.7047


  Saving occupied orbitals to File 180.

*** tstop() called on cx1-27-3-1 at Fri Sep  9 22:07:41 2016
Module time:
	user time   =      15.34 seconds =       0.26 minutes
	system time =       0.22 seconds =       0.00 minutes
	total time  =          5 seconds =       0.08 minutes
Total time:
	user time   =     115.65 seconds =       1.93 minutes
	system time =       1.48 seconds =       0.02 minutes
	total time  =         34 seconds =       0.57 minutes

*** tstart() called on cx1-27-3-1
*** at Fri Sep  9 22:07:41 2016


         ------------------------------------------------------------
                                   SCF GRAD                          
                          Rob Parrish, Justin Turney,                
                       Andy Simmonett, and Alex Sokolov              
         ------------------------------------------------------------

  ==> Geometry <==

    Molecular point group: c1
    Full point group: C1

    Geometry (in Angstrom), charge = 0, multiplicity = 1:

       Center              X                  Y                   Z               Mass       
    ------------   -----------------  -----------------  -----------------  -----------------
           H         -1.715216682945     0.825979086801     0.579115932108     1.007825032070
           C         -1.204281748769    -0.128715348250     0.442520574040    12.000000000000
           O          0.123221408167    -0.026175623038     0.423118842500    15.994914619560
           O         -1.785327622343    -1.144284508905     0.381510621803    15.994914619560
           C          0.695817712795     0.540357435188    -0.746239760870    12.000000000000
           C          2.167582945714     0.761235886319    -0.493907410157    12.000000000000
           H          0.198058030706     1.478125325576    -0.977853624920     1.007825032070
           H          0.539087680128    -0.143021194735    -1.572060097125     1.007825032070
           H          2.314148273456     1.443561291297     0.333252233159     1.007825032070
           H          2.633616708014     1.181820536380    -1.377091762936     1.007825032070
           H          2.654293146210    -0.175670463840    -0.258212940116     1.007825032070

  Nuclear repulsion =  177.047685015766234

  ==> Basis Set <==

  Basis Set: CC-PVTZ
    Number of shells: 86
    Number of basis function: 234
    Number of Cartesian functions: 265
    Spherical Harmonics?: true
    Max angular momentum: 3

  ==> DFJKGrad: Density-Fitted SCF Gradients <==

    Gradient:                    1
    J tasked:                  Yes
    K tasked:                  Yes
    wK tasked:                  No
    OpenMP threads:              4
    Integrals threads:           4
    Memory (MB):              1430
    Schwarz Cutoff:          0E+00
    Fitting Condition:       1E-12

   => Auxiliary Basis Set <=

  Basis Set: 
    Number of shells: 185
    Number of basis function: 575
    Number of Cartesian functions: 690
    Spherical Harmonics?: true
    Max angular momentum: 4


  -Total Gradient:
     Atom            X                  Y                   Z
    ------   -----------------  -----------------  -----------------
       1       -0.001192746342    -0.000509386734     0.003313153836
       2        0.003839251776     0.000429499857    -0.003812540980
       3       -0.001799241323     0.003161568881     0.002456364327
       4       -0.000987303202    -0.000467651535    -0.000702464454
       5        0.000511414341    -0.002236600759    -0.001637200312
       6       -0.000076780687    -0.000220082574     0.000226534003
       7       -0.000108475278     0.000111845798     0.000035739527
       8       -0.000000467354    -0.000373532019     0.000226623063
       9       -0.000059360216    -0.000025500329    -0.000038469241
      10       -0.000028625648     0.000061455204    -0.000023759726
      11       -0.000097666070     0.000068384210    -0.000043980044


*** tstop() called on cx1-27-3-1 at Fri Sep  9 22:07:50 2016
Module time:
	user time   =      33.73 seconds =       0.56 minutes
	system time =       0.33 seconds =       0.01 minutes
	total time  =          9 seconds =       0.15 minutes
Total time:
	user time   =     149.40 seconds =       2.49 minutes
	system time =       1.81 seconds =       0.03 minutes
	total time  =         43 seconds =       0.72 minutes
CURRENT ENERGY: -266.9142152299

			-----------------------------------------
			 OPTKING 2.0: for geometry optimizations 
			  - R.A. King,  Bethel University        
			-----------------------------------------

	Previous internal coordinate definitions found.
	---Fragment 1 Geometry and Gradient---
	 H          -3.2412897893        1.5608742655        1.0943705109
	 C          -2.2757626920       -0.2432367573        0.8362426931
	 O           0.2328547151       -0.0494647589        0.7995787340
	 O          -3.3737802637       -2.1623843399        0.7209505920
	 C           1.3149049156        1.0211275664       -1.4101887775
	 C           4.0961381377        1.4385273477       -0.9333497402
	 H           0.3742754365        2.7932520554       -1.8478755491
	 H           1.0187280771       -0.2702708892       -2.9707630480
	 H           4.3731064677        2.7279354966        0.6297554538
	 H           4.9768143171        2.2333171520       -2.6023262918
	 H           5.0158871227       -0.3319690663       -0.4879517408
	            -0.0011927463       -0.0005093867        0.0033131538
	             0.0038392518        0.0004294999       -0.0038125410
	            -0.0017992413        0.0031615689        0.0024563643
	            -0.0009873032       -0.0004676515       -0.0007024645
	             0.0005114143       -0.0022366008       -0.0016372003
	            -0.0000767807       -0.0002200826        0.0002265340
	            -0.0001084753        0.0001118458        0.0000357395
	            -0.0000004674       -0.0003735320        0.0002266231
	            -0.0000593602       -0.0000255003       -0.0000384692
	            -0.0000286256        0.0000614552       -0.0000237597
	            -0.0000976661        0.0000683842       -0.0000439800

	---Fragment 1 Intrafragment Coordinates---
	 - Coordinate -           - BOHR/RAD -       - ANG/DEG -
	 R(1,2)           =         2.062447	       1.091400
	 R(2,3)           =         2.516357	       1.331599
	 R(2,4)           =         2.214060	       1.171630
	 R(3,5)           =         2.683295	       1.419939
	 R(5,6)           =         2.852518	       1.509487
	 R(5,7)           =         2.053480	       1.086655
	 R(5,8)           =         2.047150	       1.083305
	 R(6,9)           =         2.045136	       1.082240
	 R(6,10)          =         2.047624	       1.083556
	 R(6,11)          =         2.044254	       1.081773
	 B(1,2,3)         =         1.983591	     113.651367
	 B(1,2,4)         =         2.132439	     122.179729
	 B(2,3,5)         =         2.031677	     116.406495
	 B(3,2,4)         =         2.165657	     124.082999
	 B(3,5,6)         =         1.890089	     108.294097
	 B(3,5,7)         =         1.912540	     109.580481
	 B(3,5,8)         =         1.894158	     108.527260
	 B(5,6,9)         =         1.930571	     110.613561
	 B(5,6,10)        =         1.917600	     109.870380
	 B(5,6,11)        =         1.926623	     110.387387
	 B(6,5,7)         =         1.934749	     110.852974
	 B(6,5,8)         =         1.939923	     111.149401
	 B(7,5,8)         =         1.891928	     108.399485
	 B(9,6,10)        =         1.896527	     108.662976
	 B(9,6,11)        =         1.895036	     108.577574
	 B(10,6,11)       =         1.896792	     108.678151
	 D(1,2,3,5)       =        -1.279564	     -73.313603
	 D(2,3,5,6)       =         2.994768	     171.587551
	 D(2,3,5,7)       =         0.882348	      50.554791
	 D(2,3,5,8)       =        -1.180608	     -67.643831
	 D(3,5,6,9)       =        -1.060866	     -60.783151
	 D(3,5,6,10)      =         3.128529	     179.251503
	 D(3,5,6,11)      =         1.036905	      59.410260
	*D(4,2,3,5)       =         1.919863	     110.000020
	 D(7,5,6,9)       =         1.037745	      59.458387
	 D(7,5,6,10)      =        -1.056046	     -60.506959
	 D(7,5,6,11)      =         3.135515	     179.651798
	 D(8,5,6,9)       =        -3.140015	    -179.909585
	 D(8,5,6,10)      =         1.049380	      60.125069
	 D(8,5,6,11)      =        -1.042244	     -59.716174

	Current energy   :      -266.9142152299

	Energy change for the previous step:
		Projected    :         0.0003710332
		Actual       :         0.0000586563

	Performing BFGS update.
	Previous computed or guess Hessian on step 1.
	Steps to be used in Hessian update: 2 1
	Taking RFO optimization step.
	Going to follow RFO solution 1.
	Using RFO vector 1.
	Norm of target step-size    0.07537
	Projected energy change by RFO approximation:        -0.0000924720

	Back-transformation to cartesian coordinates...
	Successfully converged to displaced geometry.

	Back-transformation to cartesian coordinates to adjust frozen coordinates...
	Successfully converged to displaced geometry.

	--- Internal Coordinate Step in ANG or DEG, aJ/ANG or AJ/DEG ---
	 ---------------------------------------------------------------------------
	   Coordinate                Previous        Force       Change         New 
	   ----------                --------       ------       ------       ------
	    1 R(1,2)          =      1.091400    -0.004346    -0.001242     1.090158
	    2 R(2,3)          =      1.331599     0.013425     0.004265     1.335864
	    3 R(2,4)          =      1.171630    -0.007675    -0.000659     1.170971
	    4 R(3,5)          =      1.419939    -0.000384    -0.001953     1.417986
	    5 R(5,6)          =      1.509487     0.002082     0.001151     1.510638
	    6 R(5,7)          =      1.086655    -0.001142     0.000535     1.087190
	    7 R(5,8)          =      1.083305    -0.000519     0.000300     1.083605
	    8 R(6,9)          =      1.082240     0.000441     0.000086     1.082326
	    9 R(6,10)         =      1.083556    -0.000255    -0.000191     1.083365
	   10 R(6,11)         =      1.081773     0.000929     0.000182     1.081954
	   11 B(1,2,3)        =    113.651367    -0.000080    -0.588445   113.062921
	   12 B(1,2,4)        =    122.179729     0.000102     0.251083   122.430813
	   13 B(2,3,5)        =    116.406495    -0.000005    -0.404598   116.001897
	   14 B(3,2,4)        =    124.082999     0.000003     0.420269   124.503268
	   15 B(3,5,6)        =    108.294097     0.000016     0.127230   108.421327
	   16 B(3,5,7)        =    109.580481    -0.000007     0.086128   109.666609
	   17 B(3,5,8)        =    108.527260     0.000012    -0.045462   108.481798
	   18 B(5,6,9)        =    110.613561     0.000005     0.039503   110.653064
	   19 B(5,6,10)       =    109.870380     0.000002    -0.021295   109.849085
	   20 B(5,6,11)       =    110.387387     0.000004     0.029707   110.417094
	   21 B(6,5,7)        =    110.852974    -0.000005    -0.081934   110.771040
	   22 B(6,5,8)        =    111.149401    -0.000009    -0.003325   111.146075
	   23 B(7,5,8)        =    108.399485    -0.000007    -0.080406   108.319078
	   24 B(9,6,10)       =    108.662976    -0.000002     0.012012   108.674988
	   25 B(9,6,11)       =    108.577574    -0.000005    -0.036091   108.541483
	   26 B(10,6,11)      =    108.678151    -0.000004    -0.025302   108.652849
	   27 D(1,2,3,5)      =    -73.313603     0.000108     3.932010   -69.381593
	   28 D(2,3,5,6)      =    171.587551     0.000002    -0.625129   170.962422
[...]
     219A      6.919006   220A      6.960111   221A      7.242848  
     222A      7.283721   223A      7.348222   224A      7.405677  
     225A      7.557281   226A      7.647774   227A      7.771767  
     228A      7.862102   229A      7.941258   230A     10.543014  
     231A     12.073719   232A     13.398269   233A     14.275601  
     234A     14.346872  

    Final Occupation by Irrep:
              A 
    DOCC [    20 ]

  Energy converged.

  @DF-RHF Final Energy:  -266.91442781695906

   => Energetics <=

    Nuclear Repulsion Energy =            177.0800419525876919
    One-Electron Energy =                -714.9954580867565710
    Two-Electron Energy =                 271.0009883172099308
    DFT Exchange-Correlation Energy =       0.0000000000000000
    Empirical Dispersion Energy =           0.0000000000000000
    PCM Polarization Energy =               0.0000000000000000
    EFP Energy =                            0.0000000000000000
    Total Energy =                       -266.9144278169590052

    Alert: EFP and PCM quantities not currently incorporated into SCF psivars.

Properties will be evaluated at   0.000000,   0.000000,   0.000000 Bohr
  ==> Properties <==


Properties computed using the SCF density matrix

  Nuclear Dipole Moment: (a.u.)
     X:     6.1738      Y:     4.3311      Z:    -3.1517

  Electronic Dipole Moment: (a.u.)
     X:    -5.5588      Y:    -3.1271      Z:     2.6216

  Dipole Moment: (a.u.)
     X:     0.6150      Y:     1.2040      Z:    -0.5301     Total:     1.4522

  Dipole Moment: (Debye)
     X:     1.5631      Y:     3.0603      Z:    -1.3474     Total:     3.6911


  Saving occupied orbitals to File 180.

*** tstop() called on cx1-27-3-1 at Fri Sep  9 22:08:36 2016
Module time:
	user time   =      14.32 seconds =       0.24 minutes
	system time =       0.18 seconds =       0.00 minutes
	total time  =          4 seconds =       0.07 minutes
Total time:
	user time   =     310.20 seconds =       5.17 minutes
	system time =       3.66 seconds =       0.06 minutes
	total time  =         89 seconds =       1.48 minutes

*** tstart() called on cx1-27-3-1
*** at Fri Sep  9 22:08:36 2016


         ------------------------------------------------------------
                                   SCF GRAD                          
                          Rob Parrish, Justin Turney,                
                       Andy Simmonett, and Alex Sokolov              
         ------------------------------------------------------------

  ==> Geometry <==

    Molecular point group: c1
    Full point group: C1

    Geometry (in Angstrom), charge = 0, multiplicity = 1:

       Center              X                  Y                   Z               Mass       
    ------------   -----------------  -----------------  -----------------  -----------------
           H         -1.720044951086     0.825426620514     0.511701411800     1.007825032070
           C         -1.205435259795    -0.133736209404     0.443073529304    12.000000000000
           O          0.123402919465    -0.018127174394     0.429801042096    15.994914619560
           O         -1.775575312229    -1.154557032839     0.384077787513    15.994914619560
           C          0.688892037416     0.548786758098    -0.741661699202    12.000000000000
           C          2.164932985557     0.759517694005    -0.503532452709    12.000000000000
           H          0.196050824044     1.491146800580    -0.964901000589     1.007825032070
           H          0.520336999977    -0.127355131545    -1.571172855038     1.007825032070
           H          2.324785942588     1.439339431665     0.323328350231     1.007825032070
           H          2.624730680173     1.178362925733    -1.390740818083     1.007825032070
           H          2.648220815305    -0.180954125322    -0.274349894494     1.007825032070

  Nuclear repulsion =  177.080041952587692

  ==> Basis Set <==

  Basis Set: CC-PVTZ
    Number of shells: 86
    Number of basis function: 234
    Number of Cartesian functions: 265
    Spherical Harmonics?: true
    Max angular momentum: 3

  ==> DFJKGrad: Density-Fitted SCF Gradients <==

    Gradient:                    1
    J tasked:                  Yes
    K tasked:                  Yes
    wK tasked:                  No
    OpenMP threads:              4
    Integrals threads:           4
    Memory (MB):              1430
    Schwarz Cutoff:          0E+00
    Fitting Condition:       1E-12

   => Auxiliary Basis Set <=

  Basis Set: 
    Number of shells: 185
    Number of basis function: 575
    Number of Cartesian functions: 690
    Spherical Harmonics?: true
    Max angular momentum: 4


  -Total Gradient:
     Atom            X                  Y                   Z
    ------   -----------------  -----------------  -----------------
       1       -0.000013089908    -0.000006227711     0.000004604523
       2        0.000238713523    -0.001794721693     0.005714424043
       3       -0.000399090987     0.004457548087    -0.000167126036
       4       -0.000069674183     0.000287736951    -0.004245633210
       5        0.000240049400    -0.002934242776    -0.001305044968
       6        0.000004376341    -0.000007545993    -0.000001357453
       7       -0.000000867215     0.000002076809    -0.000006591469
       8        0.000002755107    -0.000003124764     0.000010261203
       9       -0.000004930860    -0.000001953641    -0.000002068710
      10        0.000000102684     0.000000157968    -0.000002450070
      11        0.000001656102     0.000000296762     0.000000982145


*** tstop() called on cx1-27-3-1 at Fri Sep  9 22:08:45 2016
Module time:
	user time   =      33.15 seconds =       0.55 minutes
	system time =       0.32 seconds =       0.01 minutes
	total time  =          9 seconds =       0.15 minutes
Total time:
	user time   =     343.37 seconds =       5.72 minutes
	system time =       3.98 seconds =       0.07 minutes
	total time  =         98 seconds =       1.63 minutes
CURRENT ENERGY: -266.9144278170

			-----------------------------------------
			 OPTKING 2.0: for geometry optimizations 
			  - R.A. King,  Bethel University        
			-----------------------------------------

	Previous internal coordinate definitions found.
	---Fragment 1 Geometry and Gradient---
	 H          -3.2504138938        1.5598302556        0.9669755301
	 C          -2.2779425119       -0.2527248098        0.8372876271
	 O           0.2331977218       -0.0342553952        0.8122062612
	 O          -3.3553510684       -2.1817965969        0.7258018321
	 C           1.3018172858        1.0370566782       -1.4015374947
	 C           4.0911304388        1.4352804348       -0.9515384346
	 H           0.3704823656        2.8178590770       -1.8233986365
	 H           0.9832944268       -0.2406663202       -2.9690864034
	 H           4.3932087491        2.7199573381        0.6110020329
	 H           4.9600221581        2.2267832148       -2.6281192680
	 H           5.0044120803       -0.3419537395       -0.5184461652
	            -0.0000130899       -0.0000062277        0.0000046045
	             0.0002387135       -0.0017947217        0.0057144240
	            -0.0003990910        0.0044575481       -0.0001671260
	            -0.0000696742        0.0002877370       -0.0042456332
	             0.0002400494       -0.0029342428       -0.0013050450
	             0.0000043763       -0.0000075460       -0.0000013575
	            -0.0000008672        0.0000020768       -0.0000065915
	             0.0000027551       -0.0000031248        0.0000102612
	            -0.0000049309       -0.0000019536       -0.0000020687
	             0.0000001027        0.0000001580       -0.0000024501
	             0.0000016561        0.0000002968        0.0000009821

	---Fragment 1 Intrafragment Coordinates---
	 - Coordinate -           - BOHR/RAD -       - ANG/DEG -
	 R(1,2)           =         2.061037	       1.090654
	 R(2,3)           =         2.520751	       1.333924
	 R(2,4)           =         2.212364	       1.170733
	 R(3,5)           =         2.681477	       1.418977
	 R(5,6)           =         2.853305	       1.509904
	 R(5,7)           =         2.053438	       1.086633
	 R(5,8)           =         2.047252	       1.083359
	 R(6,9)           =         2.045282	       1.082317
	 R(6,10)          =         2.047528	       1.083505
	 R(6,11)          =         2.044557	       1.081933
	 B(1,2,3)         =         1.976259	     113.231276
	 B(1,2,4)         =         2.141490	     122.698340
	 B(2,3,5)         =         2.026217	     116.093678
	 B(3,2,4)         =         2.165432	     124.070090
	 B(3,5,6)         =         1.891400	     108.369228
	 B(3,5,7)         =         1.912759	     109.592992
	 B(3,5,8)         =         1.897341	     108.709646
	 B(5,6,9)         =         1.931074	     110.642373
	 B(5,6,10)        =         1.917348	     109.855921
	 B(5,6,11)        =         1.927045	     110.411552
	 B(6,5,7)         =         1.933434	     110.777636
	 B(6,5,8)         =         1.939020	     111.097656
	 B(7,5,8)         =         1.889550	     108.263224
	 B(9,6,10)        =         1.896611	     108.667825
	 B(9,6,11)        =         1.894614	     108.553370
	 B(10,6,11)       =         1.896436	     108.657793
	 D(1,2,3,5)       =        -1.218364	     -69.807117
	 D(2,3,5,6)       =         3.017505	     172.890306
	 D(2,3,5,7)       =         0.905752	      51.895751
	 D(2,3,5,8)       =        -1.156319	     -66.252223
	 D(3,5,6,9)       =        -1.062801	     -60.894034
	 D(3,5,6,10)      =         3.126332	     179.125621
	 D(3,5,6,11)      =         1.035043	      59.303577
	*D(4,2,3,5)       =         1.919863	     110.000020
	 D(7,5,6,9)       =         1.036112	      59.364865
	 D(7,5,6,10)      =        -1.057940	     -60.615480
	 D(7,5,6,11)      =         3.133956	     179.562476
	 D(8,5,6,9)       =         3.137045	     179.739454
	 D(8,5,6,10)      =         1.042993	      59.759109
	 D(8,5,6,11)      =        -1.048296	     -60.062935

	Current energy   :      -266.9144278170

	Energy change for the previous step:
		Projected    :        -0.0000039886
		Actual       :        -0.0000014525

	Performing BFGS update.
	Previous computed or guess Hessian on step 1.
	Steps to be used in Hessian update: 6 5
	Taking RFO optimization step.
	Going to follow RFO solution 1.
	Using RFO vector 1.
	Norm of target step-size    0.00041
	Projected energy change by RFO approximation:        -0.0000000041

	Back-transformation to cartesian coordinates...
	Successfully converged to displaced geometry.

	Back-transformation to cartesian coordinates to adjust frozen coordinates...
	Successfully converged to displaced geometry.

	--- Internal Coordinate Step in ANG or DEG, aJ/ANG or AJ/DEG ---
	 ---------------------------------------------------------------------------
	   Coordinate                Previous        Force       Change         New 
	   ----------                --------       ------       ------       ------
	    1 R(1,2)          =      1.090654    -0.000008    -0.000002     1.090652
	    2 R(2,3)          =      1.333924     0.000079     0.000019     1.333943
	    3 R(2,4)          =      1.170733     0.000025    -0.000002     1.170731
	    4 R(3,5)          =      1.418977     0.000008    -0.000004     1.418972
	    5 R(5,6)          =      1.509904     0.000007     0.000003     1.509908
	    6 R(5,7)          =      1.086633    -0.000029    -0.000003     1.086630
	    7 R(5,8)          =      1.083359     0.000052     0.000010     1.083369
	    8 R(6,9)          =      1.082317     0.000029     0.000005     1.082322
	    9 R(6,10)         =      1.083505    -0.000017    -0.000003     1.083502
	   10 R(6,11)         =      1.081933    -0.000006    -0.000001     1.081932
	   11 B(1,2,3)        =    113.231276    -0.000001    -0.005854   113.225422
	   12 B(1,2,4)        =    122.698340     0.000001     0.004818   122.703158
	   13 B(2,3,5)        =    116.093678    -0.000000    -0.001795   116.091883
	   14 B(3,2,4)        =    124.070090     0.000000     0.001020   124.071110
	   15 B(3,5,6)        =    108.369228    -0.000000     0.000052   108.369280
	   16 B(3,5,7)        =    109.592992    -0.000000    -0.005232   109.587760
	   17 B(3,5,8)        =    108.709646     0.000001     0.005955   108.715601
	   18 B(5,6,9)        =    110.642373     0.000001     0.002682   110.645055
	   19 B(5,6,10)       =    109.855921     0.000000     0.000226   109.856147
	   20 B(5,6,11)       =    110.411552    -0.000000    -0.001577   110.409975
	   21 B(6,5,7)        =    110.777636    -0.000000    -0.003518   110.774118
	   22 B(6,5,8)        =    111.097656     0.000000     0.003713   111.101369
	   23 B(7,5,8)        =    108.263224    -0.000000    -0.000913   108.262311
	   24 B(9,6,10)       =    108.667825    -0.000000    -0.000650   108.667175
	   25 B(9,6,11)       =    108.553370    -0.000000    -0.000284   108.553086
	   26 B(10,6,11)      =    108.657793     0.000000    -0.000443   108.657350
	   27 D(1,2,3,5)      =    -69.807117     0.000000     0.005217   -69.801900
	   28 D(2,3,5,6)      =    172.890306    -0.000000    -0.001309   172.888997
	   29 D(2,3,5,7)      =     51.895751     0.000000     0.006096    51.901846
	   30 D(2,3,5,8)      =    -66.252223     0.000000     0.006721   -66.245502
	   31 D(3,5,6,9)      =    -60.894034     0.000000     0.009711   -60.884323
	   32 D(3,5,6,10)     =    179.125621     0.000000     0.008672   179.134293
	   33 D(3,5,6,11)     =     59.303577     0.000000     0.010069    59.313646
	   34 *D(4,2,3,5)     =    110.000020    -0.000000     0.000000   110.000020
	   35 D(7,5,6,9)      =     59.364865    -0.000000     0.001183    59.366048
	   36 D(7,5,6,10)     =    -60.615480    -0.000000     0.000144   -60.615336
	   37 D(7,5,6,11)     =    179.562476    -0.000000     0.001541   179.564017
	   38 D(8,5,6,9)      =    179.739454    -0.000000     0.000147   179.739602
	   39 D(8,5,6,10)     =     59.759109    -0.000000    -0.000892    59.758218
	   40 D(8,5,6,11)     =    -60.062935    -0.000000     0.000506   -60.062429
	 ---------------------------------------------------------------------------

  ==> Convergence Check <==

  Measures of convergence in internal coordinates in au.
  Criteria marked as inactive (o), active & met (*), and active & unmet ( ).
  ---------------------------------------------------------------------------------------------
   Step     Total Energy     Delta E     MAX Force     RMS Force      MAX Disp      RMS Disp   
  ---------------------------------------------------------------------------------------------
    Convergence Criteria    1.00e-06 *    3.00e-04 *             o    1.20e-03 *             o
  ---------------------------------------------------------------------------------------------
      7    -266.91442782   -1.45e-06      1.63e-05 *    5.20e-06 o    1.76e-04 *    6.50e-05 o  ~
  ---------------------------------------------------------------------------------------------


  **** Optimization is complete! (in 7 steps) ****

  ==> Optimization Summary <==

  Measures of convergence in internal coordinates in au.
  --------------------------------------------------------------------------------------------------------------- ~
   Step         Total Energy             Delta E       MAX Force       RMS Force        MAX Disp        RMS Disp  ~
  --------------------------------------------------------------------------------------------------------------- ~
      1    -266.913052199840   -266.913052199840      0.01965315      0.00500103      0.11929983      0.03506492  ~
      2    -266.914273886253     -0.001221686413      0.00473676      0.00136125      0.07531279      0.01654843  ~
      3    -266.914215229906      0.000058656347      0.00620455      0.00106798      0.06862653      0.01191172  ~
      4    -266.914397453300     -0.000182223394      0.00239771      0.00064421      0.05131349      0.01408916  ~
      5    -266.914425693360     -0.000028240060      0.00022238      0.00007749      0.02629116      0.00718466  ~
      6    -266.914426364507     -0.000000671148      0.00041808      0.00011612      0.00976509      0.00263288  ~
      7    -266.914427816959     -0.000001452452      0.00001632      0.00000520      0.00017574      0.00006504  ~
  --------------------------------------------------------------------------------------------------------------- ~

	Writing optimization data to binary file.
	Final energy is   -266.9144278169591
	Final (previous) structure:
	Cartesian Geometry (in Angstrom)
	    H    -1.7200450824   0.8254266835   0.5117014509
	    C    -1.2054353518  -0.1337362196   0.4430735631
	    O     0.1234029289  -0.0181271758   0.4298010749
	    O    -1.7755754478  -1.1545571210   0.3840778168
	    C     0.6888920900   0.5487868000  -0.7416617558
	    C     2.1649331509   0.7595177520  -0.5035324912
	    H     0.1960508390   1.4911469144  -0.9649010743
	    H     0.5203370397  -0.1273551413  -1.5711729750
	    H     2.3247861201   1.4393395416   0.3233283749
	    H     2.6247308806   1.1783630157  -1.3907409243
	    H     2.6482210175  -0.1809541391  -0.2743499154
	Saving final (previous) structure.
			--------------------------
			 OPTKING Finished Execution 
			--------------------------

    Final optimized geometry and variables:
    Molecular point group: c1
    Full point group: C1

    Geometry (in Angstrom), charge = 0, multiplicity = 1:

    H           -1.720044951086     0.825426620514     0.511701411800
    C           -1.205435259795    -0.133736209404     0.443073529304
    O            0.123402919465    -0.018127174394     0.429801042096
    O           -1.775575312229    -1.154557032839     0.384077787513
    C            0.688892037416     0.548786758098    -0.741661699202
    C            2.164932985557     0.759517694005    -0.503532452709
    H            0.196050824044     1.491146800580    -0.964901000589
    H            0.520336999977    -0.127355131545    -1.571172855038
    H            2.324785942588     1.439339431665     0.323328350231
    H            2.624730680173     1.178362925733    -1.390740818083
    H            2.648220815305    -0.180954125322    -0.274349894494

	Cleaning optimization helper files.


Properties will be evaluated at   0.000000,   0.000000,   0.000000 Bohr

Properties computed using the  density matrix

  Nuclear Dipole Moment: (a.u.)
     X:     6.1738      Y:     4.3311      Z:    -3.1517

  Electronic Dipole Moment: (a.u.)
     X:    -5.5588      Y:    -3.1271      Z:     2.6216

  Dipole Moment: (a.u.)
     X:     0.6150      Y:     1.2040      Z:    -0.5301     Total:     1.4522

  Dipole Moment: (Debye)
     X:     1.5631      Y:     3.0603      Z:    -1.3474     Total:     3.6911

  Quadrupole Moment: (Debye Ang)
    XX:   -31.8205     YY:   -32.1851     ZZ:   -29.1556
    XY:    -4.0239     XZ:    -0.9457     YZ:     0.6650

  Traceless Quadrupole Moment: (Debye Ang)
    XX:    -0.7668     YY:    -1.1314     ZZ:     1.8981
    XY:    -4.0239     XZ:    -0.9457     YZ:     0.6650

  Mulliken Charges: (a.u.)
   Center  Symbol    Alpha    Beta     Spin     Total
       1     H     0.47019  0.47019  0.00000  0.05963
       2     C     2.83944  2.83944  0.00000  0.32111
       3     O     4.15116  4.15116  0.00000 -0.30231
       4     O     4.16299  4.16299  0.00000 -0.32599
       5     C     2.97000  2.97000  0.00000  0.06000
       6     C     3.13336  3.13336  0.00000 -0.26673
       7     H     0.46625  0.46625  0.00000  0.06750
       8     H     0.45607  0.45607  0.00000  0.08787
       9     H     0.44948  0.44948  0.00000  0.10103
      10     H     0.45571  0.45571  0.00000  0.08857
      11     H     0.44534  0.44534  0.00000  0.10931

   Total alpha = 20.00000, Total beta = 20.00000, Total charge =  0.00000


*** PSI4 exiting successfully. Buy a developer a beer!
