    -----------------------------------------------------------------------
          Psi4: An Open-Source Ab Initio Electronic Structure Package
                              Psi4 (no tag) Driver

                          Git: Rev {detached?}  

    J. M. Turney, A. C. Simmonett, R. M. Parrish, E. G. Hohenstein,
    F. A. Evangelista, J. T. Fermann, B. J. Mintz, L. A. Burns, J. J. Wilke,
    M. L. Abrams, N. J. Russ, M. L. Leininger, C. L. Janssen, E. T. Seidl,
    W. D. Allen, H. F. Schaefer, R. A. King, E. F. Valeev, C. D. Sherrill,
    and T. D. Crawford, WIREs Comput. Mol. Sci. 2, 556-565 (2012)
    (doi: 10.1002/wcms.93)

                         Additional Contributions by
    A. E. DePrince, M. Saitow, U. Bozkaya, A. Yu. Sokolov
    -----------------------------------------------------------------------


    Psi4 started on: Thu Sep  1 22:18:17 2016

    Process ID:   7030
    PSI4DATADIR: /export131/home/mjharvey/miniconda3/share
    Memory level set to 256.000 MB

  ==> Input File <==

--------------------------------------------------------------------------
set {
	reference rhf
	basis 6-31G*
}


set_num_threads( 1 )
memory 2 gb

molecule MOL {
0 1

O	 2.200284	 -0.326412	 0.222469
C	 1.122059	 0.121804	 -0.000188
C	 -0.170150	 -0.657997	 -0.000612
O	 0.911685	 1.400730	 -0.284909
C	 -1.412532	 0.227344	 -0.000452
H	 -0.153702	 -1.313099	 -0.867402
H	 -0.153924	 -1.313811	 0.865644
C	 -2.706999	 -0.587347	 -0.000541
H	 -1.388000	 0.879466	 -0.868000
H	 -1.387972	 0.879138	 0.867341
C	 -3.956778	 0.291888	 0.000910
H	 -2.726114	 -1.239230	 -0.871609
H	 -2.725217	 -1.240844	 0.869333
H	 -3.985213	 0.933254	 -0.875158
H	 -4.860123	 -0.309979	 0.000519
H	 -3.984618	 0.931166	 0.878514
C	 2.046525	 2.247040	 -0.317118
H	 2.537384	 2.261298	 0.645348
H	 1.674883	 3.229837	 -0.561947
H	 2.747816	 1.913898	 -1.068593

	symmetry c1
}
set optking {
	frozen_dihedral = ("
		9 5 8 12,
		9 5 3 6,
		1 2 4 17
	")
}

ee = energy('scf')
oeprop('DIPOLE', 'QUADRUPOLE', 'MULLIKEN_CHARGES')
f=open( 'psi4out.xyz', 'w' )
f.write( "20  " )
f.write( str(ee) + "\n" )
f.write( MOL.save_string_xyz() )
f.close()
--------------------------------------------------------------------------

  Memory set to   2.000 GiB by Python script.

*** tstart() called on cx1-3-2-2.cx1.hpc.ic.ac.uk
*** at Thu Sep  1 22:18:18 2016


         ---------------------------------------------------------
                                   SCF
            by Justin Turney, Rob Parrish, and Andy Simmonett
                              RHF Reference
                        1 Threads,   2000 MiB Core
         ---------------------------------------------------------

  ==> Geometry <==

    Molecular point group: c1
    Full point group: C1

    Geometry (in Angstrom), charge = 0, multiplicity = 1:

       Center              X                  Y                   Z               Mass       
    ------------   -----------------  -----------------  -----------------  -----------------
           O          2.421472099757    -0.692969913091     0.272505814354    15.994914619560
           C          1.343247099757    -0.244753913091     0.049848814354    12.000000000000
           C          0.051038099757    -1.024554913091     0.049424814354    12.000000000000
           O          1.132873099757     1.034172086909    -0.234872185646    15.994914619560
           C         -1.191343900243    -0.139213913091     0.049584814354    12.000000000000
           H          0.067486099757    -1.679656913091    -0.817365185646     1.007825032070
           H          0.067264099757    -1.680368913091     0.915680814354     1.007825032070
           C         -2.485810900243    -0.953904913091     0.049495814354    12.000000000000
           H         -1.166811900243     0.512908086909    -0.817963185646     1.007825032070
           H         -1.166783900243     0.512580086909     0.917377814354     1.007825032070
           C         -3.735589900243    -0.074669913091     0.050946814354    12.000000000000
           H         -2.504925900243    -1.605787913091    -0.821572185646     1.007825032070
           H         -2.504028900243    -1.607401913091     0.919369814354     1.007825032070
           H         -3.764024900243     0.566696086909    -0.825121185646     1.007825032070
           H         -4.638934900243    -0.676536913091     0.050555814354     1.007825032070
           H         -3.763429900243     0.564608086909     0.928550814354     1.007825032070
           C          2.267713099757     1.880482086909    -0.267081185646    12.000000000000
           H          2.758572099757     1.894740086909     0.695384814354     1.007825032070
           H          1.896071099757     2.863279086909    -0.511910185646     1.007825032070
           H          2.969004099757     1.547340086909    -1.018556185646     1.007825032070

  Running in c1 symmetry.

  Rotational constants: A =      0.15358  B =      0.02955  C =      0.02542 [cm^-1]
  Rotational constants: A =   4604.31622  B =    885.91060  C =    761.96621 [MHz]
  Nuclear repulsion =  385.884344914115218

  Charge       = 0
  Multiplicity = 1
  Electrons    = 64
  Nalpha       = 32
  Nbeta        = 32

  ==> Algorithm <==

  SCF Algorithm Type is DF.
  DIIS enabled.
  MOM disabled.
  Fractional occupation disabled.
  Guess Type is CORE.
  Energy threshold   = 1.00e-06
  Density threshold  = 1.00e-06
  Integral threshold = 0.00e+00

  ==> Primary Basis <==

  Basis Set: 6-31G*
    Number of shells: 72
    Number of basis function: 144
    Number of Cartesian functions: 144
    Spherical Harmonics?: false
    Max angular momentum: 2

  ==> Pre-Iterations <==

   -------------------------------------------------------
    Irrep   Nso     Nmo     Nalpha   Nbeta   Ndocc  Nsocc
   -------------------------------------------------------
     A        144     144       0       0       0       0
   -------------------------------------------------------
    Total     144     144      32      32      32       0
   -------------------------------------------------------

 OEINTS: Overlap, kinetic, potential, dipole, and quadrupole integrals
         stored in file 35.

  ==> Integral Setup <==

  ==> DFJK: Density-Fitted J/K Matrices <==

    J tasked:                  Yes
    K tasked:                  Yes
    wK tasked:                  No
    OpenMP threads:              1
    Integrals threads:           1
    Memory (MB):              1430
    Algorithm:                Core
    Integral Cache:           NONE
    Schwarz Cutoff:          1E-12
    Fitting Condition:       1E-12

   => Auxiliary Basis Set <=

  Basis Set: 
    Number of shells: 300
    Number of basis function: 948
    Number of Cartesian functions: 948
    Spherical Harmonics?: false
    Max angular momentum: 3

  Minimum eigenvalue in the overlap matrix is 2.3459164052E-03.
  Using Symmetric Orthogonalization.
  SCF Guess: Core (One-Electron) Hamiltonian.

  ==> Iterations <==

                           Total Energy        Delta E     RMS |[F,P]|

   @DF-RHF iter   1:  -266.70647436699721   -2.66706e+02   7.16897e-02 
   @DF-RHF iter   2:  -112.25647314511798    1.54450e+02   8.32244e-02 DIIS
   @DF-RHF iter   3:  -245.04996285552716   -1.32793e+02   6.09568e-02 DIIS
   @DF-RHF iter   4:  -268.78590632571513   -2.37359e+01   6.59112e-02 DIIS
   @DF-RHF iter   5:  -375.56257123148657   -1.06777e+02   1.95045e-02 DIIS
   @DF-RHF iter   6:  -379.35301900926402   -3.79045e+00   1.95654e-02 DIIS
   @DF-RHF iter   7:  -383.69595401278184   -4.34294e+00   5.07128e-03 DIIS
   @DF-RHF iter   8:  -383.86697965086319   -1.71026e-01   2.82009e-03 DIIS
   @DF-RHF iter   9:  -383.93436370671714   -6.73841e-02   4.15533e-04 DIIS
   @DF-RHF iter  10:  -383.93746074763783   -3.09704e-03   1.12941e-04 DIIS
   @DF-RHF iter  11:  -383.93771458098058   -2.53833e-04   3.49854e-05 DIIS
   @DF-RHF iter  12:  -383.93774110079926   -2.65198e-05   1.39208e-05 DIIS
   @DF-RHF iter  13:  -383.93774443025256   -3.32945e-06   4.28892e-06 DIIS
   @DF-RHF iter  14:  -383.93774470389349   -2.73641e-07   1.38886e-06 DIIS
   @DF-RHF iter  15:  -383.93774473672181   -3.28283e-08   5.04640e-07 DIIS

  ==> Post-Iterations <==

    Orbital Energies (a.u.)
    -----------------------

    Doubly Occupied:                                                      

       1A    -20.605433     2A    -20.542630     3A    -11.372733  
       4A    -11.281372     5A    -11.235653     6A    -11.221655  
       7A    -11.221024     8A    -11.212622     9A     -1.470136  
      10A     -1.362037    11A     -1.092423    12A     -1.024980  
      13A     -0.964955    14A     -0.891389    15A     -0.805502  
      16A     -0.774594    17A     -0.694739    18A     -0.684875  
      19A     -0.671214    20A     -0.645891    21A     -0.593660  
      22A     -0.591652    23A     -0.579652    24A     -0.541648  
      25A     -0.532361    26A     -0.524907    27A     -0.503174  
      28A     -0.493314    29A     -0.478808    30A     -0.473480  
      31A     -0.451831    32A     -0.427510  

    Virtual:                                                              

      33A      0.196084    34A      0.225409    35A      0.256062  
      36A      0.263068    37A      0.279130    38A      0.293431  
      39A      0.311917    40A      0.316327    41A      0.323206  
      42A      0.328906    43A      0.339570    44A      0.341857  
      45A      0.345350    46A      0.369470    47A      0.389279  
      48A      0.420674    49A      0.433855    50A      0.488479  
      51A      0.526151    52A      0.589083    53A      0.712442  
      54A      0.727214    55A      0.735616    56A      0.745759  
      57A      0.746917    58A      0.758537    59A      0.784709  
      60A      0.810385    61A      0.823344    62A      0.846354  
      63A      0.909421    64A      0.940409    65A      0.948011  
      66A      0.988410    67A      0.997733    68A      1.014321  
      69A      1.074621    70A      1.094517    71A      1.108601  
      72A      1.120358    73A      1.133887    74A      1.137070  
      75A      1.161591    76A      1.169966    77A      1.186625  
      78A      1.194903    79A      1.204518    80A      1.208119  
      81A      1.219362    82A      1.228868    83A      1.253713  
      84A      1.263188    85A      1.277711    86A      1.314923  
      87A      1.325153    88A      1.402014    89A      1.427279  
      90A      1.482617    91A      1.618510    92A      1.623221  
      93A      1.668189    94A      1.716982    95A      1.736856  
      96A      1.786678    97A      1.818801    98A      1.863439  
      99A      1.917404   100A      1.960452   101A      1.990286  
     102A      2.026480   103A      2.104596   104A      2.130528  
     105A      2.148384   106A      2.179277   107A      2.208505  
     108A      2.241386   109A      2.247173   110A      2.297286  
     111A      2.304162   112A      2.325123   113A      2.381649  
     114A      2.386344   115A      2.416876   116A      2.448664  
     117A      2.479008   118A      2.526897   119A      2.596580  
     120A      2.608611   121A      2.657905   122A      2.675617  
     123A      2.696439   124A      2.728624   125A      2.755122  
     126A      2.808005   127A      2.829292   128A      2.922225  
     129A      2.976699   130A      3.011867   131A      3.081948  
     132A      3.096532   133A      3.184161   134A      3.351760  
     135A      3.441378   136A      3.581183   137A      4.429604  
     138A      4.549570   139A      4.621543   140A      4.655373  
     141A      4.714592   142A      4.764942   143A      4.888304  
     144A      5.049112  

    Final Occupation by Irrep:
              A 
    DOCC [    32 ]

  Energy converged.

  @DF-RHF Final Energy:  -383.93774473672181

   => Energetics <=

    Nuclear Repulsion Energy =            385.8843449141152178
    One-Electron Energy =               -1287.7084884467358279
    Two-Electron Energy =                 517.8863987958990265
    DFT Exchange-Correlation Energy =       0.0000000000000000
    Empirical Dispersion Energy =           0.0000000000000000
    PCM Polarization Energy =               0.0000000000000000
    EFP Energy =                            0.0000000000000000
    Total Energy =                       -383.9377447367215836

    Alert: EFP and PCM quantities not currently incorporated into SCF psivars.

Properties will be evaluated at   0.000000,   0.000000,   0.000000 Bohr
  ==> Properties <==


Properties computed using the SCF density matrix

  Nuclear Dipole Moment: (a.u.)
     X:   -10.9987      Y:     1.1382      Z:    -0.3613

  Electronic Dipole Moment: (a.u.)
     X:    10.3899      Y:    -0.6073      Z:     0.1729

  Dipole Moment: (a.u.)
     X:    -0.6088      Y:     0.5309      Z:    -0.1883     Total:     0.8295

  Dipole Moment: (Debye)
     X:    -1.5475      Y:     1.3495      Z:    -0.4787     Total:     2.1083


  Saving occupied orbitals to File 180.

*** tstop() called on cx1-3-2-2.cx1.hpc.ic.ac.uk at Thu Sep  1 22:18:33 2016
Module time:
	user time   =      15.06 seconds =       0.25 minutes
	system time =       0.15 seconds =       0.00 minutes
	total time  =         15 seconds =       0.25 minutes
Total time:
	user time   =      15.06 seconds =       0.25 minutes
	system time =       0.15 seconds =       0.00 minutes
	total time  =         15 seconds =       0.25 minutes


Properties will be evaluated at   0.000000,   0.000000,   0.000000 Bohr

Properties computed using the  density matrix

  Nuclear Dipole Moment: (a.u.)
     X:   -10.9987      Y:     1.1382      Z:    -0.3613

  Electronic Dipole Moment: (a.u.)
     X:    10.3899      Y:    -0.6073      Z:     0.1729

  Dipole Moment: (a.u.)
     X:    -0.6088      Y:     0.5309      Z:    -0.1883     Total:     0.8295

  Dipole Moment: (Debye)
     X:    -1.5475      Y:     1.3495      Z:    -0.4787     Total:     2.1083

  Quadrupole Moment: (Debye Ang)
    XX:   -55.5100     YY:   -47.7521     ZZ:   -48.8113
    XY:     7.4083     XZ:    -1.9375     YZ:     0.3992

  Traceless Quadrupole Moment: (Debye Ang)
    XX:    -4.8189     YY:     2.9390     ZZ:     1.8798
    XY:     7.4083     XZ:    -1.9375     YZ:     0.3992

  Mulliken Charges: (a.u.)
   Center  Symbol    Alpha    Beta     Spin     Total
       1     O     4.28831  4.28831  0.00000 -0.57661
       2     C     2.60170  2.60170  0.00000  0.79660
       3     C     3.21482  3.21482  0.00000 -0.42963
       4     O     4.30507  4.30507  0.00000 -0.61014
       5     C     3.15033  3.15033  0.00000 -0.30066
       6     H     0.39867  0.39867  0.00000  0.20266
       7     H     0.39806  0.39806  0.00000  0.20389
       8     C     3.15424  3.15424  0.00000 -0.30847
       9     H     0.41053  0.41053  0.00000  0.17893
      10     H     0.41638  0.41638  0.00000  0.16725
      11     C     3.23925  3.23925  0.00000 -0.47850
      12     H     0.42252  0.42252  0.00000  0.15496
      13     H     0.42233  0.42233  0.00000  0.15534
      14     H     0.42073  0.42073  0.00000  0.15855
      15     H     0.41815  0.41815  0.00000  0.16370
      16     H     0.42078  0.42078  0.00000  0.15845
      17     C     3.09211  3.09211  0.00000 -0.18421
      18     H     0.40855  0.40855  0.00000  0.18290
      19     H     0.40882  0.40882  0.00000  0.18235
      20     H     0.40867  0.40867  0.00000  0.18266

   Total alpha = 32.00000, Total beta = 32.00000, Total charge =  0.00000


*** PSI4 exiting successfully. Buy a developer a beer!
