    -----------------------------------------------------------------------
          Psi4: An Open-Source Ab Initio Electronic Structure Package
                              Psi4 (no tag) Driver

                          Git: Rev {detached?}  

    J. M. Turney, A. C. Simmonett, R. M. Parrish, E. G. Hohenstein,
    F. A. Evangelista, J. T. Fermann, B. J. Mintz, L. A. Burns, J. J. Wilke,
    M. L. Abrams, N. J. Russ, M. L. Leininger, C. L. Janssen, E. T. Seidl,
    W. D. Allen, H. F. Schaefer, R. A. King, E. F. Valeev, C. D. Sherrill,
    and T. D. Crawford, WIREs Comput. Mol. Sci. 2, 556-565 (2012)
    (doi: 10.1002/wcms.93)

                         Additional Contributions by
    A. E. DePrince, M. Saitow, U. Bozkaya, A. Yu. Sokolov
    -----------------------------------------------------------------------


    Psi4 started on: Fri Sep  2 13:15:48 2016

    Process ID:  23410
    PSI4DATADIR: /export131/home/mjharvey/miniconda3/share
    Memory level set to 256.000 MB

  ==> Input File <==

--------------------------------------------------------------------------
set {
	reference rhf
	basis 6-31G*
}


set_num_threads( 4 )
memory 2 gb

molecule MOL {
0 1

O	 -1.487788	 1.240889	 -0.102860
C	 -1.083277	 0.139568	 0.115197
C	 0.323299	 -0.082943	 0.642902
C	 -1.933017	 -1.084621	 -0.143902
C	 1.355627	 -0.005344	 -0.493127
H	 0.396251	 -1.044647	 1.143147
H	 0.528637	 0.693580	 1.371677
C	 1.155333	 1.223865	 -1.377534
H	 2.360126	 0.010252	 -0.075980
H	 1.280057	 -0.907677	 -1.090809
H	 1.891536	 1.252673	 -2.174319
H	 1.250670	 2.141594	 -0.804378
H	 0.170717	 1.219102	 -1.835306
H	 -1.393885	 -1.806447	 -0.750509
H	 -2.850323	 -0.799888	 -0.640100
H	 -2.169004	 -1.571158	 0.798858

	symmetry c1
}
set optking {
	frozen_dihedral = ("
		9 5 3 2
	")
}

ee = optimize('scf')
oeprop('DIPOLE', 'QUADRUPOLE', 'MULLIKEN_CHARGES')
f=open( 'psi4out.xyz', 'w' )
f.write( "16  " )
f.write( str(ee) + "\n" )
f.write( MOL.save_string_xyz() )
f.close()
--------------------------------------------------------------------------

  Memory set to   2.000 GiB by Python script.
gradient() will perform analytic gradient computation.

*** tstart() called on cx1-1-2-1.cx1.hpc.ic.ac.uk
*** at Fri Sep  2 13:15:49 2016


         ---------------------------------------------------------
                                   SCF
            by Justin Turney, Rob Parrish, and Andy Simmonett
                              RHF Reference
                        4 Threads,   2000 MiB Core
         ---------------------------------------------------------

  ==> Geometry <==

    Molecular point group: c1
    Full point group: C1

    Geometry (in Angstrom), charge = 0, multiplicity = 1:

       Center              X                  Y                   Z               Mass       
    ------------   -----------------  -----------------  -----------------  -----------------
           O         -1.203085815726     0.993248067128     0.138937495346    15.994914619560
           C         -0.798574815726    -0.108072932872     0.356994495346    12.000000000000
           C          0.608001184274    -0.330583932872     0.884699495346    12.000000000000
           C         -1.648314815726    -1.332261932872     0.097895495346    12.000000000000
           C          1.640329184274    -0.252984932872    -0.251329504654    12.000000000000
           H          0.680953184274    -1.292287932872     1.384944495346     1.007825032070
           H          0.813339184274     0.445939067128     1.613474495346     1.007825032070
           C          1.440035184274     0.976224067128    -1.135736504654    12.000000000000
           H          2.644828184274    -0.237388932872     0.165817495346     1.007825032070
           H          1.564759184274    -1.155317932872    -0.849011504654     1.007825032070
           H          2.176238184274     1.005032067128    -1.932521504654     1.007825032070
           H          1.535372184274     1.893953067128    -0.562580504654     1.007825032070
           H          0.455419184274     0.971461067128    -1.593508504654     1.007825032070
           H         -1.109182815726    -2.054087932872    -0.508711504654     1.007825032070
           H         -2.565620815726    -1.047528932872    -0.398302504654     1.007825032070
           H         -1.884301815726    -1.818798932872     1.040655495346     1.007825032070

  Running in c1 symmetry.

  Rotational constants: A =      0.18561  B =      0.08399  C =      0.07140 [cm^-1]
  Rotational constants: A =   5564.44535  B =   2517.80797  C =   2140.55433 [MHz]
  Nuclear repulsion =  244.591006630432048

  Charge       = 0
  Multiplicity = 1
  Electrons    = 48
  Nalpha       = 24
  Nbeta        = 24

  ==> Algorithm <==

  SCF Algorithm Type is DF.
  DIIS enabled.
  MOM disabled.
  Fractional occupation disabled.
  Guess Type is CORE.
  Energy threshold   = 1.00e-08
  Density threshold  = 1.00e-08
  Integral threshold = 0.00e+00

  ==> Primary Basis <==

  Basis Set: 6-31G*
    Number of shells: 56
    Number of basis function: 110
    Number of Cartesian functions: 110
    Spherical Harmonics?: false
    Max angular momentum: 2

  ==> Pre-Iterations <==

   -------------------------------------------------------
    Irrep   Nso     Nmo     Nalpha   Nbeta   Ndocc  Nsocc
   -------------------------------------------------------
     A        110     110       0       0       0       0
   -------------------------------------------------------
    Total     110     110      24      24      24       0
   -------------------------------------------------------

 OEINTS: Overlap, kinetic, potential, dipole, and quadrupole integrals
         stored in file 35.

  ==> Integral Setup <==

  ==> DFJK: Density-Fitted J/K Matrices <==

    J tasked:                  Yes
    K tasked:                  Yes
    wK tasked:                  No
    OpenMP threads:              4
    Integrals threads:           4
    Memory (MB):              1430
    Algorithm:                Core
    Integral Cache:           NONE
    Schwarz Cutoff:          1E-12
    Fitting Condition:       1E-12

   => Auxiliary Basis Set <=

  Basis Set: 
    Number of shells: 234
    Number of basis function: 736
    Number of Cartesian functions: 736
    Spherical Harmonics?: false
    Max angular momentum: 3

  Minimum eigenvalue in the overlap matrix is 3.8639025584E-03.
  Using Symmetric Orthogonalization.
  SCF Guess: Core (One-Electron) Hamiltonian.

  ==> Iterations <==

                           Total Energy        Delta E     RMS |[F,P]|

   @DF-RHF iter   1:  -209.19823722034835   -2.09198e+02   7.57167e-02 
   @DF-RHF iter   2:  -202.28049642305876    6.91774e+00   5.84224e-02 DIIS
   @DF-RHF iter   3:  -238.28330568774953   -3.60028e+01   5.00389e-02 DIIS
   @DF-RHF iter   4:  -268.87081953951781   -3.05875e+01   1.31572e-02 DIIS
   @DF-RHF iter   5:  -269.69405616019503   -8.23237e-01   8.15425e-03 DIIS
   @DF-RHF iter   6:  -270.00422400213745   -3.10168e-01   1.77764e-03 DIIS
   @DF-RHF iter   7:  -270.02103239192968   -1.68084e-02   7.52375e-04 DIIS
   @DF-RHF iter   8:  -270.02484427312402   -3.81188e-03   2.91848e-04 DIIS
   @DF-RHF iter   9:  -270.02567846833654   -8.34195e-04   6.81279e-05 DIIS
   @DF-RHF iter  10:  -270.02573837984312   -5.99115e-05   2.27402e-05 DIIS
   @DF-RHF iter  11:  -270.02574991405777   -1.15342e-05   1.11430e-05 DIIS
   @DF-RHF iter  12:  -270.02575451787891   -4.60382e-06   4.86729e-06 DIIS
   @DF-RHF iter  13:  -270.02575545272362   -9.34845e-07   1.93814e-06 DIIS
   @DF-RHF iter  14:  -270.02575558863259   -1.35909e-07   5.49086e-07 DIIS
   @DF-RHF iter  15:  -270.02575559539923   -6.76664e-09   1.68791e-07 DIIS
   @DF-RHF iter  16:  -270.02575559585364   -4.54406e-10   6.69570e-08 DIIS
   @DF-RHF iter  17:  -270.02575559593834   -8.46967e-11   1.80893e-08 DIIS
   @DF-RHF iter  18:  -270.02575559594447   -6.13909e-12   3.81585e-09 DIIS

  ==> Post-Iterations <==

    Orbital Energies (a.u.)
    -----------------------

    Doubly Occupied:                                                      

       1A    -20.548628     2A    -11.325766     3A    -11.231764  
       4A    -11.229796     5A    -11.229479     6A    -11.205664  
       7A     -1.395828     8A     -1.080699     9A     -1.012006  
      10A     -0.944136    11A     -0.828775    12A     -0.730777  
      13A     -0.656293    14A     -0.648877    15A     -0.619550  
      16A     -0.597226    17A     -0.581883    18A     -0.558623  
      19A     -0.534955    20A     -0.504947    21A     -0.498195  
      22A     -0.483294    23A     -0.467545    24A     -0.397536  

    Virtual:                                                              

      25A      0.163178    26A      0.220308    27A      0.269847  
      28A      0.286252    29A      0.293339    30A      0.296171  
      31A      0.310321    32A      0.330775    33A      0.343749  
      34A      0.344483    35A      0.356950    36A      0.381512  
      37A      0.400318    38A      0.436718    39A      0.491856  
      40A      0.524941    41A      0.710672    42A      0.720578  
      43A      0.746983    44A      0.759333    45A      0.783509  
      46A      0.811202    47A      0.842934    48A      0.879998  
      49A      0.900724    50A      0.909819    51A      0.949927  
      52A      0.983107    53A      1.017467    54A      1.028895  
      55A      1.093237    56A      1.113115    57A      1.134638  
      58A      1.148894    59A      1.158348    60A      1.182915  
      61A      1.188288    62A      1.204244    63A      1.206189  
      64A      1.231683    65A      1.241265    66A      1.264263  
      67A      1.330277    68A      1.376774    69A      1.415176  
      70A      1.437315    71A      1.479427    72A      1.663354  
      73A      1.696755    74A      1.747437    75A      1.814939  
      76A      1.874997    77A      1.884467    78A      1.997040  
      79A      2.059665    80A      2.094244    81A      2.121867  
      82A      2.156502    83A      2.183970    84A      2.258496  
      85A      2.276070    86A      2.315614    87A      2.320222  
      88A      2.385780    89A      2.444933    90A      2.484460  
      91A      2.511416    92A      2.618498    93A      2.672425  
      94A      2.685912    95A      2.708050    96A      2.725836  
      97A      2.743825    98A      2.841120    99A      2.937238  
     100A      3.000929   101A      3.049191   102A      3.116934  
     103A      3.374722   104A      3.382087   105A      4.455402  
     106A      4.526550   107A      4.621540   108A      4.758884  
     109A      4.887425   110A      4.983141  

    Final Occupation by Irrep:
              A 
    DOCC [    24 ]

  Energy converged.

  @DF-RHF Final Energy:  -270.02575559594447

   => Energetics <=

    Nuclear Repulsion Energy =            244.5910066304320480
    One-Electron Energy =                -850.6090382818324542
    Two-Electron Energy =                 335.9922760554560455
    DFT Exchange-Correlation Energy =       0.0000000000000000
    Empirical Dispersion Energy =           0.0000000000000000
    PCM Polarization Energy =               0.0000000000000000
    EFP Energy =                            0.0000000000000000
    Total Energy =                       -270.0257555959443607

    Alert: EFP and PCM quantities not currently incorporated into SCF psivars.

Properties will be evaluated at   0.000000,   0.000000,   0.000000 Bohr
  ==> Properties <==


Properties computed using the SCF density matrix

  Nuclear Dipole Moment: (a.u.)
     X:     4.0364      Y:    -3.0786      Z:    -1.5365

  Electronic Dipole Moment: (a.u.)
     X:    -3.5906      Y:     2.0202      Z:     1.7244

  Dipole Moment: (a.u.)
     X:     0.4458      Y:    -1.0584      Z:     0.1878     Total:     1.1638

  Dipole Moment: (Debye)
     X:     1.1332      Y:    -2.6903      Z:     0.4774     Total:     2.9580


  Saving occupied orbitals to File 180.

*** tstop() called on cx1-1-2-1.cx1.hpc.ic.ac.uk at Fri Sep  2 13:15:53 2016
Module time:
	user time   =      10.47 seconds =       0.17 minutes
	system time =       0.11 seconds =       0.00 minutes
	total time  =          4 seconds =       0.07 minutes
Total time:
	user time   =      10.47 seconds =       0.17 minutes
	system time =       0.11 seconds =       0.00 minutes
	total time  =          4 seconds =       0.07 minutes

*** tstart() called on cx1-1-2-1.cx1.hpc.ic.ac.uk
*** at Fri Sep  2 13:15:53 2016


         ------------------------------------------------------------
                                   SCF GRAD                          
                          Rob Parrish, Justin Turney,                
                       Andy Simmonett, and Alex Sokolov              
         ------------------------------------------------------------

  ==> Geometry <==

    Molecular point group: c1
    Full point group: C1

    Geometry (in Angstrom), charge = 0, multiplicity = 1:

       Center              X                  Y                   Z               Mass       
    ------------   -----------------  -----------------  -----------------  -----------------
           O         -1.203085815726     0.993248067128     0.138937495346    15.994914619560
           C         -0.798574815726    -0.108072932872     0.356994495346    12.000000000000
           C          0.608001184274    -0.330583932872     0.884699495346    12.000000000000
           C         -1.648314815726    -1.332261932872     0.097895495346    12.000000000000
           C          1.640329184274    -0.252984932872    -0.251329504654    12.000000000000
           H          0.680953184274    -1.292287932872     1.384944495346     1.007825032070
           H          0.813339184274     0.445939067128     1.613474495346     1.007825032070
           C          1.440035184274     0.976224067128    -1.135736504654    12.000000000000
           H          2.644828184274    -0.237388932872     0.165817495346     1.007825032070
           H          1.564759184274    -1.155317932872    -0.849011504654     1.007825032070
           H          2.176238184274     1.005032067128    -1.932521504654     1.007825032070
           H          1.535372184274     1.893953067128    -0.562580504654     1.007825032070
           H          0.455419184274     0.971461067128    -1.593508504654     1.007825032070
           H         -1.109182815726    -2.054087932872    -0.508711504654     1.007825032070
           H         -2.565620815726    -1.047528932872    -0.398302504654     1.007825032070
           H         -1.884301815726    -1.818798932872     1.040655495346     1.007825032070

  Nuclear repulsion =  244.591006630432048

  ==> Basis Set <==

  Basis Set: 6-31G*
    Number of shells: 56
    Number of basis function: 110
    Number of Cartesian functions: 110
    Spherical Harmonics?: false
    Max angular momentum: 2

  ==> DFJKGrad: Density-Fitted SCF Gradients <==

    Gradient:                    1
    J tasked:                  Yes
    K tasked:                  Yes
    wK tasked:                  No
    OpenMP threads:              4
    Integrals threads:           4
    Memory (MB):              1430
    Schwarz Cutoff:          0E+00
    Fitting Condition:       1E-12

   => Auxiliary Basis Set <=

  Basis Set: 
    Number of shells: 234
    Number of basis function: 736
    Number of Cartesian functions: 736
    Spherical Harmonics?: false
    Max angular momentum: 3


  -Total Gradient:
     Atom            X                  Y                   Z
    ------   -----------------  -----------------  -----------------
       1        0.004025192484     0.001053681997    -0.003112963001
       2        0.001675797218     0.002129679841    -0.003455551284
       3       -0.000818163344    -0.000854251565    -0.003561892494
       4        0.000080744145    -0.000109685286     0.000221653645
       5        0.000513205897    -0.001873804363     0.002987536789
       6       -0.000146791998    -0.000791857705    -0.000310219799
       7        0.001117310963    -0.000503397522     0.000199995456
       8       -0.001952847825    -0.001203753307     0.005889495610
       9        0.002592460702     0.001882859098    -0.001594654022
      10       -0.001327371196     0.000760685719     0.002509703766
      11       -0.001529191459     0.000895959181    -0.000424365895
      12        0.001312936430     0.001000794442     0.000362362600
      13       -0.005472076895    -0.002454574959     0.000173104529
      14       -0.000101395265     0.000066529896     0.000101306742
      15        0.000074569930     0.000008341300    -0.000015578694
      16       -0.000044379788    -0.000007206769     0.000030066050


*** tstop() called on cx1-1-2-1.cx1.hpc.ic.ac.uk at Fri Sep  2 13:15:57 2016
Module time:
	user time   =      14.05 seconds =       0.23 minutes
	system time =       0.14 seconds =       0.00 minutes
	total time  =          4 seconds =       0.07 minutes
Total time:
	user time   =      24.53 seconds =       0.41 minutes
	system time =       0.25 seconds =       0.00 minutes
	total time  =          8 seconds =       0.13 minutes
CURRENT ENERGY: -270.0257555959

			-----------------------------------------
			 OPTKING 2.0: for geometry optimizations 
			  - R.A. King,  Bethel University        
			-----------------------------------------

	Internal coordinates to be generated automatically.
	Detected frag with atoms:  1 2 3 4 5 6 7 8 9 10 11 12 13 14 15 16
	---Fragment 1 Bond Connectivity---
	 1 : 2
	 2 : 1 3 4
	 3 : 2 5 6 7
	 4 : 2 14 15 16
	 5 : 3 8 9 10
	 6 : 3
	 7 : 3
	 8 : 5 11 12 13
	 9 : 5
	 10 : 5
	 11 : 8
	 12 : 8
	 13 : 8
	 14 : 4
	 15 : 4
	 16 : 4

	Assuming in current code that numbering for constraints corresponds to unified fragment.
	Frozen dihedral atom list: 
	     9     5     3     2
	---Fragment 1 Geometry and Gradient---
	 O          -2.2735027061        1.8769668289        0.2625538158
	 C          -1.5090876983       -0.2042282455        0.6746218272
	 C           1.1489557267       -0.6247130971        1.6718397561
	 C          -3.1148635825       -2.5176101904        0.1849956758
	 C           3.0997729261       -0.4780722389       -0.4749439329
	 H           1.2868150276       -2.4420702780        2.6171658055
	 H           1.5369883114        0.8427027088        3.0490249186
	 C           2.7212721200        1.8447961312       -2.1462309529
	 H           4.9980009368       -0.4486000701        0.3133496542
	 H           2.9569663222       -2.1832344895       -1.6043992275
	 H           4.1124941682        1.8992353616       -3.6519363897
	 H           2.9014329403        3.5790526054       -1.0631230815
	 H           0.8606175339        1.8357953656       -3.0112946642
	 H          -2.0960517530       -3.8816636460       -0.9613254244
	 H          -4.8483207026       -1.9795427994       -0.7526826518
	 H          -3.5608143834       -3.4370318739        1.9665538849
	             0.0040251925        0.0010536820       -0.0031129630
	             0.0016757972        0.0021296798       -0.0034555513
	            -0.0008181633       -0.0008542516       -0.0035618925
	             0.0000807441       -0.0001096853        0.0002216536
	             0.0005132059       -0.0018738044        0.0029875368
	            -0.0001467920       -0.0007918577       -0.0003102198
	             0.0011173110       -0.0005033975        0.0001999955
	            -0.0019528478       -0.0012037533        0.0058894956
	             0.0025924607        0.0018828591       -0.0015946540
	            -0.0013273712        0.0007606857        0.0025097038
	            -0.0015291915        0.0008959592       -0.0004243659
	             0.0013129364        0.0010007944        0.0003623626
	            -0.0054720769       -0.0024545750        0.0001731045
	            -0.0001013953        0.0000665299        0.0001013067
	             0.0000745699        0.0000083413       -0.0000155787
	            -0.0000443798       -0.0000072068        0.0000300661

	Previous optimization step data not found.  Starting new optimization.

	---Fragment 1 Intrafragment Coordinates---
	 - Coordinate -           - BOHR/RAD -       - ANG/DEG -
	 R(1,2)           =         2.255106	       1.193351
	 R(2,3)           =         2.869921	       1.518697
	 R(2,4)           =         2.858319	       1.512557
	 R(3,5)           =         2.904457	       1.536973
	 R(3,6)           =         2.053152	       1.086481
	 R(3,7)           =         2.049516	       1.084557
	 R(4,14)          =         2.052479	       1.086125
	 R(4,15)          =         2.042947	       1.081081
	 R(4,16)          =         2.053815	       1.086832
	 R(5,8)           =         2.886552	       1.527497
	 R(5,9)           =         2.055613	       1.087784
	 R(5,10)          =         2.050278	       1.084961
	 R(8,11)          =         2.050759	       1.085215
	 R(8,12)          =         2.052614	       1.086197
	 R(8,13)          =         2.051939	       1.085839
	 B(1,2,3)         =         2.109069	     120.840738
	 B(1,2,4)         =         2.123750	     121.681920
	 B(2,3,5)         =         1.936761	     110.968248
	 B(2,3,6)         =         1.930355	     110.601216
	 B(2,3,7)         =         1.879617	     107.694150
	 B(2,4,14)        =         1.933383	     110.774690
	 B(2,4,15)        =         1.919992	     110.007416
	 B(2,4,16)        =         1.913155	     109.615731
	 B(3,2,4)         =         2.050206	     117.468125
	 B(3,5,8)         =         1.961143	     112.365192
	 B(3,5,9)         =         1.915074	     109.725636
	 B(3,5,10)        =         1.894838	     108.566247
	 B(5,3,6)         =         1.917615	     109.871272
	 B(5,3,7)         =         1.910653	     109.472351
	 B(5,8,11)        =         1.936400	     110.947549
	 B(5,8,12)        =         1.942156	     111.277364
	 B(5,8,13)        =         1.938491	     111.067350
	 B(6,3,7)         =         1.887731	     108.159014
	 B(8,5,9)         =         1.908776	     109.364822
	 B(8,5,10)        =         1.918966	     109.948657
	 B(9,5,10)        =         1.862408	     106.708134
	 B(11,8,12)       =         1.881212	     107.785521
	 B(11,8,13)       =         1.881507	     107.802392
	 B(12,8,13)       =         1.881526	     107.803496
	 B(14,4,15)       =         1.917582	     109.869361
	 B(14,4,16)       =         1.869976	     107.141753
	 B(15,4,16)       =         1.909014	     109.378421
	 D(1,2,3,5)       =        -1.398526	     -80.129663
	 D(1,2,3,6)       =         2.751795	     157.666230
	 D(1,2,3,7)       =         0.692385	      39.670739
	 D(1,2,4,14)      =         2.239463	     128.311757
	 D(1,2,4,15)      =         0.115963	       6.644197
	 D(1,2,4,16)      =        -1.983800	    -113.663361
	 D(2,3,5,8)       =         0.839506	      48.100161
	*D(2,3,5,9)       =         2.967060	     170.000041
	 D(2,3,5,10)      =        -1.286811	     -73.728858
	 D(3,2,4,14)      =        -0.883002	     -50.592293
	 D(3,2,4,15)      =        -3.006502	    -172.259854
	 D(3,2,4,16)      =         1.176921	      67.432589
	 D(3,5,8,11)      =        -3.135647	    -179.659312
	 D(3,5,8,12)      =         1.053056	      60.335655
	 D(3,5,8,13)      =        -1.043229	     -59.772634
	 D(4,2,3,5)       =         1.724108	      98.784114
	 D(4,2,3,6)       =        -0.408756	     -23.419994
	 D(4,2,3,7)       =        -2.468166	    -141.415485
	 D(6,3,5,8)       =         2.979766	     170.728032
	 D(6,3,5,9)       =        -1.175865	     -67.372088
	 D(6,3,5,10)      =         0.853449	      48.899013
	 D(7,3,5,8)       =        -1.232785	     -70.633385
	 D(7,3,5,9)       =         0.894769	      51.266495
	 D(7,3,5,10)      =         2.924083	     167.537596
	 D(9,5,8,11)      =         1.016407	      58.235837
	 D(9,5,8,12)      =        -1.078076	     -61.769196
	 D(9,5,8,13)      =         3.108824	     178.122515
	 D(10,5,8,11)     =        -1.023120	     -58.620484
	 D(10,5,8,12)     =        -3.117603	    -178.625517
	 D(10,5,8,13)     =         1.069297	      61.266194
	 R(1,8)           =         5.545363	       2.934480

	Current energy   :      -270.0257555959

	Generating empirical Hessian (Schlegel '84) for each fragment.
	Taking RFO optimization step.
	Going to follow RFO solution 1.
	Using RFO vector 1.
	Norm of target step-size    0.44340
	Projected energy change by RFO approximation:        -0.0064938639

	Back-transformation to cartesian coordinates...
	Successfully converged to displaced geometry.

	Back-transformation to cartesian coordinates to adjust frozen coordinates...
	Successfully converged to displaced geometry.

	--- Internal Coordinate Step in ANG or DEG, aJ/ANG or AJ/DEG ---
	 ---------------------------------------------------------------------------
	   Coordinate                Previous        Force       Change         New 
	   ----------                --------       ------       ------       ------
	    1 R(1,2)          =      1.193351    -0.018275    -0.000763     1.192588
	    2 R(2,3)          =      1.518697    -0.027800    -0.002663     1.516033
	    3 R(2,4)          =      1.512557     0.000240     0.000049     1.512606
	    4 R(3,5)          =      1.536973     0.025848     0.010110     1.547083
	    5 R(3,6)          =      1.086481    -0.004517    -0.000813     1.085669
	    6 R(3,7)          =      1.084557     0.000119     0.000021     1.084579
	    7 R(4,14)         =      1.086125     0.001245     0.000224     1.086349
	    8 R(4,15)         =      1.081081     0.000444     0.000079     1.081159
	    9 R(4,16)         =      1.086832    -0.000321    -0.000058     1.086775
	   10 R(5,8)          =      1.527497     0.022688     0.005445     1.532942
	   11 R(5,9)          =      1.087784    -0.014908    -0.002694     1.085089
	   12 R(5,10)         =      1.084961     0.015841     0.002837     1.087797
	   13 R(8,11)         =      1.085215     0.005784     0.001037     1.086251
	   14 R(8,12)         =      1.086197    -0.009491    -0.001706     1.084490
	   15 R(8,13)         =      1.085839    -0.040368    -0.007250     1.078590
	   16 B(1,2,3)        =    120.840738    -0.000326    -0.391791   120.448947
	   17 B(1,2,4)        =    121.681920     0.000153     0.146209   121.828129
	   18 B(2,3,5)        =    110.968248     0.000039     1.759541   112.727789
	   19 B(2,3,6)        =    110.601216    -0.000007    -0.101566   110.499650
	   20 B(2,3,7)        =    107.694150    -0.000065    -1.083914   106.610236
	   21 B(2,4,14)       =    110.774690    -0.000005    -0.025224   110.749467
	   22 B(2,4,15)       =    110.007416     0.000005     0.025904   110.033320
	   23 B(2,4,16)       =    109.615731    -0.000002    -0.010113   109.605617
	   24 B(3,2,4)        =    117.468125     0.000173     0.203716   117.671841
	   25 B(3,5,8)        =    112.365192     0.000415     2.695986   115.061177
	   26 B(3,5,9)        =    109.725636    -0.000369    -3.253467   106.472169
	   27 B(3,5,10)       =    108.566247     0.000103     2.001880   110.568126
	   28 B(5,3,6)        =    109.871272     0.000043    -0.106065   109.765207
	   29 B(5,3,7)        =    109.472351    -0.000014    -0.248981   109.223370
	   30 B(5,8,11)       =    110.947549    -0.000234    -1.241802   109.705747
	   31 B(5,8,12)       =    111.277364    -0.000035    -0.211834   111.065530
	   32 B(5,8,13)       =    111.067350     0.000403     2.058287   113.125637
	   33 B(6,3,7)        =    108.159014     0.000001    -0.311616   107.847398
	   34 B(8,5,9)        =    109.364822    -0.000029    -1.819453   107.545369
	   35 B(8,5,10)       =    109.948657    -0.000205     0.018691   109.967348
	   36 B(9,5,10)       =    106.708134     0.000067     0.092072   106.800207
	   37 B(11,8,12)      =    107.785521     0.000082    -0.036696   107.748824
	   38 B(11,8,13)      =    107.802392    -0.000077    -0.264071   107.538322
	   39 B(12,8,13)      =    107.803496    -0.000147    -0.355247   107.448249
	   40 B(14,4,15)      =    109.869361     0.000001     0.009929   109.879290
	   41 B(14,4,16)      =    107.141753     0.000002    -0.000773   107.140980
	   42 B(15,4,16)      =    109.378421    -0.000001    -0.000412   109.378009
	   43 D(1,2,3,5)      =    -80.129663     0.000024     0.470901   -79.658761
	   44 D(1,2,3,6)      =    157.666230     0.000007    -0.557101   157.109128
	   45 D(1,2,3,7)      =     39.670739     0.000016     0.503223    40.173962
	   46 D(1,2,4,14)     =    128.311757    -0.000008    -0.965652   127.346105
	   47 D(1,2,4,15)     =      6.644197    -0.000008    -0.978804     5.665393
	   48 D(1,2,4,16)     =   -113.663361    -0.000008    -0.988129  -114.651490
	   49 D(2,3,5,8)      =     48.100161     0.000004     2.867807    50.967968
	   50 *D(2,3,5,9)     =    170.000041    -0.000000     0.000000   170.000041
	   51 D(2,3,5,10)     =    -73.728858    -0.000015    -0.620634   -74.349491
	   52 D(3,2,4,14)     =    -50.592293     0.000007     0.527986   -50.064307
	   53 D(3,2,4,15)     =   -172.259854     0.000007     0.514834  -171.745020
	   54 D(3,2,4,16)     =     67.432589     0.000006     0.505509    67.938097
	   55 D(3,5,8,11)     =   -179.659312    -0.000054    -8.976029  -188.635341
	   56 D(3,5,8,12)     =     60.335655    -0.000036    -7.980506    52.355149
	   57 D(3,5,8,13)     =    -59.772634    -0.000051    -8.795422   -68.568056
	   58 D(4,2,3,5)      =     98.784114     0.000011    -0.995048    97.789066
	   59 D(4,2,3,6)      =    -23.419994    -0.000007    -2.023050   -25.443044
	   60 D(4,2,3,7)      =   -141.415485     0.000003    -0.962726  -142.378210
	   61 D(6,3,5,8)      =    170.728032     0.000015     3.879815   174.607847
	   62 D(6,3,5,9)      =    -67.372088     0.000011     1.012009   -66.360079
	   63 D(6,3,5,10)     =     48.899013    -0.000004     0.391375    49.290388
	   64 D(7,3,5,8)      =    -70.633385     0.000019     3.288424   -67.344962
	   65 D(7,3,5,9)      =     51.266495     0.000015     0.420617    51.687112
	   66 D(7,3,5,10)     =    167.537596     0.000000    -0.200016   167.337579
	   67 D(9,5,8,11)     =     58.235837    -0.000006    -5.304417    52.931420
	   68 D(9,5,8,12)     =    -61.769196     0.000012    -4.308893   -66.078089
	   69 D(9,5,8,13)     =    178.122515    -0.000002    -5.123809   172.998706
	   70 D(10,5,8,11)    =    -58.620484     0.000007    -4.386065   -63.006549
	   71 D(10,5,8,12)    =   -178.625517     0.000025    -3.390542  -182.016058
	   72 D(10,5,8,13)    =     61.266194     0.000010    -4.205458    57.060737
	   73 R(1,8)          =      2.934480     0.072712     0.136239     3.070719
	 ---------------------------------------------------------------------------

  ==> Convergence Check <==

  Measures of convergence in internal coordinates in au.
  Criteria marked as inactive (o), active & met (*), and active & unmet ( ).
  --------------------------------------------------------------------------------------------- ~
   Step     Total Energy     Delta E     MAX Force     RMS Force      MAX Disp      RMS Disp    ~
  --------------------------------------------------------------------------------------------- ~
    Convergence Criteria    1.00e-06 *    3.00e-04 *             o    1.20e-03 *             o  ~
  --------------------------------------------------------------------------------------------- ~
      1    -270.02575560   -2.70e+02      8.83e-03      2.08e-03 o    2.57e-01      5.19e-02 o  ~
  ---------------------------------------------------------------------------------------------

	Writing optimization data to binary file.
	Structure for next step:
	Cartesian Geometry (in Angstrom)
	    O    -1.2540694645   0.9734183606   0.1972387314
	    C    -0.8392212169  -0.1265597193   0.3977780913
	    C     0.5877095929  -0.3361912394   0.8649829934
	    C    -1.6827984074  -1.3559986794   0.1431515974
	    C     1.6136579607  -0.2487657800  -0.2896826156
	    H     0.6854852120  -1.2915028582   1.3714371531
	    H     0.7954924115   0.4457550770   1.5872692444
	    C     1.4951171792   1.0002784805  -1.1704480151
	    H     2.5955634307  -0.2316094518   0.1718215192
	    H     1.5718261137  -1.1436934595  -0.9066570091
	    H     2.3410832528   1.0509399816  -1.8499456023
	    H     1.4993599849   1.9029404930  -0.5693634489
	    H     0.5971547873   1.0137271309  -1.7678074837
	    H    -1.1542994249  -2.0603987504  -0.4929803955
	    H    -2.6186283163  -1.0738528078  -0.3189325213
	    H    -1.8832388151  -1.8619439591   1.0838545688
			--------------------------
			 OPTKING Finished Execution 
			--------------------------

    Structure for next step:
    Molecular point group: c1
    Full point group: C1

    Geometry (in Angstrom), charge = 0, multiplicity = 1:

    O           -1.236634310478     0.979368651612     0.187948216352
    C           -0.821786094631    -0.120609344307     0.388487560879
    C            0.605144606253    -0.330240848401     0.855692427327
    C           -1.665363220713    -1.350048210537     0.133861086405
    C            1.631092895738    -0.242815395674    -0.298973093497
    H            0.702920217892    -1.285552394303     1.362146548306
    H            0.812927409004     0.451705408285     1.577978623137
    C            1.512552123235     1.006228769400    -1.179738425739
    H            2.612998290726    -0.225659068815     0.162531006013
    H            1.589261051849    -1.137743006875    -0.915947439854
    H            2.358518132281     1.056890266661    -1.859235961045
    H            1.516794928577     1.908890712985    -0.578653905470
    H            0.614589799959     1.019677418815    -1.777097848709
    H           -1.136864278575    -2.054448227730    -0.502270857891
    H           -2.601193058131    -1.067902360489    -0.328222996978
    H           -1.865803613088    -1.855993451562     1.074563985990

gradient() will perform analytic gradient computation.

*** tstart() called on cx1-1-2-1.cx1.hpc.ic.ac.uk
*** at Fri Sep  2 13:15:58 2016


         ---------------------------------------------------------
                                   SCF
            by Justin Turney, Rob Parrish, and Andy Simmonett
                              RHF Reference
                        4 Threads,   2000 MiB Core
         ---------------------------------------------------------

  ==> Geometry <==

    Molecular point group: c1
    Full point group: C1

    Geometry (in Angstrom), charge = 0, multiplicity = 1:

       Center              X                  Y                   Z               Mass       
    ------------   -----------------  -----------------  -----------------  -----------------
           O         -1.236634310478     0.979368651612     0.187948216352    15.994914619560
           C         -0.821786094631    -0.120609344307     0.388487560879    12.000000000000
           C          0.605144606253    -0.330240848401     0.855692427327    12.000000000000
           C         -1.665363220713    -1.350048210537     0.133861086405    12.000000000000
           C          1.631092895738    -0.242815395674    -0.298973093497    12.000000000000
           H          0.702920217892    -1.285552394303     1.362146548306     1.007825032070
           H          0.812927409004     0.451705408285     1.577978623137     1.007825032070
           C          1.512552123235     1.006228769400    -1.179738425739    12.000000000000
           H          2.612998290726    -0.225659068815     0.162531006013     1.007825032070
           H          1.589261051849    -1.137743006875    -0.915947439854     1.007825032070
           H          2.358518132281     1.056890266661    -1.859235961045     1.007825032070
           H          1.516794928577     1.908890712985    -0.578653905470     1.007825032070
           H          0.614589799959     1.019677418815    -1.777097848709     1.007825032070
           H         -1.136864278575    -2.054448227730    -0.502270857891     1.007825032070
           H         -2.601193058131    -1.067902360489    -0.328222996978     1.007825032070
           H         -1.865803613088    -1.855993451562     1.074563985990     1.007825032070

  Running in c1 symmetry.

  Rotational constants: A =      0.18772  B =      0.08018  C =      0.06878 [cm^-1]
  Rotational constants: A =   5627.81122  B =   2403.65562  C =   2061.85837 [MHz]
  Nuclear repulsion =  242.648584098301626

  Charge       = 0
  Multiplicity = 1
  Electrons    = 48
  Nalpha       = 24
  Nbeta        = 24

  ==> Algorithm <==

  SCF Algorithm Type is DF.
  DIIS enabled.
  MOM disabled.
  Fractional occupation disabled.
  Guess Type is READ.
  Energy threshold   = 1.00e-08
  Density threshold  = 1.00e-08
  Integral threshold = 0.00e+00

  ==> Primary Basis <==

  Basis Set: 6-31G*
    Number of shells: 56
    Number of basis function: 110
    Number of Cartesian functions: 110
    Spherical Harmonics?: false
    Max angular momentum: 2

  ==> Pre-Iterations <==

   -------------------------------------------------------
    Irrep   Nso     Nmo     Nalpha   Nbeta   Ndocc  Nsocc
   -------------------------------------------------------
     A        110     110       0       0       0       0
   -------------------------------------------------------
    Total     110     110      24      24      24       0
   -------------------------------------------------------

 OEINTS: Overlap, kinetic, potential, dipole, and quadrupole integrals
         stored in file 35.

  ==> Integral Setup <==

  ==> DFJK: Density-Fitted J/K Matrices <==

    J tasked:                  Yes
    K tasked:                  Yes
    wK tasked:                  No
    OpenMP threads:              4
    Integrals threads:           4
    Memory (MB):              1430
    Algorithm:                Core
    Integral Cache:           NONE
    Schwarz Cutoff:          1E-12
    Fitting Condition:       1E-12

   => Auxiliary Basis Set <=

  Basis Set: 
    Number of shells: 234
    Number of basis function: 736
    Number of Cartesian functions: 736
    Spherical Harmonics?: false
    Max angular momentum: 3

  Minimum eigenvalue in the overlap matrix is 3.9192651574E-03.
  Using Symmetric Orthogonalization.
  SCF Guess: Reading in previously saved MOs, projecting if necessary.

  Using orbitals from previous SCF, no projection.
  Recomputing DOCC and SOCC from number of alpha and beta electrons from previous calculation.
              A 
    DOCC [    24 ]

  ==> Iterations <==

                           Total Energy        Delta E     RMS |[F,P]|

   @DF-RHF iter   0:  -270.01375044324766   -2.70014e+02   1.08763e-03 
   @DF-RHF iter   1:  -270.02686493080864   -1.31145e-02   2.38303e-04 
   @DF-RHF iter   2:  -270.02754295487682   -6.78024e-04   8.43098e-05 DIIS
   @DF-RHF iter   3:  -270.02764699087004   -1.04036e-04   3.35997e-05 DIIS
   @DF-RHF iter   4:  -270.02765456381064   -7.57294e-06   8.94520e-06 DIIS
   @DF-RHF iter   5:  -270.02765631479076   -1.75098e-06   4.31549e-06 DIIS
   @DF-RHF iter   6:  -270.02765692501771   -6.10227e-07   2.03750e-06 DIIS
   @DF-RHF iter   7:  -270.02765709716573   -1.72148e-07   6.44713e-07 DIIS
   @DF-RHF iter   8:  -270.02765711138409   -1.42184e-08   2.34050e-07 DIIS
   @DF-RHF iter   9:  -270.02765711302686   -1.64277e-09   7.77907e-08 DIIS
   @DF-RHF iter  10:  -270.02765711317295   -1.46088e-10   2.43051e-08 DIIS
   @DF-RHF iter  11:  -270.02765711318568   -1.27329e-11   4.74776e-09 DIIS

  ==> Post-Iterations <==

    Orbital Energies (a.u.)
    -----------------------

    Doubly Occupied:                                                      

       1A    -20.547909     2A    -11.324450     3A    -11.233713  
       4A    -11.230154     5A    -11.228833     6A    -11.208071  
       7A     -1.394872     8A     -1.076952     9A     -1.011683  
      10A     -0.946646    11A     -0.830267    12A     -0.729364  
      13A     -0.653122    14A     -0.647786    15A     -0.617059  
      16A     -0.598122    17A     -0.581520    18A     -0.559434  
      19A     -0.534939    20A     -0.503808    21A     -0.500761  
      22A     -0.482539    23A     -0.470111    24A     -0.396777  

    Virtual:                                                              

      25A      0.165075    26A      0.220278    27A      0.268372  
      28A      0.286172    29A      0.293818    30A      0.295504  
      31A      0.307849    32A      0.327202    33A      0.338394  
      34A      0.343449    35A      0.355853    36A      0.384907  
      37A      0.397383    38A      0.441489    39A      0.495387  
      40A      0.515561    41A      0.711799    42A      0.718288  
      43A      0.740046    44A      0.752690    45A      0.779453  
      46A      0.811386    47A      0.844575    48A      0.881266  
      49A      0.898139    50A      0.903549    51A      0.950799  
      52A      0.983720    53A      1.018249    54A      1.032230  
      55A      1.094105    56A      1.112548    57A      1.132047  
      58A      1.145578    59A      1.156545    60A      1.184651  
      61A      1.188713    62A      1.195481    63A      1.206038  
      64A      1.235584    65A      1.236787    66A      1.261659  
      67A      1.326050    68A      1.371579    69A      1.405221  
      70A      1.422576    71A      1.477466    72A      1.665009  
      73A      1.672565    74A      1.729154    75A      1.813982  
      76A      1.886923    77A      1.904009    78A      1.989225  
      79A      2.054971    80A      2.089464    81A      2.124379  
      82A      2.149156    83A      2.185042    84A      2.256453  
      85A      2.259286    86A      2.307652    87A      2.313348  
      88A      2.372033    89A      2.442043    90A      2.486254  
      91A      2.511458    92A      2.607051    93A      2.666864  
      94A      2.692961    95A      2.706864    96A      2.721724  
      97A      2.743501    98A      2.844182    99A      2.947435  
     100A      2.990359   101A      3.047491   102A      3.114238  
     103A      3.375995   104A      3.381727   105A      4.445980  
     106A      4.519951   107A      4.615488   108A      4.756414  
     109A      4.887609   110A      4.977483  

    Final Occupation by Irrep:
              A 
    DOCC [    24 ]

  Energy converged.

  @DF-RHF Final Energy:  -270.02765711318568

   => Energetics <=

    Nuclear Repulsion Energy =            242.6485840983016260
    One-Electron Energy =                -846.7346976486967378
    Two-Electron Energy =                 334.0584564372094860
    DFT Exchange-Correlation Energy =       0.0000000000000000
    Empirical Dispersion Energy =           0.0000000000000000
    PCM Polarization Energy =               0.0000000000000000
    EFP Energy =                            0.0000000000000000
    Total Energy =                       -270.0276571131856258

    Alert: EFP and PCM quantities not currently incorporated into SCF psivars.

Properties will be evaluated at   0.000000,   0.000000,   0.000000 Bohr
  ==> Properties <==


Properties computed using the SCF density matrix

  Nuclear Dipole Moment: (a.u.)
     X:     4.3103      Y:    -2.9859      Z:    -1.6717

  Electronic Dipole Moment: (a.u.)
     X:    -3.8260      Y:     1.9357      Z:     1.8305

  Dipole Moment: (a.u.)
     X:     0.4844      Y:    -1.0503      Z:     0.1587     Total:     1.1674

  Dipole Moment: (Debye)
     X:     1.2311      Y:    -2.6695      Z:     0.4035     Total:     2.9673


  Saving occupied orbitals to File 180.

*** tstop() called on cx1-1-2-1.cx1.hpc.ic.ac.uk at Fri Sep  2 13:16:01 2016
Module time:
	user time   =      10.67 seconds =       0.18 minutes
	system time =       0.14 seconds =       0.00 minutes
	total time  =          3 seconds =       0.05 minutes
Total time:
	user time   =      36.49 seconds =       0.61 minutes
	system time =       0.46 seconds =       0.01 minutes
	total time  =         12 seconds =       0.20 minutes

*** tstart() called on cx1-1-2-1.cx1.hpc.ic.ac.uk
*** at Fri Sep  2 13:16:01 2016


         ------------------------------------------------------------
                                   SCF GRAD                          
                          Rob Parrish, Justin Turney,                
                       Andy Simmonett, and Alex Sokolov              
         ------------------------------------------------------------

  ==> Geometry <==

    Molecular point group: c1
    Full point group: C1

    Geometry (in Angstrom), charge = 0, multiplicity = 1:

       Center              X                  Y                   Z               Mass       
    ------------   -----------------  -----------------  -----------------  -----------------
           O         -1.236634310478     0.979368651612     0.187948216352    15.994914619560
           C         -0.821786094631    -0.120609344307     0.388487560879    12.000000000000
           C          0.605144606253    -0.330240848401     0.855692427327    12.000000000000
           C         -1.665363220713    -1.350048210537     0.133861086405    12.000000000000
           C          1.631092895738    -0.242815395674    -0.298973093497    12.000000000000
           H          0.702920217892    -1.285552394303     1.362146548306     1.007825032070
           H          0.812927409004     0.451705408285     1.577978623137     1.007825032070
           C          1.512552123235     1.006228769400    -1.179738425739    12.000000000000
           H          2.612998290726    -0.225659068815     0.162531006013     1.007825032070
           H          1.589261051849    -1.137743006875    -0.915947439854     1.007825032070
           H          2.358518132281     1.056890266661    -1.859235961045     1.007825032070
           H          1.516794928577     1.908890712985    -0.578653905470     1.007825032070
           H          0.614589799959     1.019677418815    -1.777097848709     1.007825032070
           H         -1.136864278575    -2.054448227730    -0.502270857891     1.007825032070
           H         -2.601193058131    -1.067902360489    -0.328222996978     1.007825032070
           H         -1.865803613088    -1.855993451562     1.074563985990     1.007825032070

  Nuclear repulsion =  242.648584098301626

  ==> Basis Set <==

  Basis Set: 6-31G*
    Number of shells: 56
    Number of basis function: 110
    Number of Cartesian functions: 110
    Spherical Harmonics?: false
    Max angular momentum: 2

  ==> DFJKGrad: Density-Fitted SCF Gradients <==

    Gradient:                    1
    J tasked:                  Yes
    K tasked:                  Yes
    wK tasked:                  No
    OpenMP threads:              4
    Integrals threads:           4
    Memory (MB):              1430
    Schwarz Cutoff:          0E+00
    Fitting Condition:       1E-12

   => Auxiliary Basis Set <=

  Basis Set: 
    Number of shells: 234
    Number of basis function: 736
    Number of Cartesian functions: 736
    Spherical Harmonics?: false
    Max angular momentum: 3


  -Total Gradient:
     Atom            X                  Y                   Z
    ------   -----------------  -----------------  -----------------
       1        0.004150332408    -0.001502400765    -0.002029897405
       2       -0.002217739593     0.002913330534     0.005142589982
       3        0.000180944367    -0.002220213612     0.000120276451
       4        0.000662029329    -0.000270846538    -0.001171709212
       5       -0.000267767250    -0.003414000346    -0.001544276763
       6       -0.001028487720     0.000237644183     0.000494285697
       7       -0.000907251954    -0.000366025989     0.000589734459
       8       -0.004243232681     0.000034917935    -0.001060643994
       9       -0.000935669401     0.003567138021     0.000247926560
      10        0.001094344765    -0.000456807499    -0.000823866590
      11       -0.000076803538     0.000533759936    -0.000255212941
      12        0.000394919666     0.000028651572    -0.000247440286
      13        0.003213366264     0.000889102712     0.000535295301
      14       -0.000198095903    -0.000292913598    -0.000016036749
      15        0.000024904887     0.000015365927    -0.000049898216
      16        0.000154206357     0.000303297525     0.000068873707


*** tstop() called on cx1-1-2-1.cx1.hpc.ic.ac.uk at Fri Sep  2 13:16:05 2016
Module time:
	user time   =      13.50 seconds =       0.23 minutes
	system time =       0.14 seconds =       0.00 minutes
	total time  =          4 seconds =       0.07 minutes
Total time:
	user time   =      50.01 seconds =       0.83 minutes
	system time =       0.60 seconds =       0.01 minutes
	total time  =         16 seconds =       0.27 minutes
CURRENT ENERGY: -270.0276571132

			-----------------------------------------
			 OPTKING 2.0: for geometry optimizations 
			  - R.A. King,  Bethel University        
			-----------------------------------------

	Previous internal coordinate definitions found.
	---Fragment 1 Geometry and Gradient---
	 O          -2.3369001733        1.8507385347        0.3551706561
	 C          -1.5529506587       -0.2279186298        0.7341350961
	 C           1.1435575766       -0.6240647614        1.6170243416
	 C          -3.1470803989       -2.5512213841        0.2529607932
	 C           3.0823188702       -0.4588545987       -0.5649772678
	 H           1.3283267051       -2.4293419547        2.5740839292
	 H           1.5362101689        0.8535995144        2.9819474413
	 C           2.8583092746        1.9014968012       -2.2293825331
	 H           4.9378511552       -0.4264338395        0.3071390895
	 H           3.0032681417       -2.1500226926       -1.7308898134
	 H           4.4569533495        1.9972331565       -3.5134467828
	 H           2.8663270148        3.6072806651       -1.0934974071
	 H           1.1614064060        1.9269110654       -3.3582282454
	 H          -2.1483621368       -3.8823445046       -0.9491543659
	 H          -4.9155424986       -2.0180429980       -0.6202515748
	 H          -3.5258578465       -3.5073193279        2.0306316458
	             0.0041503324       -0.0015024008       -0.0020298974
	            -0.0022177396        0.0029133305        0.0051425900
	             0.0001809444       -0.0022202136        0.0001202765
	             0.0006620293       -0.0002708465       -0.0011717092
	            -0.0002677672       -0.0034140003       -0.0015442768
	            -0.0010284877        0.0002376442        0.0004942857
	            -0.0009072520       -0.0003660260        0.0005897345
	            -0.0042432327        0.0000349179       -0.0010606440
	            -0.0009356694        0.0035671380        0.0002479266
	             0.0010943448       -0.0004568075       -0.0008238666
	            -0.0000768035        0.0005337599       -0.0002552129
	             0.0003949197        0.0000286516       -0.0002474403
	             0.0032133663        0.0008891027        0.0005352953
	            -0.0001980959       -0.0002929136       -0.0000160367
	             0.0000249049        0.0000153659       -0.0000498982
	             0.0001542064        0.0003032975        0.0000688737

	---Fragment 1 Intrafragment Coordinates---
	 - Coordinate -           - BOHR/RAD -       - ANG/DEG -
	 R(1,2)           =         2.253665	       1.192588
	 R(2,3)           =         2.864888	       1.516033
	 R(2,4)           =         2.858411	       1.512606
	 R(3,5)           =         2.923563	       1.547083
	 R(3,6)           =         2.051616	       1.085669
	 R(3,7)           =         2.049557	       1.084579
	 R(4,14)          =         2.052902	       1.086349
	 R(4,15)          =         2.043095	       1.081159
	 R(4,16)          =         2.053706	       1.086775
	 R(5,8)           =         2.896840	       1.532942
	 R(5,9)           =         2.050521	       1.085089
	 R(5,10)          =         2.055639	       1.087797
	 R(8,11)          =         2.052718	       1.086251
	 R(8,12)          =         2.049390	       1.084490
	 R(8,13)          =         2.038239	       1.078590
	 B(1,2,3)         =         2.102231	     120.448947
	 B(1,2,4)         =         2.126302	     121.828129
	 B(2,3,5)         =         1.967471	     112.727789
	 B(2,3,6)         =         1.928583	     110.499650
	 B(2,3,7)         =         1.860700	     106.610236
	 B(2,4,14)        =         1.932943	     110.749467
	 B(2,4,15)        =         1.920444	     110.033320
	 B(2,4,16)        =         1.912979	     109.605617
	 B(3,2,4)         =         2.053761	     117.671841
	 B(3,5,8)         =         2.008196	     115.061177
	 B(3,5,9)         =         1.858290	     106.472169
	 B(3,5,10)        =         1.929778	     110.568126
	 B(5,3,6)         =         1.915764	     109.765207
	 B(5,3,7)         =         1.906307	     109.223370
	 B(5,8,11)        =         1.914727	     109.705747
	 B(5,8,12)        =         1.938459	     111.065530
	 B(5,8,13)        =         1.974415	     113.125637
	 B(6,3,7)         =         1.882292	     107.847398
	 B(8,5,9)         =         1.877021	     107.545369
	 B(8,5,10)        =         1.919292	     109.967348
	 B(9,5,10)        =         1.864015	     106.800207
	 B(11,8,12)       =         1.880572	     107.748824
	 B(11,8,13)       =         1.876898	     107.538322
	 B(12,8,13)       =         1.875326	     107.448249
	 B(14,4,15)       =         1.917755	     109.879290
	 B(14,4,16)       =         1.869963	     107.140980
	 B(15,4,16)       =         1.909006	     109.378009
	 D(1,2,3,5)       =        -1.390308	     -79.658761
	 D(1,2,3,6)       =         2.742072	     157.109128
	 D(1,2,3,7)       =         0.701168	      40.173962
	 D(1,2,4,14)      =         2.222609	     127.346105
	 D(1,2,4,15)      =         0.098880	       5.665393
	 D(1,2,4,16)      =        -2.001046	    -114.651490
	 D(2,3,5,8)       =         0.889559	      50.967968
	*D(2,3,5,9)       =         2.967060	     170.000041
	 D(2,3,5,10)      =        -1.297643	     -74.349491
	 D(3,2,4,14)      =        -0.873787	     -50.064307
	 D(3,2,4,15)      =        -2.997516	    -171.745020
	 D(3,2,4,16)      =         1.185743	      67.938097
	 D(3,5,8,11)      =         2.990878	     171.364659
	 D(3,5,8,12)      =         0.913770	      52.355149
	 D(3,5,8,13)      =        -1.196738	     -68.568056
	 D(4,2,3,5)       =         1.706741	      97.789066
	 D(4,2,3,6)       =        -0.444065	     -25.443044
	 D(4,2,3,7)       =        -2.484969	    -142.378210
	 D(6,3,5,8)       =         3.047482	     174.607847
	 D(6,3,5,9)       =        -1.158202	     -66.360079
	 D(6,3,5,10)      =         0.860280	      49.290388
	 D(7,3,5,8)       =        -1.175391	     -67.344962
	 D(7,3,5,9)       =         0.902110	      51.687112
	 D(7,3,5,10)      =         2.920592	     167.337579
	 D(9,5,8,11)      =         0.923828	      52.931420
	 D(9,5,8,12)      =        -1.153280	     -66.078089
	 D(9,5,8,13)      =         3.019397	     172.998706
	 D(10,5,8,11)     =        -1.099672	     -63.006549
	 D(10,5,8,12)     =         3.106406	     177.983942
	 D(10,5,8,13)     =         0.995898	      57.060737
	 R(1,8)           =         5.802818	       3.070719

	Current energy   :      -270.0276571132

	Energy change for the previous step:
		Projected    :        -0.0064938639
		Actual       :        -0.0019015172

	Performing BFGS update.
	Previous computed or guess Hessian on step 1.
	Steps to be used in Hessian update: 1
	Taking RFO optimization step.
	Going to follow RFO solution 1.
	Using RFO vector 1.
	Norm of target step-size    0.39942
	Projected energy change by RFO approximation:        -0.0000238922

	Back-transformation to cartesian coordinates...
	Successfully converged to displaced geometry.

	Back-transformation to cartesian coordinates to adjust frozen coordinates...
	Successfully converged to displaced geometry.

	--- Internal Coordinate Step in ANG or DEG, aJ/ANG or AJ/DEG ---
	 ---------------------------------------------------------------------------
	   Coordinate                Previous        Force       Change         New 
	   ----------                --------       ------       ------       ------
	    1 R(1,2)          =      1.192588     0.018159     0.000715     1.193303
	    2 R(2,3)          =      1.516033     0.016367     0.001348     1.517381
	    3 R(2,4)          =      1.512606    -0.000308    -0.000045     1.512561
	    4 R(3,5)          =      1.547083    -0.024916    -0.004055     1.543028
	    5 R(3,6)          =      1.085669     0.000586    -0.000105     1.085564
	    6 R(3,7)          =      1.084579     0.000370     0.000066     1.084644
	    7 R(4,14)         =      1.086349    -0.000848    -0.000083     1.086266
	    8 R(4,15)         =      1.081159    -0.000031     0.000014     1.081174
	    9 R(4,16)         =      1.086775     0.000906     0.000134     1.086909
	   10 R(5,8)          =      1.532942    -0.017283    -0.002217     1.530725
	   11 R(5,9)          =      1.085089     0.005642     0.000263     1.085352
	   12 R(5,10)         =      1.087797    -0.006599    -0.000375     1.087422
	   13 R(8,11)         =      1.086251    -0.001028     0.000088     1.086340
	   14 R(8,12)         =      1.084490     0.000921    -0.000270     1.084220
	   15 R(8,13)         =      1.078590     0.024392     0.002195     1.080785
	   16 B(1,2,3)        =    120.448947     0.000178    -0.017096   120.431851
	   17 B(1,2,4)        =    121.828129    -0.000113    -0.345134   121.482995
	   18 B(2,3,5)        =    112.727789     0.000058    -0.001623   112.726165
	   19 B(2,3,6)        =    110.499650     0.000046     0.475010   110.974660
	   20 B(2,3,7)        =    106.610236     0.000016     0.125680   106.735915
	   21 B(2,4,14)       =    110.749467    -0.000046    -0.225307   110.524160
	   22 B(2,4,15)       =    110.033320     0.000003     0.020114   110.053434
	   23 B(2,4,16)       =    109.605617     0.000044     0.207391   109.813009
	   24 B(3,2,4)        =    117.671841    -0.000062    -0.193132   117.478709
	   25 B(3,5,8)        =    115.061177    -0.000133    -0.260247   114.800930
	   26 B(3,5,9)        =    106.472169     0.000088     0.078971   106.551140
	   27 B(3,5,10)       =    110.568126    -0.000035    -0.260351   110.307776
	   28 B(5,3,6)        =    109.765207    -0.000107    -0.437898   109.327309
	   29 B(5,3,7)        =    109.223370    -0.000045    -0.372240   108.851130
	   30 B(5,8,11)       =    109.705747    -0.000021    -0.279153   109.426595
	   31 B(5,8,12)       =    111.065530     0.000013    -0.005389   111.060141
	   32 B(5,8,13)       =    113.125637    -0.000153    -0.238351   112.887286
	   33 B(6,3,7)        =    107.847398     0.000036     0.225436   108.072834
	   34 B(8,5,9)        =    107.545369     0.000037     0.430754   107.976123
	   35 B(8,5,10)       =    109.967348     0.000065    -0.101987   109.865362
	   36 B(9,5,10)       =    106.800207    -0.000010     0.173903   106.974110
	   37 B(11,8,12)      =    107.748824     0.000036     0.342215   108.091039
	   38 B(11,8,13)      =    107.538322     0.000093     0.342824   107.881146
	   39 B(12,8,13)      =    107.448249     0.000043    -0.120168   107.328081
	   40 B(14,4,15)      =    109.879290     0.000012     0.008862   109.888152
	   41 B(14,4,16)      =    107.140980    -0.000000    -0.002784   107.138195
	   42 B(15,4,16)      =    109.378009    -0.000013    -0.006243   109.371765
	   43 D(1,2,3,5)      =    -79.658761    -0.000021    -7.957752   -87.616513
	   44 D(1,2,3,6)      =    157.109128    -0.000007    -7.740266   149.368863
	   45 D(1,2,3,7)      =     40.173962    -0.000024    -8.334926    31.839036
	   46 D(1,2,4,14)     =    127.346105     0.000009     5.135075   132.481180
	   47 D(1,2,4,15)     =      5.665393     0.000012     5.259296    10.924689
	   48 D(1,2,4,16)     =   -114.651490     0.000009     5.123088  -109.528401
	   49 D(2,3,5,8)      =     50.967968    -0.000006    -0.439810    50.528158
	   50 *D(2,3,5,9)     =    170.000041    -0.000000     0.000000   170.000041
	   51 D(2,3,5,10)     =    -74.349491     0.000004     0.117136   -74.232355
	   52 D(3,2,4,14)     =    -50.064307    -0.000013    -6.348801   -56.413108
	   53 D(3,2,4,15)     =   -171.745020    -0.000010    -6.224579  -177.969599
	   54 D(3,2,4,16)     =     67.938097    -0.000013    -6.360787    61.577311
	   55 D(3,5,8,11)     =    171.364659     0.000016     0.170344   171.535003
	   56 D(3,5,8,12)     =     52.355149     0.000007    -0.071871    52.283278
	   57 D(3,5,8,13)     =    -68.568056     0.000017     0.254447   -68.313608
	   58 D(4,2,3,5)      =     97.789066    -0.000001     3.390586   101.179652
	   59 D(4,2,3,6)      =    -25.443044     0.000013     3.608072   -21.834973
	   60 D(4,2,3,7)      =   -142.378210    -0.000004     3.013411  -139.364799
	   61 D(6,3,5,8)      =    174.607847    -0.000002    -0.150732   174.457115
	   62 D(6,3,5,9)      =    -66.360079     0.000005     0.289078   -66.071001
	   63 D(6,3,5,10)     =     49.290388     0.000009     0.406213    49.696602
	   64 D(7,3,5,8)      =    -67.344962    -0.000012    -0.349493   -67.694454
	   65 D(7,3,5,9)      =     51.687112    -0.000006     0.090317    51.777429
	   66 D(7,3,5,10)     =    167.337579    -0.000002     0.207453   167.545032
	   67 D(9,5,8,11)     =     52.931420     0.000003    -0.071782    52.859638
	   68 D(9,5,8,12)     =    -66.078089    -0.000006    -0.313997   -66.392087
	   69 D(9,5,8,13)     =    172.998706     0.000004     0.012321   173.011027
	   70 D(10,5,8,11)    =    -63.006549    -0.000007    -0.465822   -63.472370
	   71 D(10,5,8,12)    =    177.983942    -0.000016    -0.708037   177.275905
	   72 D(10,5,8,13)    =     57.060737    -0.000006    -0.381718    56.679019
	   73 R(1,8)          =      3.070719     0.010243     0.089033     3.159752
	 ---------------------------------------------------------------------------

  ==> Convergence Check <==

  Measures of convergence in internal coordinates in au.
  Criteria marked as inactive (o), active & met (*), and active & unmet ( ).
  ---------------------------------------------------------------------------------------------
   Step     Total Energy     Delta E     MAX Force     RMS Force      MAX Disp      RMS Disp   
  ---------------------------------------------------------------------------------------------
    Convergence Criteria    1.00e-06 *    3.00e-04 *             o    1.20e-03 *             o
  ---------------------------------------------------------------------------------------------
      2    -270.02765711   -1.90e-03      3.02e-03      9.72e-04 o    1.68e-01      4.67e-02 o  ~
  ---------------------------------------------------------------------------------------------

	Writing optimization data to binary file.
	Structure for next step:
	Cartesian Geometry (in Angstrom)
	    O    -1.2814852376   0.9769016268   0.2513814057
	    C    -0.8206310882  -0.1210182951   0.3298490250
	    C     0.5964903531  -0.3256205427   0.8321934163
	    C    -1.6763931504  -1.3527680788   0.1341321052
	    C     1.6468998673  -0.2379498797  -0.2946998832
	    H     0.6944136747  -1.2794281868   1.3412229623
	    H     0.7891279314   0.4617439283   1.5528883775
	    C     1.5340975255   1.0039606246  -1.1824234708
	    H     2.6182668373  -0.2168127793   0.1890235020
	    H     1.6174634190  -1.1349622568  -0.9086949345
	    H     2.3948470683   1.0551592041  -1.8431978964
	    H     1.5135026198   1.9089086963  -0.5856172719
	    H     0.6443492910   1.0026684171  -1.7959718522
	    H    -1.1908375403  -2.0502871326  -0.5423856052
	    H    -2.6443000593  -1.0732174928  -0.2582253911
	    H    -1.8066562780  -1.8655291814   1.0835943070
			--------------------------
			 OPTKING Finished Execution 
			--------------------------

    Structure for next step:
    Molecular point group: c1
    Full point group: C1

    Geometry (in Angstrom), charge = 0, multiplicity = 1:

    O           -1.276079545664     0.976808937157     0.250588515156
    C           -0.815225431402    -0.121110900903     0.329056128509
    C            0.601895901609    -0.325713132875     0.831400481432
    C           -1.670987428329    -1.352860590457     0.133339223620
    C            1.652305335612    -0.238042476577    -0.295492732048
    H            0.699819215804    -1.279520704061     1.340429988502
    H            0.794533465238     0.461651278046     1.552095387527
    C            1.539503002464     1.003867932914    -1.183216251815
    H            2.623672231456    -0.216905377700     0.188230616208
    H            1.622868889552    -1.135054785158    -0.909487736497
    H            2.400252479541     1.055066508501    -1.843990626963
    H            1.518908098319     1.908815935485    -0.586410098516
    H            0.649754835866     1.002575725508    -1.796764586367
    H           -1.185431855253    -2.050379591069    -0.543178435128
    H           -2.638894263279    -1.073310025802    -0.259018242775
    H           -1.801250545979    -1.865621653988     1.082801352877

gradient() will perform analytic gradient computation.

*** tstart() called on cx1-1-2-1.cx1.hpc.ic.ac.uk
*** at Fri Sep  2 13:16:06 2016


         ---------------------------------------------------------
                                   SCF
            by Justin Turney, Rob Parrish, and Andy Simmonett
                              RHF Reference
                        4 Threads,   2000 MiB Core
         ---------------------------------------------------------

  ==> Geometry <==

    Molecular point group: c1
    Full point group: C1

    Geometry (in Angstrom), charge = 0, multiplicity = 1:

       Center              X                  Y                   Z               Mass       
    ------------   -----------------  -----------------  -----------------  -----------------
           O         -1.276079545664     0.976808937157     0.250588515156    15.994914619560
           C         -0.815225431402    -0.121110900903     0.329056128509    12.000000000000
           C          0.601895901609    -0.325713132875     0.831400481432    12.000000000000
           C         -1.670987428329    -1.352860590457     0.133339223620    12.000000000000
           C          1.652305335612    -0.238042476577    -0.295492732048    12.000000000000
           H          0.699819215804    -1.279520704061     1.340429988502     1.007825032070
           H          0.794533465238     0.461651278046     1.552095387527     1.007825032070
           C          1.539503002464     1.003867932914    -1.183216251815    12.000000000000
           H          2.623672231456    -0.216905377700     0.188230616208     1.007825032070
           H          1.622868889552    -1.135054785158    -0.909487736497     1.007825032070
           H          2.400252479541     1.055066508501    -1.843990626963     1.007825032070
           H          1.518908098319     1.908815935485    -0.586410098516     1.007825032070
           H          0.649754835866     1.002575725508    -1.796764586367     1.007825032070
           H         -1.185431855253    -2.050379591069    -0.543178435128     1.007825032070
           H         -2.638894263279    -1.073310025802    -0.259018242775     1.007825032070
           H         -1.801250545979    -1.865621653988     1.082801352877     1.007825032070

  Running in c1 symmetry.

  Rotational constants: A =      0.18910  B =      0.07881  C =      0.06784 [cm^-1]
  Rotational constants: A =   5669.11245  B =   2362.63372  C =   2033.79343 [MHz]
  Nuclear repulsion =  242.175219886232981

  Charge       = 0
  Multiplicity = 1
  Electrons    = 48
  Nalpha       = 24
  Nbeta        = 24

  ==> Algorithm <==

  SCF Algorithm Type is DF.
  DIIS enabled.
  MOM disabled.
  Fractional occupation disabled.
  Guess Type is READ.
  Energy threshold   = 1.00e-08
  Density threshold  = 1.00e-08
  Integral threshold = 0.00e+00

  ==> Primary Basis <==

  Basis Set: 6-31G*
    Number of shells: 56
    Number of basis function: 110
    Number of Cartesian functions: 110
    Spherical Harmonics?: false
    Max angular momentum: 2

  ==> Pre-Iterations <==

   -------------------------------------------------------
    Irrep   Nso     Nmo     Nalpha   Nbeta   Ndocc  Nsocc
   -------------------------------------------------------
     A        110     110       0       0       0       0
   -------------------------------------------------------
    Total     110     110      24      24      24       0
   -------------------------------------------------------

 OEINTS: Overlap, kinetic, potential, dipole, and quadrupole integrals
         stored in file 35.

  ==> Integral Setup <==

  ==> DFJK: Density-Fitted J/K Matrices <==

    J tasked:                  Yes
    K tasked:                  Yes
    wK tasked:                  No
    OpenMP threads:              4
    Integrals threads:           4
    Memory (MB):              1430
    Algorithm:                Core
    Integral Cache:           NONE
    Schwarz Cutoff:          1E-12
    Fitting Condition:       1E-12

   => Auxiliary Basis Set <=

  Basis Set: 
    Number of shells: 234
    Number of basis function: 736
    Number of Cartesian functions: 736
    Spherical Harmonics?: false
    Max angular momentum: 3

  Minimum eigenvalue in the overlap matrix is 3.7381299630E-03.
  Using Symmetric Orthogonalization.
  SCF Guess: Reading in previously saved MOs, projecting if necessary.

  Using orbitals from previous SCF, no projection.
  Recomputing DOCC and SOCC from number of alpha and beta electrons from previous calculation.
              A 
    DOCC [    24 ]

  ==> Iterations <==

                           Total Energy        Delta E     RMS |[F,P]|

   @DF-RHF iter   0:  -269.99953188678512   -2.70000e+02   2.01893e-03 
   @DF-RHF iter   1:  -270.02524908725127   -2.57172e-02   3.22670e-04 
   @DF-RHF iter   2:  -270.02635443198346   -1.10534e-03   1.27994e-04 DIIS
   @DF-RHF iter   3:  -270.02652996302697   -1.75531e-04   6.04306e-05 DIIS
   @DF-RHF iter   4:  -270.02657526814687   -4.53051e-05   2.22488e-05 DIIS
   @DF-RHF iter   5:  -270.02658115061763   -5.88247e-06   1.03290e-05 DIIS
   @DF-RHF iter   6:  -270.02658337814250   -2.22752e-06   1.90877e-06 DIIS
   @DF-RHF iter   7:  -270.02658345536270   -7.72202e-08   5.45637e-07 DIIS
   @DF-RHF iter   8:  -270.02658346257624   -7.21354e-09   2.84813e-07 DIIS
   @DF-RHF iter   9:  -270.02658346529222   -2.71598e-09   1.45688e-07 DIIS
   @DF-RHF iter  10:  -270.02658346626504   -9.72818e-10   3.66302e-08 DIIS
   @DF-RHF iter  11:  -270.02658346631654   -5.15001e-11   6.20759e-09 DIIS

  ==> Post-Iterations <==

    Orbital Energies (a.u.)
    -----------------------

    Doubly Occupied:                                                      

       1A    -20.548320     2A    -11.324596     3A    -11.232862  
       4A    -11.229659     5A    -11.228853     6A    -11.209901  
       7A     -1.394473     8A     -1.078593     9A     -1.011751  
      10A     -0.946818    11A     -0.830477    12A     -0.729708  
      13A     -0.653177    14A     -0.647927    15A     -0.617689  
      16A     -0.599447    17A     -0.581790    18A     -0.560613  
      19A     -0.535434    20A     -0.504721    21A     -0.501413  
      22A     -0.482264    23A     -0.470019    24A     -0.396839  

    Virtual:                                                              

      25A      0.161889    26A      0.223887    27A      0.265843  
      28A      0.287333    29A      0.292522    30A      0.293212  
      31A      0.307758    32A      0.327102    33A      0.337267  
      34A      0.343427    35A      0.355880    36A      0.382221  
      37A      0.397749    38A      0.440561    39A      0.492706  
      40A      0.518402    41A      0.713077    42A      0.717949  
      43A      0.737985    44A      0.749960    45A      0.776042  
      46A      0.814867    47A      0.840367    48A      0.877005  
      49A      0.904811    50A      0.908183    51A      0.952605  
      52A      0.982737    53A      1.025223    54A      1.045051  
      55A      1.097664    56A      1.111463    57A      1.127840  
      58A      1.146912    59A      1.150806    60A      1.180267  
      61A      1.188629    62A      1.194343    63A      1.209385  
      64A      1.233662    65A      1.236723    66A      1.258912  
      67A      1.310684    68A      1.368031    69A      1.405101  
      70A      1.427458    71A      1.484387    72A      1.639311  
      73A      1.664501    74A      1.730891    75A      1.828988  
      76A      1.885795    77A      1.918848    78A      1.983535  
      79A      2.065738    80A      2.094404    81A      2.128000  
      82A      2.135085    83A      2.190446    84A      2.241464  
      85A      2.271395    86A      2.308330    87A      2.313740  
      88A      2.391934    89A      2.448480    90A      2.470951  
      91A      2.513469    92A      2.594862    93A      2.671313  
      94A      2.687767    95A      2.692836    96A      2.726970  
      97A      2.753905    98A      2.835635    99A      2.956621  
     100A      3.008081   101A      3.032906   102A      3.112446  
     103A      3.372893   104A      3.377076   105A      4.440515  
     106A      4.521386   107A      4.615608   108A      4.754170  
     109A      4.889930   110A      4.972940  

    Final Occupation by Irrep:
              A 
    DOCC [    24 ]

  Energy converged.

  @DF-RHF Final Energy:  -270.02658346631654

   => Energetics <=

    Nuclear Repulsion Energy =            242.1752198862329806
    One-Electron Energy =                -845.7689194327811038
    Two-Electron Energy =                 333.5671160802317559
    DFT Exchange-Correlation Energy =       0.0000000000000000
    Empirical Dispersion Energy =           0.0000000000000000
    PCM Polarization Energy =               0.0000000000000000
    EFP Energy =                            0.0000000000000000
    Total Energy =                       -270.0265834663163673

    Alert: EFP and PCM quantities not currently incorporated into SCF psivars.

Properties will be evaluated at   0.000000,   0.000000,   0.000000 Bohr
  ==> Properties <==


Properties computed using the SCF density matrix

  Nuclear Dipole Moment: (a.u.)
     X:     4.3852      Y:    -2.9883      Z:    -1.6631

  Electronic Dipole Moment: (a.u.)
     X:    -3.8627      Y:     1.9367      Z:     1.7535

  Dipole Moment: (a.u.)
     X:     0.5225      Y:    -1.0517      Z:     0.0904     Total:     1.1778

  Dipole Moment: (Debye)
     X:     1.3280      Y:    -2.6731      Z:     0.2297     Total:     2.9936


  Saving occupied orbitals to File 180.

*** tstop() called on cx1-1-2-1.cx1.hpc.ic.ac.uk at Fri Sep  2 13:16:09 2016
Module time:
	user time   =      10.68 seconds =       0.18 minutes
	system time =       0.14 seconds =       0.00 minutes
	total time  =          3 seconds =       0.05 minutes
Total time:
	user time   =      61.36 seconds =       1.02 minutes
	system time =       0.76 seconds =       0.01 minutes
	total time  =         20 seconds =       0.33 minutes

*** tstart() called on cx1-1-2-1.cx1.hpc.ic.ac.uk
*** at Fri Sep  2 13:16:09 2016


         ------------------------------------------------------------
                                   SCF GRAD                          
                          Rob Parrish, Justin Turney,                
                       Andy Simmonett, and Alex Sokolov              
         ------------------------------------------------------------

  ==> Geometry <==

    Molecular point group: c1
    Full point group: C1

    Geometry (in Angstrom), charge = 0, multiplicity = 1:

       Center              X                  Y                   Z               Mass       
    ------------   -----------------  -----------------  -----------------  -----------------
           O         -1.276079545664     0.976808937157     0.250588515156    15.994914619560
           C         -0.815225431402    -0.121110900903     0.329056128509    12.000000000000
           C          0.601895901609    -0.325713132875     0.831400481432    12.000000000000
           C         -1.670987428329    -1.352860590457     0.133339223620    12.000000000000
           C          1.652305335612    -0.238042476577    -0.295492732048    12.000000000000
           H          0.699819215804    -1.279520704061     1.340429988502     1.007825032070
           H          0.794533465238     0.461651278046     1.552095387527     1.007825032070
           C          1.539503002464     1.003867932914    -1.183216251815    12.000000000000
           H          2.623672231456    -0.216905377700     0.188230616208     1.007825032070
           H          1.622868889552    -1.135054785158    -0.909487736497     1.007825032070
           H          2.400252479541     1.055066508501    -1.843990626963     1.007825032070
           H          1.518908098319     1.908815935485    -0.586410098516     1.007825032070
           H          0.649754835866     1.002575725508    -1.796764586367     1.007825032070
           H         -1.185431855253    -2.050379591069    -0.543178435128     1.007825032070
           H         -2.638894263279    -1.073310025802    -0.259018242775     1.007825032070
           H         -1.801250545979    -1.865621653988     1.082801352877     1.007825032070

  Nuclear repulsion =  242.175219886232981

  ==> Basis Set <==

  Basis Set: 6-31G*
    Number of shells: 56
    Number of basis function: 110
    Number of Cartesian functions: 110
    Spherical Harmonics?: false
    Max angular momentum: 2

  ==> DFJKGrad: Density-Fitted SCF Gradients <==

    Gradient:                    1
    J tasked:                  Yes
    K tasked:                  Yes
    wK tasked:                  No
    OpenMP threads:              4
    Integrals threads:           4
    Memory (MB):              1430
    Schwarz Cutoff:          0E+00
    Fitting Condition:       1E-12

   => Auxiliary Basis Set <=

  Basis Set: 
    Number of shells: 234
    Number of basis function: 736
    Number of Cartesian functions: 736
    Spherical Harmonics?: false
    Max angular momentum: 3


  -Total Gradient:
     Atom            X                  Y                   Z
    ------   -----------------  -----------------  -----------------
       1       -0.000164605178    -0.000976307098     0.008267662776
       2        0.007880038249     0.002346882210    -0.025271493630
       3       -0.004116744225    -0.003376082048     0.008380637248
       4       -0.002180630949     0.000676613890     0.008718801997
       5       -0.001313104294    -0.001861661339    -0.001928169589
       6        0.000928689451     0.000175275348     0.000489649326
       7        0.000908441421     0.000015467063     0.000525682559
       8       -0.003640665368     0.000160980009    -0.000770836771
       9       -0.001230809239     0.003209204089     0.001150847159
      10        0.000340124565    -0.000168742531    -0.000408589888
      11        0.000758837331    -0.000523324048     0.000211500831
      12       -0.000083021518    -0.000374025675    -0.000151892643
      13        0.001891541968     0.000820643043     0.000569018410
      14        0.000949633904     0.001327688401     0.000166868090
      15       -0.000027422168     0.000153035835     0.000255872024
      16       -0.000900303952    -0.001605647150    -0.000205557901


*** tstop() called on cx1-1-2-1.cx1.hpc.ic.ac.uk at Fri Sep  2 13:16:13 2016
Module time:
	user time   =      13.68 seconds =       0.23 minutes
	system time =       0.17 seconds =       0.00 minutes
	total time  =          4 seconds =       0.07 minutes
Total time:
	user time   =      75.06 seconds =       1.25 minutes
	system time =       0.93 seconds =       0.02 minutes
[...]
	 C          -1.5240652192       -0.1217048223        0.8413801870
	 C           1.2150518011       -0.4483083010        1.6318606564
	 C          -2.8503120035       -2.3933774937       -0.2862400461
	 C           3.0729235586       -0.5623420899       -0.6078503066
	 H           1.4041023947       -2.1571074230        2.7566789300
	 H           1.6759041650        1.1509401852        2.8248304818
	 C           2.7451660035        1.5923056720       -2.5092579660
	 H           4.9709869936       -0.4551366658        0.1633879302
	 H           2.9225554995       -2.3702684375       -1.5681855490
	 H           4.2094164766        1.5123071896       -3.9427717363
	 H           2.8633631617        3.4173446667       -1.5813217189
	 H           0.9334301119        1.5080353599       -3.4665295469
	 H          -1.7839085472       -3.1681532921       -1.8579464451
	 H          -4.7173142248       -1.8580357612       -0.9199756458
	 H          -3.0117747348       -3.8744360721        1.1270101680
	            -0.0000310396        0.0000234980        0.0000300799
	             0.0002402432        0.0020473884        0.0001105436
	            -0.0003347250       -0.0023461478       -0.0002164860
	             0.0000065721        0.0000378566       -0.0000906977
	             0.0001627582       -0.0025823354        0.0003242657
	             0.0000049697       -0.0000037510        0.0000065705
	            -0.0000063190        0.0000026288        0.0000226245
	             0.0000584803        0.0000147513       -0.0000502574
	            -0.0000669642        0.0028342836       -0.0002130564
	             0.0000015113       -0.0000067894       -0.0000117879
	            -0.0000052895       -0.0000042561        0.0000144991
	            -0.0000028169        0.0000066569       -0.0000084994
	            -0.0000114415       -0.0000104011        0.0000127002
	             0.0000019524       -0.0000163600        0.0000284769
	            -0.0000079481       -0.0000146697        0.0000125129
	            -0.0000099436        0.0000176469        0.0000285115

	---Fragment 1 Intrafragment Coordinates---
	 - Coordinate -           - BOHR/RAD -       - ANG/DEG -
	 R(1,2)           =         2.254930	       1.193257
	 R(2,3)           =         2.869545	       1.518498
	 R(2,4)           =         2.861984	       1.514497
	 R(3,5)           =         2.912215	       1.541078
	 R(3,6)           =         2.054495	       1.087192
	 R(3,7)           =         2.047720	       1.083607
	 R(4,14)          =         2.051281	       1.085491
	 R(4,15)          =         2.043015	       1.081117
	 R(4,16)          =         2.053505	       1.086668
	 R(5,8)           =         2.892280	       1.530529
	 R(5,9)           =         2.051572	       1.085645
	 R(5,10)          =         2.052669	       1.086226
	 R(8,11)          =         2.050705	       1.085186
	 R(8,12)          =         2.050806	       1.085240
	 R(8,13)          =         2.050819	       1.085247
	 B(1,2,3)         =         2.116347	     121.257769
	 B(1,2,4)         =         2.117441	     121.320431
	 B(2,3,5)         =         1.984015	     113.675695
	 B(2,3,6)         =         1.910619	     109.470421
	 B(2,3,7)         =         1.861287	     106.643915
	 B(2,4,14)        =         1.939894	     111.147761
	 B(2,4,15)        =         1.915276	     109.737224
	 B(2,4,16)        =         1.915325	     109.740062
	 B(3,2,4)         =         2.049392	     117.421506
	 B(3,5,8)         =         1.986825	     113.836667
	 B(3,5,9)         =         1.874506	     107.401289
	 B(3,5,10)        =         1.925768	     110.338393
	 B(5,3,6)         =         1.906877	     109.256011
	 B(5,3,7)         =         1.912461	     109.575923
	 B(5,8,11)        =         1.927914	     110.461350
	 B(5,8,12)        =         1.937953	     111.036531
	 B(5,8,13)        =         1.956662	     112.108454
	 B(6,3,7)         =         1.885893	     108.053731
	 B(8,5,9)         =         1.889199	     108.243156
	 B(8,5,10)        =         1.918005	     109.893574
	 B(9,5,10)        =         1.864683	     106.838442
	 B(11,8,12)       =         1.885840	     108.050695
	 B(11,8,13)       =         1.878518	     107.631126
	 B(12,8,13)       =         1.874113	     107.378741
	 B(14,4,15)       =         1.913867	     109.656486
	 B(14,4,16)       =         1.871066	     107.204199
	 B(15,4,16)       =         1.907753	     109.306193
	 D(1,2,3,5)       =        -1.852576	    -106.144804
	 D(1,2,3,6)       =         2.292991	     131.378729
	 D(1,2,3,7)       =         0.256807	      14.713970
	 D(1,2,4,14)      =         2.214066	     126.856646
	 D(1,2,4,15)      =         0.094112	       5.392233
	 D(1,2,4,16)      =        -2.002512	    -114.735464
	 D(2,3,5,8)       =         0.875981	      50.190016
	*D(2,3,5,9)       =         2.967060	     170.000041
	 D(2,3,5,10)      =        -1.289817	     -73.901043
	 D(3,2,4,14)      =        -0.930924	     -53.338012
	 D(3,2,4,15)      =        -3.050878	    -174.802425
	 D(3,2,4,16)      =         1.135684	      65.069878
	 D(3,5,8,11)      =         3.049761	     174.738409
	 D(3,5,8,12)      =         0.957859	      54.881253
	 D(3,5,8,13)      =        -1.138439	     -65.227738
	 D(4,2,3,5)       =         1.292411	      74.049724
	 D(4,2,3,6)       =        -0.845206	     -48.426742
	 D(4,2,3,7)       =        -2.881390	    -165.091502
	 D(6,3,5,8)       =         3.015660	     172.784598
	 D(6,3,5,9)       =        -1.176446	     -67.405376
	 D(6,3,5,10)      =         0.849863	      48.693539
	 D(7,3,5,8)       =        -1.204445	     -69.009620
	 D(7,3,5,9)       =         0.886634	      50.800406
	 D(7,3,5,10)      =         2.912943	     166.899321
	 D(9,5,8,11)      =         0.967006	      55.405378
	 D(9,5,8,12)      =        -1.124896	     -64.451777
	 D(9,5,8,13)      =         3.061992	     175.439231
	 D(10,5,8,11)     =        -1.063445	     -60.930897
	 D(10,5,8,12)     =         3.127839	     179.211947
	 D(10,5,8,13)     =         1.031541	      59.102956
	 R(1,8)           =         6.450244	       3.413322

	Current energy   :      -270.0287735049

	Energy change for the previous step:
		Projected    :        -0.0000068858
		Actual       :        -0.0000008411
	Energy ratio indicates iffy step: Trust radius decreased to 1.250e-01.


	Performing BFGS update.
	Previous computed or guess Hessian on step 1.
	Steps to be used in Hessian update: 9 8
	Taking RFO optimization step.
	Going to follow RFO solution 1.
	Rejecting RFO root 1 because normalization gives large value.
	Using RFO vector 2.
	Norm of target step-size    0.03167
	Projected energy change by RFO approximation:        -0.0000010783

	Back-transformation to cartesian coordinates...
	Successfully converged to displaced geometry.

	Back-transformation to cartesian coordinates to adjust frozen coordinates...
	Successfully converged to displaced geometry.

	--- Internal Coordinate Step in ANG or DEG, aJ/ANG or AJ/DEG ---
	 ---------------------------------------------------------------------------
	   Coordinate                Previous        Force       Change         New 
	   ----------                --------       ------       ------       ------
	    1 R(1,2)          =      1.193257    -0.000175     0.000012     1.193269
	    2 R(2,3)          =      1.518498     0.000066     0.000066     1.518564
	    3 R(2,4)          =      1.514497     0.000055    -0.000033     1.514464
	    4 R(3,5)          =      1.541078     0.000077    -0.000059     1.541019
	    5 R(3,6)          =      1.087192    -0.000059    -0.000003     1.087189
	    6 R(3,7)          =      1.083607    -0.000114    -0.000023     1.083584
	    7 R(4,14)         =      1.085491     0.000120     0.000076     1.085567
	    8 R(4,15)         =      1.081117     0.000004    -0.000016     1.081101
	    9 R(4,16)         =      1.086668    -0.000063    -0.000060     1.086608
	   10 R(5,8)          =      1.530529    -0.000104     0.000013     1.530542
	   11 R(5,9)          =      1.085645    -0.000050    -0.000004     1.085641
	   12 R(5,10)         =      1.086226    -0.000094    -0.000003     1.086223
	   13 R(8,11)         =      1.085186     0.000113    -0.000012     1.085175
	   14 R(8,12)         =      1.085240    -0.000016     0.000000     1.085240
	   15 R(8,13)         =      1.085247    -0.000038     0.000020     1.085266
	   16 B(1,2,3)        =    121.257769     0.000002    -0.007843   121.249926
	   17 B(1,2,4)        =    121.320431     0.000000     0.004419   121.324851
	   18 B(2,3,5)        =    113.675695    -0.000001     0.001192   113.676887
	   19 B(2,3,6)        =    109.470421     0.000000    -0.006399   109.464023
	   20 B(2,3,7)        =    106.643915     0.000001    -0.005796   106.638119
	   21 B(2,4,14)       =    111.147761    -0.000002    -0.057967   111.089794
	   22 B(2,4,15)       =    109.737224    -0.000002    -0.009292   109.727932
	   23 B(2,4,16)       =    109.740062     0.000004     0.072884   109.812946
	   24 B(3,2,4)        =    117.421506    -0.000002     0.003563   117.425070
	   25 B(3,5,8)        =    113.836667    -0.000001    -0.007771   113.828896
	   26 B(3,5,9)        =    107.401289    -0.000000     0.003369   107.404657
	   27 B(3,5,10)       =    110.338393     0.000000     0.000319   110.338712
	   28 B(5,3,6)        =    109.256011     0.000000     0.000615   109.256626
	   29 B(5,3,7)        =    109.575923    -0.000000     0.009643   109.585566
	   30 B(5,8,11)       =    110.461350     0.000001     0.002055   110.463404
	   31 B(5,8,12)       =    111.036531    -0.000002    -0.001920   111.034611
	   32 B(5,8,13)       =    112.108454     0.000002     0.005451   112.113905
	   33 B(6,3,7)        =    108.053731     0.000000     0.000663   108.054393
	   34 B(8,5,9)        =    108.243156     0.000000     0.000144   108.243300
	   35 B(8,5,10)       =    109.893574     0.000001     0.007313   109.900887
	   36 B(9,5,10)       =    106.838442     0.000000    -0.003302   106.835140
	   37 B(11,8,12)      =    108.050695     0.000000    -0.001328   108.049367
	   38 B(11,8,13)      =    107.631126    -0.000001    -0.003718   107.627407
	   39 B(12,8,13)      =    107.378741    -0.000000    -0.000890   107.377850
	   40 B(14,4,15)      =    109.656486    -0.000001    -0.036050   109.620436
	   41 B(14,4,16)      =    107.204199    -0.000001    -0.005491   107.198708
	   42 B(15,4,16)      =    109.306193     0.000001     0.037607   109.343800
	   43 D(1,2,3,5)      =   -106.144804    -0.000000    -0.126547  -106.271351
	   44 D(1,2,3,6)      =    131.378729    -0.000000    -0.123410   131.255319
	   45 D(1,2,3,7)      =     14.713970    -0.000000    -0.117752    14.596217
	   46 D(1,2,4,14)     =    126.856646    -0.000000    -0.777216   126.079430
	   47 D(1,2,4,15)     =      5.392233     0.000000    -0.687620     4.704613
	   48 D(1,2,4,16)     =   -114.735464    -0.000000    -0.773635  -115.509099
	   49 D(2,3,5,8)      =     50.190016     0.000000     0.002273    50.192289
	   50 *D(2,3,5,9)     =    170.000041    -0.000000     0.000000   170.000041
	   51 D(2,3,5,10)     =    -73.901043     0.000000    -0.001857   -73.902900
	   52 D(3,2,4,14)     =    -53.338012    -0.000000    -0.723121   -54.061133
	   53 D(3,2,4,15)     =   -174.802425     0.000000    -0.633525  -175.435950
	   54 D(3,2,4,16)     =     65.069878    -0.000000    -0.719540    64.350338
	   55 D(3,5,8,11)     =    174.738409    -0.000000     0.000447   174.738856
	   56 D(3,5,8,12)     =     54.881253    -0.000000     0.002011    54.883264
	   57 D(3,5,8,13)     =    -65.227738    -0.000000     0.000769   -65.226969
	   58 D(4,2,3,5)      =     74.049724    -0.000000    -0.180624    73.869101
	   59 D(4,2,3,6)      =    -48.426742    -0.000000    -0.177487   -48.604229
	   60 D(4,2,3,7)      =   -165.091502    -0.000000    -0.171830  -165.263331
	   61 D(6,3,5,8)      =    172.784598     0.000000    -0.004723   172.779875
	   62 D(6,3,5,9)      =    -67.405376    -0.000000    -0.006996   -67.412373
	   63 D(6,3,5,10)     =     48.693539    -0.000000    -0.008853    48.684686
	   64 D(7,3,5,8)      =    -69.009620     0.000000     0.002107   -69.007513
	   65 D(7,3,5,9)      =     50.800406    -0.000000    -0.000166    50.800240
	   66 D(7,3,5,10)     =    166.899321    -0.000000    -0.002023   166.897298
	   67 D(9,5,8,11)     =     55.405378     0.000000     0.000970    55.406349
	   68 D(9,5,8,12)     =    -64.451777     0.000000     0.002534   -64.449243
	   69 D(9,5,8,13)     =    175.439231     0.000000     0.001292   175.440523
	   70 D(10,5,8,11)    =    -60.930897    -0.000000     0.000837   -60.930060
	   71 D(10,5,8,12)    =    179.211947    -0.000000     0.002401   179.214348
	   72 D(10,5,8,13)    =     59.102956    -0.000000     0.001159    59.104115
	   73 R(1,8)          =      3.413322    -0.000293     0.001449     3.414771
	 ---------------------------------------------------------------------------

  ==> Convergence Check <==

  Measures of convergence in internal coordinates in au.
  Criteria marked as inactive (o), active & met (*), and active & unmet ( ).
  ---------------------------------------------------------------------------------------------
   Step     Total Energy     Delta E     MAX Force     RMS Force      MAX Disp      RMS Disp   
  ---------------------------------------------------------------------------------------------
    Convergence Criteria    1.00e-06 *    3.00e-04 *             o    1.20e-03 *             o
  ---------------------------------------------------------------------------------------------
     10    -270.02877350   -8.41e-07 *    5.11e-05 *    1.38e-05 o    1.36e-02      3.71e-03 o  ~
  ---------------------------------------------------------------------------------------------


  **** Optimization is complete! (in 10 steps) ****

  ==> Optimization Summary <==

  Measures of convergence in internal coordinates in au.
  --------------------------------------------------------------------------------------------------------------- ~
   Step         Total Energy             Delta E       MAX Force       RMS Force        MAX Disp        RMS Disp  ~
  --------------------------------------------------------------------------------------------------------------- ~
      1    -270.025755595944   -270.025755595944      0.00882568      0.00207579      0.25745432      0.05189056  ~
      2    -270.027657113186     -0.001901517241      0.00302427      0.00097241      0.16824847      0.04670277  ~
      3    -270.026583466317      0.001073646869      0.00349401      0.00155211      0.14426288      0.03582175  ~
      4    -270.028236806726     -0.001653340409      0.00173403      0.00053065      0.14596889      0.04425982  ~
      5    -270.028576858409     -0.000340051683      0.00130964      0.00034565      0.16651103      0.04352710  ~
      6    -270.028720421926     -0.000143563517      0.00078284      0.00024230      0.06362852      0.01056147  ~
      7    -270.028760025629     -0.000039603702      0.00064587      0.00012152      0.05061093      0.01185706  ~
      8    -270.028771126033     -0.000011100404      0.00012593      0.00003944      0.01826646      0.00387043  ~
      9    -270.028772663786     -0.000001537753      0.00006649      0.00001809      0.00983953      0.00288771  ~
     10    -270.028773504893     -0.000000841108      0.00005108      0.00001376      0.01356497      0.00370698  ~
  --------------------------------------------------------------------------------------------------------------- ~

	Writing optimization data to binary file.
	Final energy is   -270.0287735048935
	Final (previous) structure:
	Cartesian Geometry (in Angstrom)
	    O    -1.3712036221   0.9774658805   0.5848176030
	    C    -0.8065006400  -0.0644034231   0.4452392527
	    C     0.6429777695  -0.2372345534   0.8635435329
	    C    -1.5083202648  -1.2665209179  -0.1514717202
	    C     1.6261212351  -0.2975786401  -0.3216605530
	    H     0.7430190426  -1.1414921719   1.4587717725
	    H     0.8868503556   0.6090513610   1.4948360233
	    C     1.4526793938   0.8426119351  -1.3278422275
	    H     2.6305332221  -0.2408479687   0.0864611754
	    H     1.5465498793  -1.2542921311  -0.8298481148
	    H     2.2275274310   0.8002785583  -2.0864251008
	    H     1.5152266408   1.8083810496  -0.8367994770
	    H     0.4939499788   0.7980180031  -1.8344085692
	    H    -0.9440038175  -1.6765146435  -0.9831829886
	    H    -2.4962953642  -0.9832302526  -0.4868301814
	    H    -1.5937626688  -2.0502634221   0.5963881403
	Saving final (previous) structure.
			--------------------------
			 OPTKING Finished Execution 
			--------------------------

    Final optimized geometry and variables:
    Molecular point group: c1
    Full point group: C1

    Geometry (in Angstrom), charge = 0, multiplicity = 1:

    O           -1.371203517435     0.977465805865     0.584817558358
    C           -0.806500578390    -0.064403418142     0.445239218697
    C            0.642977720421    -0.237234535317     0.863543466953
    C           -1.508320149645    -1.266520821230    -0.151471708584
    C            1.626121110936    -0.297578617425    -0.321660528479
    H            0.743018985822    -1.141492084729     1.458771661133
    H            0.886850287888     0.609051314451     1.494835909120
    C            1.452679282854     0.842611870746    -1.327842126100
    H            2.630533021216    -0.240847950320     0.086461168795
    H            1.546549761162    -1.254292035356    -0.829848051395
    H            2.227527260859     0.800278497139    -2.086424941520
    H            1.515226525094     1.808380911495    -0.836799413110
    H            0.493949941044     0.798017942190    -1.834408429111
    H           -0.944003745365    -1.676514515511    -0.983182913550
    H           -2.496295173531    -0.983230177551    -0.486830144232
    H           -1.593762547083    -2.050263265498     0.596388094780

	Cleaning optimization helper files.


Properties will be evaluated at   0.000000,   0.000000,   0.000000 Bohr

Properties computed using the  density matrix

  Nuclear Dipole Moment: (a.u.)
     X:     4.6898      Y:    -3.1179      Z:    -3.2043

  Electronic Dipole Moment: (a.u.)
     X:    -4.0300      Y:     2.1020      Z:     3.0244

  Dipole Moment: (a.u.)
     X:     0.6597      Y:    -1.0159      Z:    -0.1799     Total:     1.2246

  Dipole Moment: (Debye)
     X:     1.6768      Y:    -2.5823      Z:    -0.4573     Total:     3.1127

  Quadrupole Moment: (Debye Ang)
    XX:   -39.8804     YY:   -39.9271     ZZ:   -37.9957
    XY:     4.0792     XZ:     1.3413     YZ:    -1.4076

  Traceless Quadrupole Moment: (Debye Ang)
    XX:    -0.6127     YY:    -0.6594     ZZ:     1.2720
    XY:     4.0792     XZ:     1.3413     YZ:    -1.4076

  Mulliken Charges: (a.u.)
   Center  Symbol    Alpha    Beta     Spin     Total
       1     O     4.26139  4.26139  0.00000 -0.52278
       2     C     2.73553  2.73553  0.00000  0.52893
       3     C     3.20267  3.20267  0.00000 -0.40535
       4     C     3.28999  3.28999  0.00000 -0.57997
       5     C     3.16208  3.16208  0.00000 -0.32416
       6     H     0.41314  0.41314  0.00000  0.17373
       7     H     0.40031  0.40031  0.00000  0.19937
       8     C     3.24393  3.24393  0.00000 -0.48786
       9     H     0.41241  0.41241  0.00000  0.17519
      10     H     0.41924  0.41924  0.00000  0.16151
      11     H     0.41711  0.41711  0.00000  0.16578
      12     H     0.41212  0.41212  0.00000  0.17575
      13     H     0.41710  0.41710  0.00000  0.16580
      14     H     0.40882  0.40882  0.00000  0.18236
      15     H     0.39654  0.39654  0.00000  0.20692
      16     H     0.40762  0.40762  0.00000  0.18476

   Total alpha = 24.00000, Total beta = 24.00000, Total charge =  0.00000


*** PSI4 exiting successfully. Buy a developer a beer!
