    -----------------------------------------------------------------------
          Psi4: An Open-Source Ab Initio Electronic Structure Package
                              Psi4 1.0.54 Driver

                          Git: Rev {master} 8d4cec3 dirty

    J. M. Turney, A. C. Simmonett, R. M. Parrish, E. G. Hohenstein,
    F. A. Evangelista, J. T. Fermann, B. J. Mintz, L. A. Burns, J. J. Wilke,
    M. L. Abrams, N. J. Russ, M. L. Leininger, C. L. Janssen, E. T. Seidl,
    W. D. Allen, H. F. Schaefer, R. A. King, E. F. Valeev, C. D. Sherrill,
    and T. D. Crawford, WIREs Comput. Mol. Sci. 2, 556-565 (2012)
    (doi: 10.1002/wcms.93)

                         Additional Contributions by
    A. E. DePrince, U. Bozkaya, A. Yu. Sokolov, D. G. A. Smith, R. Di Remigio,
    R. M. Richard, J. F. Gonthier, H. R. McAlexander, M. Saitow, and
    B. P. Pritchard
    -----------------------------------------------------------------------


    Psi4 started on: Sat Sep 10 18:07:00 2016

    Process ID:  41544
    PSI4DATADIR: /export131/home/mjharvey/miniconda3/share/psi4
    Memory level set to 256.000 MB

  ==> Input File <==

--------------------------------------------------------------------------
set {
	reference rhf
	basis cc-pvtz
}


set_num_threads( 4 )
memory 2 gb

molecule MOL {
0 1

H	 2.614283	 2.028610	 0.296620
O	 3.358864	 1.662087	 -0.142800
C	 3.565468	 0.338079	 0.273842
C	 2.533667	 -0.637565	 -0.272227
H	 4.548038	 0.064914	 -0.086598
H	 3.593945	 0.282242	 1.360360
C	 1.114816	 -0.402372	 0.240993
H	 2.544552	 -0.580764	 -1.356576
H	 2.850574	 -1.642962	 -0.005497
C	 0.113298	 -1.420414	 -0.302504
H	 0.796373	 0.598427	 -0.031033
H	 1.113377	 -0.446476	 1.328807
C	 0.620717	 -2.264853	 -1.472847
H	 -0.200969	 -2.077790	 0.504541
H	 -0.778496	 -0.889394	 -0.623736
C	 1.748548	 -3.235964	 -1.128343
H	 -0.215297	 -2.833653	 -1.870434
H	 0.945663	 -1.606585	 -2.275498
C	 2.151462	 -4.124257	 -2.302654
H	 1.438519	 -3.863491	 -0.295541
H	 2.622207	 -2.688396	 -0.787914
C	 3.279844	 -5.092464	 -1.963208
H	 1.285190	 -4.685914	 -2.641316
H	 2.453429	 -3.498670	 -3.138429
H	 2.996724	 -5.754223	 -1.151324
H	 3.538984	 -5.708788	 -2.816494
H	 4.174155	 -4.559899	 -1.656723

	symmetry c1
}
set optking {
	frozen_dihedral = ("
		14 10 7 4
	")
}

ee,wfn = optimize('scf', return_wfn=True)
oeprop( wfn, 'DIPOLE', 'QUADRUPOLE', 'MULLIKEN_CHARGES')
f=open( 'psi4out.xyz', 'w' )
f.write( "27  " )
f.write( str(ee) + "\n" )
f.write( MOL.save_string_xyz() )
f.close()
--------------------------------------------------------------------------

  Memory set to   2.000 GiB by Python script.
gradient() will perform analytic gradient computation.

*** tstart() called on cx1-27-1-3
*** at Sat Sep 10 18:07:01 2016


         ---------------------------------------------------------
                                   SCF
            by Justin Turney, Rob Parrish, and Andy Simmonett
                              RHF Reference
                        4 Threads,   2000 MiB Core
         ---------------------------------------------------------

  ==> Geometry <==

    Molecular point group: c1
    Full point group: C1

    Geometry (in Angstrom), charge = 0, multiplicity = 1:

       Center              X                  Y                   Z               Mass       
    ------------   -----------------  -----------------  -----------------  -----------------
           H          0.525202811772     3.670371353919     1.070992373627     1.007825032070
           O          1.269783811772     3.303848353919     0.631572373627    15.994914619560
           C          1.476387811772     1.979840353919     1.048214373627    12.000000000000
           C          0.444586811772     1.004196353919     0.502145373627    12.000000000000
           H          2.458957811772     1.706675353919     0.687774373627     1.007825032070
           H          1.504864811772     1.924003353919     2.134732373627     1.007825032070
           C         -0.974264188228     1.239389353919     1.015365373627    12.000000000000
           H          0.455471811772     1.060997353919    -0.582203626373     1.007825032070
           H          0.761493811772    -0.001200646081     0.768875373627     1.007825032070
           C         -1.975782188228     0.221347353919     0.471868373627    12.000000000000
           H         -1.292707188228     2.240188353919     0.743339373627     1.007825032070
           H         -0.975703188228     1.195285353919     2.103179373627     1.007825032070
           C         -1.468363188228    -0.623091646081    -0.698474626373    12.000000000000
           H         -2.290049188228    -0.436028646081     1.278913373627     1.007825032070
           H         -2.867576188228     0.752367353919     0.150636373627     1.007825032070
           C         -0.340532188228    -1.594202646081    -0.353970626373    12.000000000000
           H         -2.304377188228    -1.191891646081    -1.096061626373     1.007825032070
           H         -1.143417188228     0.035176353919    -1.501125626373     1.007825032070
           C          0.062381811772    -2.482495646081    -1.528281626373    12.000000000000
           H         -0.650561188228    -2.221729646081     0.478831373627     1.007825032070
           H          0.533126811772    -1.046634646081    -0.013541626373     1.007825032070
           C          1.190763811772    -3.450702646081    -1.188835626373    12.000000000000
           H         -0.803890188228    -3.044152646081    -1.866943626373     1.007825032070
           H          0.364348811772    -1.856908646081    -2.364056626373     1.007825032070
           H          0.907643811772    -4.112461646081    -0.376951626373     1.007825032070
           H          1.449903811772    -4.067026646081    -2.042121626373     1.007825032070
           H          2.085074811772    -2.918137646081    -0.882350626373     1.007825032070

  Running in c1 symmetry.

  Rotational constants: A =      0.07420  B =      0.02337  C =      0.01909 [cm^-1]
  Rotational constants: A =   2224.34362  B =    700.66420  C =    572.18280 [MHz]
  Nuclear repulsion =  481.452231611534614

  Charge       = 0
  Multiplicity = 1
  Electrons    = 74
  Nalpha       = 37
  Nbeta        = 37

  ==> Algorithm <==

  SCF Algorithm Type is DF.
  DIIS enabled.
  MOM disabled.
  Fractional occupation disabled.
  Guess Type is SAD.
  Energy threshold   = 1.00e-08
  Density threshold  = 1.00e-08
  Integral threshold = 0.00e+00

  ==> Primary Basis <==

  Basis Set: CC-PVTZ
    Number of shells: 198
    Number of basis function: 522
    Number of Cartesian functions: 585
    Spherical Harmonics?: true
    Max angular momentum: 3

  ==> Pre-Iterations <==

   -------------------------------------------------------
    Irrep   Nso     Nmo     Nalpha   Nbeta   Ndocc  Nsocc
   -------------------------------------------------------
     A        522     522       0       0       0       0
   -------------------------------------------------------
    Total     522     522      37      37      37       0
   -------------------------------------------------------

  ==> Integral Setup <==

  ==> DFJK: Density-Fitted J/K Matrices <==

    J tasked:                  Yes
    K tasked:                  Yes
    wK tasked:                  No
    OpenMP threads:              4
    Integrals threads:           4
    Memory (MB):              1430
    Algorithm:                Core
    Integral Cache:           NONE
    Schwarz Cutoff:          1E-12
    Fitting Condition:       1E-12

   => Auxiliary Basis Set <=

  Basis Set: 
    Number of shells: 405
    Number of basis function: 1251
    Number of Cartesian functions: 1494
    Spherical Harmonics?: true
    Max angular momentum: 4

  Minimum eigenvalue in the overlap matrix is 1.6266771392E-04.
  Using Symmetric Orthogonalization.
  SCF Guess: Superposition of Atomic Densities via on-the-fly atomic UHF.

  ==> Iterations <==

                           Total Energy        Delta E     RMS |[F,P]|

   @DF-RHF iter   0:  -392.75711740351272   -3.92757e+02   1.14258e-02 
   @DF-RHF iter   1:  -388.16375166332597    4.59337e+00   1.00559e-03 
   @DF-RHF iter   2:  -388.36560274523100   -2.01851e-01   3.12409e-04 DIIS
   @DF-RHF iter   3:  -388.38547673277782   -1.98740e-02   1.44476e-04 DIIS
   @DF-RHF iter   4:  -388.38886430935310   -3.38758e-03   3.48330e-05 DIIS
   @DF-RHF iter   5:  -388.38913825296885   -2.73944e-04   9.40293e-06 DIIS
   @DF-RHF iter   6:  -388.38916268749284   -2.44345e-05   3.30196e-06 DIIS
   @DF-RHF iter   7:  -388.38916580484926   -3.11736e-06   8.98947e-07 DIIS
   @DF-RHF iter   8:  -388.38916612975009   -3.24901e-07   2.46039e-07 DIIS
   @DF-RHF iter   9:  -388.38916615280647   -2.30564e-08   7.62455e-08 DIIS
   @DF-RHF iter  10:  -388.38916615462193   -1.81547e-09   1.72146e-08 DIIS
   @DF-RHF iter  11:  -388.38916615471777   -9.58380e-11   4.62468e-09 DIIS

  ==> Post-Iterations <==

    Orbital Energies (a.u.)
    -----------------------

    Doubly Occupied:                                                      

       1A    -20.543650     2A    -11.262594     3A    -11.216208  
       4A    -11.213561     5A    -11.211845     6A    -11.211034  
       7A    -11.207561     8A    -11.206278     9A    -11.203530  
      10A     -1.361648    11A     -1.103108    12A     -1.056601  
      13A     -1.007197    14A     -0.955403    15A     -0.889434  
      16A     -0.837422    17A     -0.791086    18A     -0.772772  
      19A     -0.697885    20A     -0.659103    21A     -0.641336  
      22A     -0.611091    23A     -0.608424    24A     -0.585136  
      25A     -0.566260    26A     -0.564080    27A     -0.549625  
      28A     -0.525683    29A     -0.511701    30A     -0.504591  
      31A     -0.482857    32A     -0.474034    33A     -0.463443  
      34A     -0.455365    35A     -0.444461    36A     -0.432611  
      37A     -0.413146  

    Virtual:                                                              

      38A      0.137356    39A      0.140893    40A      0.153497  
      41A      0.157217    42A      0.169550    43A      0.183888  
      44A      0.193986    45A      0.199282    46A      0.216088  
      47A      0.224131    48A      0.228847    49A      0.231611  
      50A      0.237606    51A      0.257668    52A      0.271533  
      53A      0.273083    54A      0.279382    55A      0.301520  
      56A      0.308913    57A      0.321774    58A      0.327783  
      59A      0.341876    60A      0.368022    61A      0.371215  
      62A      0.383478    63A      0.401206    64A      0.413857  
      65A      0.425539    66A      0.433723    67A      0.445668  
      68A      0.469007    69A      0.478080    70A      0.485463  
      71A      0.493182    72A      0.503341    73A      0.523609  
      74A      0.536138    75A      0.545182    76A      0.557771  
      77A      0.570811    78A      0.575384    79A      0.583789  
      80A      0.595651    81A      0.601843    82A      0.606501  
      83A      0.610379    84A      0.621938    85A      0.627175  
      86A      0.630083    87A      0.642093    88A      0.645951  
      89A      0.654828    90A      0.657637    91A      0.666439  
      92A      0.672074    93A      0.676118    94A      0.679444  
      95A      0.688062    96A      0.697360    97A      0.707442  
      98A      0.709461    99A      0.714176   100A      0.726874  
     101A      0.739365   102A      0.758744   103A      0.765039  
     104A      0.770539   105A      0.779696   106A      0.799673  
     107A      0.811973   108A      0.827594   109A      0.844536  
     110A      0.861613   111A      0.878425   112A      0.899045  
     113A      0.912450   114A      0.925763   115A      0.940238  
     116A      0.950557   117A      0.957017   118A      0.963145  
     119A      0.982212   120A      1.000511   121A      1.011474  
     122A      1.020856   123A      1.030897   124A      1.049684  
     125A      1.073035   126A      1.090493   127A      1.098467  
     128A      1.109425   129A      1.124084   130A      1.129266  
     131A      1.155167   132A      1.157164   133A      1.166929  
     134A      1.188065   135A      1.196430   136A      1.201884  
     137A      1.227978   138A      1.234596   139A      1.244636  
     140A      1.260111   141A      1.268091   142A      1.278239  
     143A      1.286020   144A      1.289711   145A      1.307636  
     146A      1.311052   147A      1.319326   148A      1.327891  
     149A      1.336432   150A      1.340603   151A      1.351130  
     152A      1.353562   153A      1.360641   154A      1.375118  
     155A      1.391459   156A      1.398959   157A      1.408248  
     158A      1.419408   159A      1.427080   160A      1.432805  
     161A      1.433914   162A      1.451813   163A      1.460287  
     164A      1.466951   165A      1.478946   166A      1.484697  
     167A      1.493590   168A      1.512932   169A      1.514417  
     170A      1.518215   171A      1.528563   172A      1.530180  
     173A      1.549429   174A      1.552598   175A      1.578929  
     176A      1.583606   177A      1.589297   178A      1.603648  
     179A      1.616847   180A      1.635419   181A      1.638680  
     182A      1.648050   183A      1.655990   184A      1.675670  
     185A      1.682589   186A      1.685541   187A      1.696349  
     188A      1.705814   189A      1.719867   190A      1.731222  
     191A      1.749044   192A      1.780188   193A      1.782020  
     194A      1.801718   195A      1.812587   196A      1.816746  
     197A      1.835278   198A      1.845285   199A      1.853301  
     200A      1.875330   201A      1.877238   202A      1.907199  
     203A      1.919071   204A      1.955805   205A      1.986484  
     206A      2.015008   207A      2.032708   208A      2.063044  
     209A      2.104222   210A      2.127407   211A      2.189212  
     212A      2.220980   213A      2.254598   214A      2.331615  
     215A      2.425819   216A      2.463934   217A      2.521329  
     218A      2.570006   219A      2.587430   220A      2.599764  
     221A      2.660481   222A      2.677500   223A      2.686982  
     224A      2.689367   225A      2.711864   226A      2.714632  
     227A      2.729987   228A      2.738677   229A      2.754960  
     230A      2.757503   231A      2.781081   232A      2.799196  
     233A      2.814532   234A      2.817363   235A      2.848755  
     236A      2.863558   237A      2.875259   238A      2.887409  
     239A      2.896816   240A      2.905943   241A      2.928052  
     242A      2.939479   243A      2.948238   244A      2.970142  
     245A      2.976102   246A      2.988405   247A      3.003910  
     248A      3.019632   249A      3.030284   250A      3.040809  
     251A      3.042252   252A      3.063872   253A      3.084128  
     254A      3.090292   255A      3.105187   256A      3.124247  
     257A      3.130128   258A      3.140016   259A      3.151493  
     260A      3.159739   261A      3.176234   262A      3.182876  
     263A      3.198659   264A      3.225180   265A      3.230560  
     266A      3.245628   267A      3.253429   268A      3.274904  
     269A      3.282592   270A      3.287644   271A      3.295556  
     272A      3.308520   273A      3.321932   274A      3.333588  
     275A      3.343083   276A      3.354524   277A      3.358697  
     278A      3.366212   279A      3.371613   280A      3.387645  
     281A      3.394980   282A      3.408391   283A      3.414718  
     284A      3.419242   285A      3.427074   286A      3.432359  
     287A      3.439494   288A      3.444569   289A      3.457478  
     290A      3.461751   291A      3.464765   292A      3.472589  
     293A      3.479516   294A      3.491562   295A      3.498085  
     296A      3.520548   297A      3.530832   298A      3.539308  
     299A      3.546903   300A      3.550348   301A      3.555223  
     302A      3.564494   303A      3.582625   304A      3.584932  
     305A      3.603236   306A      3.612743   307A      3.615723  
     308A      3.635525   309A      3.642046   310A      3.648095  
     311A      3.663606   312A      3.695795   313A      3.700675  
     314A      3.710389   315A      3.724817   316A      3.741916  
     317A      3.749510   318A      3.764447   319A      3.774995  
     320A      3.784498   321A      3.797697   322A      3.808683  
     323A      3.822067   324A      3.829604   325A      3.834342  
     326A      3.853644   327A      3.863608   328A      3.885576  
     329A      3.889247   330A      3.907113   331A      3.911683  
     332A      3.919423   333A      3.932889   334A      3.934620  
     335A      3.947450   336A      3.960718   337A      3.968372  
     338A      3.996681   339A      4.005558   340A      4.015072  
     341A      4.027314   342A      4.047717   343A      4.050485  
     344A      4.060371   345A      4.091377   346A      4.099084  
     347A      4.105366   348A      4.116678   349A      4.123012  
     350A      4.130573   351A      4.140314   352A      4.151476  
     353A      4.155868   354A      4.166654   355A      4.169331  
     356A      4.194554   357A      4.200723   358A      4.207580  
     359A      4.222127   360A      4.234531   361A      4.236304  
     362A      4.247343   363A      4.255644   364A      4.265178  
     365A      4.282816   366A      4.289406   367A      4.294611  
     368A      4.300540   369A      4.321812   370A      4.327899  
     371A      4.345133   372A      4.349860   373A      4.357312  
     374A      4.381770   375A      4.383803   376A      4.392908  
     377A      4.403638   378A      4.411926   379A      4.417072  
     380A      4.428910   381A      4.435427   382A      4.439536  
     383A      4.454984   384A      4.464803   385A      4.475483  
     386A      4.476858   387A      4.490673   388A      4.496025  
     389A      4.510556   390A      4.529840   391A      4.545007  
     392A      4.556305   393A      4.567947   394A      4.575066  
     395A      4.583739   396A      4.598774   397A      4.608267  
     398A      4.619459   399A      4.633434   400A      4.650640  
     401A      4.653338   402A      4.663871   403A      4.669553  
     404A      4.679569   405A      4.685832   406A      4.702724  
     407A      4.721869   408A      4.741564   409A      4.749431  
     410A      4.750219   411A      4.781651   412A      4.794777  
     413A      4.805624   414A      4.820230   415A      4.840847  
     416A      4.847329   417A      4.856076   418A      4.873005  
     419A      4.906244   420A      4.919459   421A      4.946934  
     422A      4.955053   423A      4.985392   424A      5.031144  
     425A      5.037255   426A      5.057549   427A      5.075043  
     428A      5.087507   429A      5.096713   430A      5.121555  
     431A      5.142452   432A      5.155327   433A      5.162389  
     434A      5.177572   435A      5.197914   436A      5.210251  
     437A      5.214103   438A      5.231819   439A      5.240814  
     440A      5.249706   441A      5.264142   442A      5.282001  
     443A      5.294369   444A      5.320915   445A      5.329244  
     446A      5.329999   447A      5.347657   448A      5.374349  
     449A      5.390433   450A      5.395567   451A      5.409134  
     452A      5.428564   453A      5.454179   454A      5.460567  
     455A      5.471311   456A      5.484258   457A      5.492307  
     458A      5.506277   459A      5.530373   460A      5.546759  
     461A      5.582372   462A      5.589775   463A      5.630286  
     464A      5.659771   465A      5.672447   466A      5.677416  
     467A      5.728991   468A      5.749572   469A      5.752498  
     470A      5.759030   471A      5.764020   472A      5.787481  
     473A      5.788723   474A      5.824765   475A      5.832472  
     476A      5.852505   477A      5.871048   478A      5.893768  
     479A      5.899367   480A      5.917594   481A      5.945505  
     482A      5.962102   483A      5.980320   484A      5.995015  
     485A      6.013022   486A      6.041133   487A      6.056032  
     488A      6.076614   489A      6.093998   490A      6.108553  
     491A      6.133625   492A      6.207756   493A      6.277020  
     494A      6.313873   495A      6.324970   496A      6.336075  
     497A      6.371457   498A      6.376290   499A      6.410000  
     500A      6.427363   501A      6.499939   502A      6.533063  
     503A      6.556817   504A      6.639346   505A      6.779417  
     506A      7.099031   507A      7.196970   508A      7.256255  
     509A      7.319986   510A      7.437552   511A      7.556154  
     512A      7.714668   513A      8.039204   514A     12.565735  
     515A     12.911579   516A     13.504659   517A     13.614458  
     518A     13.634514   519A     13.950911   520A     14.166471  
     521A     14.286965   522A     14.407499  

    Final Occupation by Irrep:
              A 
    DOCC [    37 ]

  Energy converged.

  @DF-RHF Final Energy:  -388.38916615471777

   => Energetics <=

    Nuclear Repulsion Energy =            481.4522316115346143
    One-Electron Energy =               -1481.1992657893199521
    Two-Electron Energy =                 611.3578680230677946
    DFT Exchange-Correlation Energy =       0.0000000000000000
    Empirical Dispersion Energy =           0.0000000000000000
    PCM Polarization Energy =               0.0000000000000000
    EFP Energy =                            0.0000000000000000
    Total Energy =                       -388.3891661547174863


  Saving occupied orbitals to File 180.

*** tstop() called on cx1-27-1-3 at Sat Sep 10 18:07:29 2016
Module time:
	user time   =     101.01 seconds =       1.68 minutes
	system time =       1.48 seconds =       0.02 minutes
	total time  =         28 seconds =       0.47 minutes
Total time:
	user time   =     101.01 seconds =       1.68 minutes
	system time =       1.48 seconds =       0.02 minutes
	total time  =         28 seconds =       0.47 minutes


Properties will be evaluated at   0.000000,   0.000000,   0.000000 Bohr

Properties computed using the SCF density matrix

  Nuclear Dipole Moment: (a.u.)
     X:    -1.1959      Y:    -7.7755      Z:    -1.2233

  Electronic Dipole Moment: (a.u.)
     X:     0.7681      Y:     7.4160      Z:     1.6009

  Dipole Moment: (a.u.)
     X:    -0.4278      Y:    -0.3595      Z:     0.3777     Total:     0.6745

  Dipole Moment: (Debye)
     X:    -1.0875      Y:    -0.9137      Z:     0.9599     Total:     1.7143


*** tstart() called on cx1-27-1-3
*** at Sat Sep 10 18:07:29 2016


         ------------------------------------------------------------
                                   SCF GRAD                          
                          Rob Parrish, Justin Turney,                
                       Andy Simmonett, and Alex Sokolov              
         ------------------------------------------------------------

  ==> Geometry <==

    Molecular point group: c1
    Full point group: C1

    Geometry (in Angstrom), charge = 0, multiplicity = 1:

       Center              X                  Y                   Z               Mass       
    ------------   -----------------  -----------------  -----------------  -----------------
           H          0.525202811772     3.670371353919     1.070992373627     1.007825032070
           O          1.269783811772     3.303848353919     0.631572373627    15.994914619560
           C          1.476387811772     1.979840353919     1.048214373627    12.000000000000
           C          0.444586811772     1.004196353919     0.502145373627    12.000000000000
           H          2.458957811772     1.706675353919     0.687774373627     1.007825032070
           H          1.504864811772     1.924003353919     2.134732373627     1.007825032070
           C         -0.974264188228     1.239389353919     1.015365373627    12.000000000000
           H          0.455471811772     1.060997353919    -0.582203626373     1.007825032070
           H          0.761493811772    -0.001200646081     0.768875373627     1.007825032070
           C         -1.975782188228     0.221347353919     0.471868373627    12.000000000000
           H         -1.292707188228     2.240188353919     0.743339373627     1.007825032070
           H         -0.975703188228     1.195285353919     2.103179373627     1.007825032070
           C         -1.468363188228    -0.623091646081    -0.698474626373    12.000000000000
           H         -2.290049188228    -0.436028646081     1.278913373627     1.007825032070
           H         -2.867576188228     0.752367353919     0.150636373627     1.007825032070
           C         -0.340532188228    -1.594202646081    -0.353970626373    12.000000000000
           H         -2.304377188228    -1.191891646081    -1.096061626373     1.007825032070
           H         -1.143417188228     0.035176353919    -1.501125626373     1.007825032070
           C          0.062381811772    -2.482495646081    -1.528281626373    12.000000000000
           H         -0.650561188228    -2.221729646081     0.478831373627     1.007825032070
           H          0.533126811772    -1.046634646081    -0.013541626373     1.007825032070
           C          1.190763811772    -3.450702646081    -1.188835626373    12.000000000000
           H         -0.803890188228    -3.044152646081    -1.866943626373     1.007825032070
           H          0.364348811772    -1.856908646081    -2.364056626373     1.007825032070
           H          0.907643811772    -4.112461646081    -0.376951626373     1.007825032070
           H          1.449903811772    -4.067026646081    -2.042121626373     1.007825032070
           H          2.085074811772    -2.918137646081    -0.882350626373     1.007825032070

  Nuclear repulsion =  481.452231611534614

  ==> Basis Set <==

  Basis Set: CC-PVTZ
    Number of shells: 198
    Number of basis function: 522
    Number of Cartesian functions: 585
    Spherical Harmonics?: true
    Max angular momentum: 3

  ==> DFJKGrad: Density-Fitted SCF Gradients <==

    Gradient:                    1
    J tasked:                  Yes
    K tasked:                  Yes
    wK tasked:                  No
    OpenMP threads:              4
    Integrals threads:           4
    Memory (MB):              1430
    Schwarz Cutoff:          0E+00
    Fitting Condition:       1E-12

   => Auxiliary Basis Set <=

  Basis Set: 
    Number of shells: 405
    Number of basis function: 1251
    Number of Cartesian functions: 1494
    Spherical Harmonics?: true
    Max angular momentum: 4


  -Total Gradient:
     Atom            X                  Y                   Z
    ------   -----------------  -----------------  -----------------
       1       -0.000152146465     0.000126351461     0.000104304835
       2       -0.000548348802    -0.001466251187    -0.000088409224
       3        0.002744614951    -0.001286378562     0.000481940958
       4       -0.012320583712    -0.013967003358    -0.013240585643
       5       -0.000256304022    -0.000065131460     0.000117361024
       6       -0.000172982970     0.000002027693    -0.000129675792
       7       -0.007702813211    -0.002247661151    -0.002399265441
       8       -0.002558593857    -0.000880521726    -0.003254087121
       9       -0.003523936699    -0.031530599107    -0.012441412969
      10        0.008011459023     0.003910340518     0.001365811658
      11       -0.000784181851    -0.000104152614     0.000300651178
      12       -0.000845971152    -0.002174696553     0.001842029721
      13        0.002809667281     0.000387541358     0.002722254210
      14       -0.000165911213     0.001104326961     0.002545375525
      15        0.000261676298     0.002777551058    -0.000754375885
      16       -0.004927285478     0.011020558779     0.004506572367
      17       -0.000201258279     0.000054431311    -0.000219603374
      18        0.002161838335     0.002219444024     0.000290337666
      19        0.003006441717     0.001349969376     0.000081851199
      20        0.001037162068     0.000843623253    -0.000346434841
      21        0.014559959033     0.029643872029     0.017618479889
      22        0.000183094821    -0.000151333293     0.000022361964
      23       -0.000296730045     0.000511899563     0.000909626525
      24       -0.000094348181    -0.000125689282     0.000050950629
      25        0.000007900216     0.000037412018    -0.000019235220
      26       -0.000081040398    -0.000019215103    -0.000066721639
      27       -0.000151377407     0.000029283991    -0.000000102201


*** tstop() called on cx1-27-1-3 at Sat Sep 10 18:07:54 2016
Module time:
	user time   =      94.95 seconds =       1.58 minutes
	system time =       0.99 seconds =       0.02 minutes
	total time  =         25 seconds =       0.42 minutes
Total time:
	user time   =     196.13 seconds =       3.27 minutes
	system time =       2.48 seconds =       0.04 minutes
	total time  =         53 seconds =       0.88 minutes

			-----------------------------------------
			 OPTKING 2.0: for geometry optimizations 
			  - R.A. King,  Bethel University        
			-----------------------------------------

	Internal coordinates to be generated automatically.
	Detected frag 1 with atoms:  1 2 3 4 5 6 7 8 9 10 11 12 13 14 15 16 17 18 19 20
	 21 22 23 24 25 26 27
	---Fragment 1 Bond Connectivity---
	 1 : 2
	 2 : 1 3
	 3 : 2 4 5 6
	 4 : 3 7 8 9
	 5 : 3
	 6 : 3
	 7 : 4 10 11 12
	 8 : 4
	 9 : 4
	 10 : 7 13 14 15
	 11 : 7
	 12 : 7
	 13 : 10 16 17 18
	 14 : 10
	 15 : 10
	 16 : 13 19 20 21
	 17 : 13
	 18 : 13
	 19 : 16 22 23 24
	 20 : 16
	 21 : 16
	 22 : 19 25 26 27
	 23 : 19
	 24 : 19
	 25 : 22
	 26 : 22
	 27 : 22

	Assuming in current code that numbering for constraints corresponds to unified fragment.
	Frozen dihedral atom list: 
	    14    10     7     4
	---Fragment 1 Geometry and Gradient---
	 H           0.9924894785        6.9359966649        2.0238822766
	 O           2.3995436522        6.2433685735        1.1934988193
	 C           2.7899686302        3.7413560557        1.9808380947
	 C           0.8401473165        1.8976560926        0.9489172351
	 H           4.6467568366        3.2251490167        1.2997052074
	 H           2.8437823613        3.6358394177        4.0340595532
	 C          -1.8410924968        2.3421064509        1.9187624810
	 H           0.8607169855        2.0049944266       -1.1002054074
	 H           1.4390147561       -0.0022688923        1.4529638865
	 C          -3.7336872340        0.4182858791        0.8917019969
	 H          -2.4428625558        4.2333424750        1.4047078399
	 H          -1.8438118127        2.2587619696        3.9744330245
	 C          -2.7748042894       -1.1774725668       -1.3199257546
	 H          -4.3275657966       -0.8239747272        2.4167960238
	 H          -5.4189336609        1.4217682502        0.2846614918
	 C          -0.6435125752       -3.0126064014       -0.6689075429
	 H          -4.3546417926       -2.2523487912       -2.0712562986
	 H          -2.1607453414        0.0664736753       -2.8367163249
	 C           0.1178845399       -4.6912368972       -2.8880337278
	 H          -1.2293824784       -4.1984605724        0.9048601600
	 H           1.0074636683       -1.9778528423       -0.0255899652
	 C           2.2502174932       -6.5208829671       -2.2465737509
	 H          -1.5191322967       -5.7526148078       -3.5280121594
	 H           0.6885194711       -3.5090487949       -4.4674195865
	 H           1.7151982305       -7.7714262431       -0.7123353392
	 H           2.7399211233       -7.6855665362       -3.8590506039
	 H           3.9402203608       -5.5144809692       -1.6674010370
	            -0.0001521465        0.0001263515        0.0001043048
	            -0.0005483488       -0.0014662512       -0.0000884092
	             0.0027446150       -0.0012863786        0.0004819410
	            -0.0123205837       -0.0139670034       -0.0132405856
	            -0.0002563040       -0.0000651315        0.0001173610
	            -0.0001729830        0.0000020277       -0.0001296758
	            -0.0077028132       -0.0022476612       -0.0023992654
	            -0.0025585939       -0.0008805217       -0.0032540871
	            -0.0035239367       -0.0315305991       -0.0124414130
	             0.0080114590        0.0039103405        0.0013658117
	            -0.0007841819       -0.0001041526        0.0003006512
	            -0.0008459712       -0.0021746966        0.0018420297
	             0.0028096673        0.0003875414        0.0027222542
	            -0.0001659112        0.0011043270        0.0025453755
	             0.0002616763        0.0027775511       -0.0007543759
	            -0.0049272855        0.0110205588        0.0045065724
	            -0.0002012583        0.0000544313       -0.0002196034
	             0.0021618383        0.0022194440        0.0002903377
	             0.0030064417        0.0013499694        0.0000818512
	             0.0010371621        0.0008436233       -0.0003464348
	             0.0145599590        0.0296438720        0.0176184799
	             0.0001830948       -0.0001513333        0.0000223620
	            -0.0002967300        0.0005118996        0.0009096265
	            -0.0000943482       -0.0001256893        0.0000509506
	             0.0000079002        0.0000374120       -0.0000192352
	            -0.0000810404       -0.0000192151       -0.0000667216
	            -0.0001513774        0.0000292840       -0.0000001022

	Previous optimization step data not found.  Starting new optimization.

	---Fragment 1 Intrafragment Coordinates---
	 - Coordinate -           - BOHR/RAD -       - ANG/DEG -
	 R(1,2)           =         1.774562	       0.939058
	 R(2,3)           =         2.651868	       1.403308
	 R(3,4)           =         2.875047	       1.521409
	 R(3,5)           =         2.044034	       1.081656
	 R(3,6)           =         2.056635	       1.088324
	 R(4,7)           =         2.885686	       1.527039
	 R(4,8)           =         2.052035	       1.085890
	 R(4,9)           =         2.054853	       1.087381
	 R(7,10)          =         2.887534	       1.528017
	 R(7,11)          =         2.050159	       1.084898
	 R(7,12)          =         2.057361	       1.088709
	 R(10,13)         =         2.890882	       1.529789
	 R(10,14)         =         2.054706	       1.087303
	 R(10,15)         =         2.053176	       1.086494
	 R(13,16)         =         2.886857	       1.527659
	 R(13,17)         =         2.053227	       1.086521
	 R(13,18)         =         2.055511	       1.087729
	 R(16,19)         =         2.884796	       1.526568
	 R(16,20)         =         2.055782	       1.087873
	 R(16,21)         =         2.051900	       1.085819
	 R(19,22)         =         2.881999	       1.525088
	 R(19,23)         =         2.053270	       1.086544
	 R(19,24)         =         2.053692	       1.086767
	 R(22,25)         =         2.050364	       1.085006
	 R(22,26)         =         2.048507	       1.084023
	 R(22,27)         =         2.050462	       1.085058
	 B(1,2,3)         =         1.924163	     110.246443
	 B(2,3,4)         =         1.980816	     113.492378
	 B(2,3,5)         =         1.847385	     105.847389
	 B(2,3,6)         =         1.926943	     110.405724
	 B(3,4,7)         =         1.994063	     114.251367
	 B(3,4,8)         =         1.894491	     108.546339
	 B(3,4,9)         =         1.883080	     107.892561
	 B(4,3,5)         =         1.911879	     109.542606
	 B(4,3,6)         =         1.921088	     110.070237
	 B(4,7,10)        =         1.968001	     112.758145
	 B(4,7,11)        =         1.907669	     109.301391
	 B(4,7,12)        =         1.907948	     109.317391
	 B(5,3,6)         =         1.871247	     107.214563
	 B(7,4,8)         =         1.914386	     109.686211
	 B(7,4,9)         =         1.907903	     109.314789
	 B(7,10,13)       =         2.006975	     114.991192
	 B(7,10,14)       =         1.905242	     109.162349
	 B(7,10,15)       =         1.893906	     108.512827
	 B(8,4,9)         =         1.865431	     106.881341
	 B(10,7,11)       =         1.910315	     109.453001
	 B(10,7,12)       =         1.904494	     109.119475
	 B(10,13,16)      =         2.007828	     115.040094
	 B(10,13,17)      =         1.889887	     108.282528
	 B(10,13,18)      =         1.906638	     109.242325
	 B(11,7,12)       =         1.862428	     106.709240
	 B(13,10,14)      =         1.907079	     109.267567
	 B(13,10,15)      =         1.892148	     108.412112
	 B(13,16,19)      =         1.972819	     113.034183
	 B(13,16,20)      =         1.905962	     109.203599
	 B(13,16,21)      =         1.922134	     110.130171
	 B(14,10,15)      =         1.852201	     106.123316
	 B(16,13,17)      =         1.894198	     108.529553
	 B(16,13,18)      =         1.907692	     109.302723
	 B(16,19,22)      =         1.975208	     113.171109
	 B(16,19,23)      =         1.907235	     109.276528
	 B(16,19,24)      =         1.907064	     109.266724
	 B(17,13,18)      =         1.851105	     106.060484
	 B(19,16,20)      =         1.905455	     109.174536
	 B(19,16,21)      =         1.898906	     108.799300
	 B(19,22,25)      =         1.939803	     111.142523
	 B(19,22,26)      =         1.941873	     111.261152
	 B(19,22,27)      =         1.940227	     111.166830
	 B(20,16,21)      =         1.854783	     106.271229
	 B(22,19,23)      =         1.908256	     109.335015
	 B(22,19,24)      =         1.908197	     109.331658
	 B(23,19,24)      =         1.853952	     106.223612
	 B(25,22,26)      =         1.880330	     107.734984
	 B(25,22,27)      =         1.878704	     107.641793
	 B(26,22,27)      =         1.880066	     107.719845
	 D(1,2,3,4)       =         1.266955	      72.591179
	 D(1,2,3,5)       =        -2.918907	    -167.241059
	 D(1,2,3,6)       =        -0.899358	     -51.529400
	 D(2,3,4,7)       =        -1.144109	     -65.552646
	 D(2,3,4,8)       =         0.998137	      57.189014
	 D(2,3,4,9)       =         3.013624	     172.667910
	 D(3,4,7,10)      =        -3.117883	    -178.641537
	 D(3,4,7,11)      =         1.036403	      59.381545
	 D(3,4,7,12)      =        -0.996212	     -57.078739
	 D(4,7,10,13)     =        -0.230187	     -13.188745
	*D(4,7,10,14)     =         1.919862	     110.000008
	 D(4,7,10,15)     =        -2.352020	    -134.760847
	 D(5,3,4,7)       =         3.078716	     176.397452
	 D(5,3,4,8)       =        -1.062223	     -60.860888
	 D(5,3,4,9)       =         0.953264	      54.618008
	 D(6,3,4,7)       =         1.025378	      58.749855
	 D(6,3,4,8)       =        -3.115561	    -178.508485
	 D(6,3,4,9)       =        -1.100074	     -63.029589
	 D(7,10,13,16)    =         1.171314	      67.111362
	 D(7,10,13,17)    =        -2.989829	    -171.304588
	 D(7,10,13,18)    =        -0.981259	     -56.222001
	 D(8,4,7,10)      =         1.033909	      59.238625
	 D(8,4,7,11)      =        -1.094990	     -62.738294
	 D(8,4,7,12)      =        -3.127605	    -179.198577
	 D(9,4,7,10)      =        -1.006127	     -57.646811
	 D(9,4,7,11)      =        -3.135025	    -179.623729
	 D(9,4,7,12)      =         1.115544	      63.915988
	 D(10,13,16,19)   =         3.069957	     175.895589
	 D(10,13,16,20)   =         0.945241	      54.158327
	 D(10,13,16,21)   =        -1.085242	     -62.179803
	 D(11,7,10,13)    =         1.897219	     108.702621
	 D(11,7,10,14)    =        -2.235917	    -128.108626
	 D(11,7,10,15)    =        -0.224615	     -12.869482
	 D(12,7,10,13)    =        -2.353814	    -134.863608
	 D(12,7,10,14)    =        -0.203765	     -11.674854
	 D(12,7,10,15)    =         1.807538	     103.564290
	 D(13,16,19,22)   =         3.138889	     179.845110
	 D(13,16,19,23)   =        -1.013459	     -58.066932
	 D(13,16,19,24)   =         1.008252	      57.768560
	 D(14,10,13,16)   =        -0.977756	     -56.021268
	 D(14,10,13,17)   =         1.144286	      65.562783
	 D(14,10,13,18)   =        -3.130329	    -179.354631
	 D(15,10,13,16)   =        -2.989084	    -171.261878
	 D(15,10,13,17)   =        -0.867042	     -49.677827
	 D(15,10,13,18)   =         1.141528	      65.404760
	 D(16,19,22,25)   =         1.043452	      59.785396
	 D(16,19,22,26)   =         3.138917	     179.846694
	 D(16,19,22,27)   =        -1.048852	     -60.094807
	 D(17,13,16,19)   =         0.950255	      54.445593
	 D(17,13,16,20)   =        -1.174461	     -67.291669
	 D(17,13,16,21)   =         3.078241	     176.370201
	 D(18,13,16,19)   =        -1.061216	     -60.803177
	 D(18,13,16,20)   =         3.097254	     177.459561
	 D(18,13,16,21)   =         1.066770	      61.121431
	 D(20,16,19,22)   =        -1.019295	     -58.401280
	 D(20,16,19,23)   =         1.111542	      63.686679
	 D(20,16,19,24)   =         3.133253	     179.522171
	 D(21,16,19,22)   =         0.997915	      57.176340
	 D(21,16,19,23)   =         3.128752	     179.264299
	 D(21,16,19,24)   =        -1.132722	     -64.900210
	 D(23,19,22,25)   =        -1.086814	     -62.269865
	 D(23,19,22,26)   =         1.008651	      57.791432
	 D(23,19,22,27)   =         3.104067	     177.849932
	 D(24,19,22,25)   =        -3.109729	    -178.174361
	 D(24,19,22,26)   =        -1.014264	     -58.113064
	 D(24,19,22,27)   =         1.081152	      61.945436
	 R(4,16)          =         5.378595	       2.846230

	Current energy   :      -388.3891661547

	Generating empirical Hessian (Schlegel '84) for each fragment.
	Taking RFO optimization step.
	Going to follow RFO solution 1.
	Using RFO vector 1.

	Determining step-restricting scale parameter for RS-RFO.
	Maximum step size allowed    0.50000

	 Iter      |step|        alpha        rfo_root  
	------------------------------------------------
	    0     0.79887       1.00000           1
	    1     0.60769       1.87810           1
	    2     0.52297       2.63216           1
	    3     0.50147       2.89021           1
	    4     0.50001       2.90906           1
	------------------------------------------------
	Norm of target step-size    0.50001
	Projected energy change by RFO approximation:        -0.0311650902

	Back-transformation to cartesian coordinates...
	Successfully converged to displaced geometry.

	Back-transformation to cartesian coordinates to adjust frozen coordinates...
	Successfully converged to displaced geometry.

	--- Internal Coordinate Step in ANG or DEG, aJ/ANG or AJ/DEG ---
	 ---------------------------------------------------------------------------
	   Coordinate                Previous        Force       Change         New 
	   ----------                --------       ------       ------       ------
	    1 R(1,2)          =      0.939058    -0.001802    -0.000159     0.938899
	    2 R(2,3)          =      1.403308     0.009604     0.001068     1.404376
	    3 R(3,4)          =      1.521409     0.003750     0.000561     1.521970
	    4 R(3,5)          =      1.081656     0.002105     0.000279     1.081935
	    5 R(3,6)          =      1.088324     0.001105     0.000149     1.088473
	    6 R(4,7)          =      1.527039    -0.020206    -0.003007     1.524032
	    7 R(4,8)          =      1.085890    -0.026181    -0.003504     1.082386
	    8 R(4,9)          =      1.087381    -0.206582    -0.027750     1.059631
	    9 R(7,10)         =      1.528017     0.048091     0.011565     1.539583
	   10 R(7,11)         =      1.084898    -0.000484    -0.000065     1.084833
	   11 R(7,12)         =      1.088709    -0.015899    -0.002143     1.086566
	   12 R(10,13)        =      1.529789    -0.017843     0.000341     1.530129
	   13 R(10,14)        =      1.087303    -0.010460    -0.001405     1.085899
	   14 R(10,15)        =      1.086494    -0.011252    -0.001508     1.084986
	   15 R(13,16)        =      1.527659    -0.059342    -0.007537     1.520122
	   16 R(13,17)        =      1.086521    -0.001703    -0.000228     1.086293
	   17 R(13,18)        =      1.087729    -0.014622    -0.001966     1.085764
	   18 R(16,19)        =      1.526568     0.008431     0.001276     1.527844
	   19 R(16,20)        =      1.087873     0.008629     0.001161     1.089033
	   20 R(16,21)        =      1.085819    -0.265188    -0.035487     1.050332
	   21 R(19,22)        =      1.525088    -0.000174    -0.000026     1.525062
	   22 R(19,23)        =      1.086544     0.002567     0.000344     1.086888
	   23 R(19,24)        =      1.086767     0.001135     0.000152     1.086919
	   24 R(22,25)        =      1.085006     0.000324     0.000043     1.085049
	   25 R(22,26)        =      1.084023    -0.000363    -0.000048     1.083975
	   26 R(22,27)        =      1.085058     0.000910     0.000122     1.085179
	   27 B(1,2,3)        =    110.246443    -0.000005    -0.013363   110.233080
	   28 B(2,3,4)        =    113.492378     0.000127     0.081517   113.573895
	   29 B(2,3,5)        =    105.847389    -0.000050     0.164253   106.011641
	   30 B(2,3,6)        =    110.405724    -0.000042    -0.162766   110.242958
	   31 B(3,4,7)        =    114.251367    -0.000614    -1.804117   112.447251
	   32 B(3,4,8)        =    108.546339    -0.000089    -0.309497   108.236841
	   33 B(3,4,9)        =    107.892561    -0.000449    -1.994555   105.898007
	   34 B(4,3,5)        =    109.542606    -0.000024    -0.275876   109.266730
	   35 B(4,3,6)        =    110.070237    -0.000024     0.280560   110.350797
	   36 B(4,7,10)       =    112.758145     0.000800     2.987294   115.745439
	   37 B(4,7,11)       =    109.301391     0.000105     0.105124   109.406515
	   38 B(4,7,12)       =    109.317391    -0.000671    -2.113607   107.203784
	   39 B(5,3,6)        =    107.214563     0.000006    -0.110730   107.103833
	   40 B(7,4,8)        =    109.686211     0.000438     1.390893   111.077104
	   41 B(7,4,9)        =    109.314789     0.000467     1.388453   110.703241
	   42 B(7,10,13)      =    114.991192     0.000471     2.789432   117.780624
	   43 B(7,10,14)      =    109.162349    -0.000406    -1.075233   108.087116
	   44 B(7,10,15)      =    108.512827     0.000171    -0.349449   108.163378
	   45 B(8,4,9)        =    106.881341     0.000289     1.371845   108.253186
	   46 B(10,7,11)      =    109.453001    -0.000736    -2.471143   106.981858
	   47 B(10,7,12)      =    109.119475     0.000371     1.290203   110.409677
	   48 B(10,13,16)     =    115.040094     0.001075     3.168472   118.208566
	   49 B(10,13,17)     =    108.282528    -0.000593    -1.790499   106.492028
	   50 B(10,13,18)     =    109.242325    -0.000019     0.256213   109.498538
	   51 B(11,7,12)      =    106.709240     0.000093     0.046336   106.755576
	   52 B(13,10,14)     =    109.267567     0.000599     1.758842   111.026409
	   53 B(13,10,15)     =    108.412112    -0.000718    -2.699851   105.712261
	   54 B(13,16,19)     =    113.034183    -0.000760    -1.791757   111.242426
	   55 B(13,16,20)     =    109.203599     0.000013    -0.148494   109.055105
	   56 B(13,16,21)     =    110.130171     0.001279     4.062246   114.192418
	   57 B(14,10,15)     =    106.123316    -0.000172    -0.803929   105.319387
	   58 B(16,13,17)     =    108.529553    -0.000088    -0.508562   108.020991
	   59 B(16,13,18)     =    109.302723    -0.000555    -1.355530   107.947193
	   60 B(16,19,22)     =    113.171109    -0.000047    -0.078787   113.092322
	   61 B(16,19,23)     =    109.276528     0.000077     0.263102   109.539630
	   62 B(16,19,24)     =    109.266724    -0.000006     0.032446   109.299170
	   63 B(17,13,18)     =    106.060484     0.000112    -0.035460   106.025024
	   64 B(19,16,20)     =    109.174536     0.000198    -0.014593   109.159942
	   65 B(19,16,21)     =    108.799300    -0.000620    -2.030808   106.768492
	   66 B(19,22,25)     =    111.142523    -0.000002    -0.219831   110.922692
	   67 B(19,22,26)     =    111.261152     0.000007     0.040934   111.302085
	   68 B(19,22,27)     =    111.166830     0.000009     0.119778   111.286609
	   69 B(20,16,21)     =    106.271229    -0.000075    -0.059668   106.211560
	   70 B(22,19,23)     =    109.335015    -0.000023    -0.037828   109.297188
	   71 B(22,19,24)     =    109.331658     0.000018    -0.119639   109.212019
	   72 B(23,19,24)     =    106.223612    -0.000017    -0.058755   106.164856
	   73 B(25,22,26)     =    107.734984    -0.000003     0.054403   107.789387
	   74 B(25,22,27)     =    107.641793    -0.000003     0.012469   107.654261
	   75 B(26,22,27)     =    107.719845    -0.000009    -0.004379   107.715466
	   76 D(1,2,3,4)      =     72.591179     0.000001     0.156133    72.747312
	   77 D(1,2,3,5)      =   -167.241059     0.000004    -0.027674  -167.268733
	   78 D(1,2,3,6)      =    -51.529400    -0.000006    -0.148317   -51.677717
	   79 D(2,3,4,7)      =    -65.552646    -0.000018    -0.363453   -65.916099
	   80 D(2,3,4,8)      =     57.189014    -0.000000    -0.025053    57.163961
	   81 D(2,3,4,9)      =    172.667910     0.000013     0.392350   173.060260
	   82 D(3,4,7,10)     =   -178.641537    -0.000121    -2.629179  -181.270716
	   83 D(3,4,7,11)     =     59.381545    -0.000047    -1.561270    57.820275
	   84 D(3,4,7,12)     =    -57.078739     0.000001    -0.508058   -57.586797
	   85 D(4,7,10,13)    =    -13.188745    -0.000186    -3.586602   -16.775347
	   86 *D(4,7,10,14)   =    110.000008     0.000000    -0.000000   110.000008
	   87 D(4,7,10,15)    =   -134.760847    -0.000075    -1.682317  -136.443164
	   88 D(5,3,4,7)      =    176.397452    -0.000018    -0.433936   175.963516
	   89 D(5,3,4,8)      =    -60.860888    -0.000000    -0.095536   -60.956424
	   90 D(5,3,4,9)      =     54.618008     0.000013     0.321867    54.939875
	   91 D(6,3,4,7)      =     58.749855    -0.000013    -0.299184    58.450671
	   92 D(6,3,4,8)      =   -178.508485     0.000005     0.039216  -178.469269
	   93 D(6,3,4,9)      =    -63.029589     0.000018     0.456619   -62.572970
	   94 D(7,10,13,16)   =     67.111362    -0.000038     0.350234    67.461595
	   95 D(7,10,13,17)   =   -171.304588     0.000000     0.429477  -170.875111
	   96 D(7,10,13,18)   =    -56.222001    -0.000045    -0.432573   -56.654574
	   97 D(8,4,7,10)     =     59.238625    -0.000071    -1.982868    57.255756
	   98 D(8,4,7,11)     =    -62.738294     0.000003    -0.914959   -63.653253
	   99 D(8,4,7,12)     =   -179.198577     0.000051     0.138253  -179.060324
	  100 D(9,4,7,10)     =    -57.646811    -0.000271    -5.395984   -63.042795
	  101 D(9,4,7,11)     =   -179.623729    -0.000197    -4.328075  -183.951804
	  102 D(9,4,7,12)     =     63.915988    -0.000149    -3.274863    60.641125
	  103 D(10,13,16,19)  =    175.895589    -0.000066    -1.952044   173.943545
	  104 D(10,13,16,20)  =     54.158327    -0.000008    -0.666549    53.491777
	  105 D(10,13,16,21)  =    -62.179803    -0.000157    -2.947484   -65.127286
	  106 D(11,7,10,13)   =    108.702621    -0.000151    -3.271316   105.431305
	  107 D(11,7,10,14)   =   -128.108626     0.000035     0.315286  -127.793340
	  108 D(11,7,10,15)   =    -12.869482    -0.000041    -1.367031   -14.236513
	  109 D(12,7,10,13)   =   -134.863608    -0.000173    -3.903665  -138.767273
	  110 D(12,7,10,14)   =    -11.674854     0.000013    -0.317064   -11.991918
	  111 D(12,7,10,15)   =    103.564290    -0.000062    -1.999380   101.564910
	  112 D(13,16,19,22)  =    179.845110     0.000079     1.219087   181.064196
	  113 D(13,16,19,23)  =    -58.066932     0.000077     1.307511   -56.759421
	  114 D(13,16,19,24)  =     57.768560     0.000082     1.402567    59.171127
	  115 D(14,10,13,16)  =    -56.021268    -0.000101    -1.858188   -57.879456
	  116 D(14,10,13,17)  =     65.562783    -0.000063    -1.778944    63.783838
	  117 D(14,10,13,18)  =   -179.354631    -0.000108    -2.640994  -181.995625
	  118 D(15,10,13,16)  =   -171.261878    -0.000038    -0.331461  -171.593338
	  119 D(15,10,13,17)  =    -49.677827     0.000000    -0.252217   -49.930044
	  120 D(15,10,13,18)  =     65.404760    -0.000045    -1.114267    64.290493
	  121 D(16,19,22,25)  =     59.785396     0.000006     0.119966    59.905362
	  122 D(16,19,22,26)  =    179.846694     0.000006     0.068394   179.915087
	  123 D(16,19,22,27)  =    -60.094807     0.000006     0.171380   -59.923427
	  124 D(17,13,16,19)  =     54.445593    -0.000041    -1.383307    53.062286
	  125 D(17,13,16,20)  =    -67.291669     0.000016    -0.097812   -67.389481
	  126 D(17,13,16,21)  =    176.370201    -0.000132    -2.378746   173.991455
	  127 D(18,13,16,19)  =    -60.803177     0.000007    -0.372006   -61.175183
	  128 D(18,13,16,20)  =    177.459561     0.000064     0.913489   178.373050
	  129 D(18,13,16,21)  =     61.121431    -0.000084    -1.367445    59.753986
	  130 D(20,16,19,22)  =    -58.401280    -0.000002    -0.144609   -58.545889
	  131 D(20,16,19,23)  =     63.686679    -0.000004    -0.056184    63.630494
	  132 D(20,16,19,24)  =    179.522171     0.000001     0.038872   179.561043
	  133 D(21,16,19,22)  =     57.176340    -0.000076    -1.305113    55.871227
	  134 D(21,16,19,23)  =    179.264299    -0.000078    -1.216689   178.047610
	  135 D(21,16,19,24)  =    -64.900210    -0.000073    -1.121632   -66.021842
	  136 D(23,19,22,25)  =    -62.269865    -0.000005    -0.136641   -62.406506
	  137 D(23,19,22,26)  =     57.791432    -0.000005    -0.188213    57.603220
	  138 D(23,19,22,27)  =    177.849932    -0.000006    -0.085227   177.764705
	  139 D(24,19,22,25)  =   -178.174361    -0.000000     0.021669  -178.152692
	  140 D(24,19,22,26)  =    -58.113064    -0.000000    -0.029903   -58.142967
	  141 D(24,19,22,27)  =     61.945436    -0.000000     0.073083    62.018519
	  142 R(4,16)         =      2.846230     0.525954     0.212817     3.059047
	 ---------------------------------------------------------------------------
	Successfully symmetrized geometry.

  ==> Convergence Check <==

  Measures of convergence in internal coordinates in au.
  Criteria marked as inactive (o), active & met (*), and active & unmet ( ).
  --------------------------------------------------------------------------------------------- ~
   Step     Total Energy     Delta E     MAX Force     RMS Force      MAX Disp      RMS Disp    ~
  --------------------------------------------------------------------------------------------- ~
    Convergence Criteria    1.00e-06 *    3.00e-04 *             o    1.20e-03 *             o  ~
  --------------------------------------------------------------------------------------------- ~
      1    -388.38916615   -3.88e+02      6.38e-02      7.80e-03 o    4.02e-01      4.20e-02 o  ~
  ---------------------------------------------------------------------------------------------

	Writing optimization data to binary file.
	Structure for next step:
	Cartesian Geometry (in Angstrom)
	    H     0.4094803575   3.7968760024   0.9060615227
	    O     1.2153768398   3.4482924533   0.5735676252
	    C     1.4746924355   2.1927691686   1.1468804606
	    C     0.5720764151   1.0856320824   0.6215944366
	    H     2.5030690137   1.9604084244   0.9039129262
	    H     1.4077935121   2.2530169548   2.2316240254
	    C    -0.8871433775   1.2908006916   1.0105112433
	    H     0.6852902219   1.0379098919  -0.4537962015
	    H     0.9468785113   0.1848700633   1.0350782170
	    C    -1.8732986415   0.2285472367   0.4914443891
	    H    -1.2285619279   2.2499865526   0.6360002866
	    H    -0.9259790414   1.3461230714   2.0949728646
	    C    -1.4093705284  -0.6775717406  -0.6509281479
	    H    -2.2147437192  -0.3574803350   1.3394789563
	    H    -2.7563943233   0.7389368248   0.1215279974
	    C    -0.2966015727  -1.6745499267  -0.3706572781
	    H    -2.2835918914  -1.2329973173  -0.9784516664
	    H    -1.1071740002  -0.0680307647  -1.4971076160
	    C    -0.0622903592  -2.5937522338  -1.5683522711
	    H    -0.5688083419  -2.2772410549   0.4945945148
	    H     0.6287342701  -1.2336063705  -0.1414860427
	    C     1.0299555543  -3.6293937192  -1.3228734160
	    H    -0.9885617316  -3.1021174986  -1.8231300083
	    H     0.2019937752  -1.9938303397  -2.4353248873
	    H     0.7781554563  -4.2660156399  -0.4810655095
	    H     1.1709384753  -4.2658715775  -2.1889107640
	    H     1.9808545361  -3.1546893439  -1.1036445691
			--------------------------
			 OPTKING Finished Execution 
			--------------------------

    Structure for next step:
    Molecular point group: c1
    Full point group: C1

    Geometry (in Angstrom), charge = 0, multiplicity = 1:

    H            0.404525423777     3.786305760651     0.905174377561
    O            1.210421906093     3.437722211585     0.572680480107
    C            1.469737501773     2.182198926883     1.145993315511
    C            0.567121481316     1.075061840740     0.620707291478
    H            2.498114079936     1.949838182734     0.903025781067
    H            1.402838578360     2.242446713136     2.230736880314
    C           -0.892098311237     1.280230449915     1.009624098132
    H            0.680335288134     1.027339650163    -0.454683346600
    H            0.941923577550     0.174299821622     1.034191071853
    C           -1.878253575271     0.217976994977     0.490557243991
    H           -1.233516861680     2.239416310842     0.635113141516
    H           -0.930933975114     1.335552829689     2.094085719512
    C           -1.414325462151    -0.688141982313    -0.651815293067
    H           -2.219698652907    -0.368050576713     1.338591811209
    H           -2.761349257081     0.728366583089     0.120640852322
    C           -0.301556506480    -1.685120168422    -0.371544423217
    H           -2.288546825169    -1.243567559038    -0.979338811573
    H           -1.112128933957    -0.078601006360    -1.497994761156
    C           -0.067245292938    -2.604322475555    -1.569239416193
    H           -0.573763275598    -2.287811296579     0.493707369656
    H            0.623779336366    -1.244176612240    -0.142373187809
    C            1.025000620591    -3.639963960924    -1.323760561103
    H           -0.993516665386    -3.112687740279    -1.824017153448
    H            0.197038841419    -2.004400581452    -2.436212032452
    H            0.773200522534    -4.276585881608    -0.481952654651
    H            1.165983541600    -4.276441819217    -2.189797909129
    H            1.975899602359    -3.165259585646    -1.104531714225

gradient() will perform analytic gradient computation.

*** tstart() called on cx1-27-1-3
*** at Sat Sep 10 18:07:55 2016


         ---------------------------------------------------------
                                   SCF
            by Justin Turney, Rob Parrish, and Andy Simmonett
                              RHF Reference
                        4 Threads,   2000 MiB Core
         ---------------------------------------------------------

  ==> Geometry <==

    Molecular point group: c1
    Full point group: C1

    Geometry (in Angstrom), charge = 0, multiplicity = 1:

       Center              X                  Y                   Z               Mass       
    ------------   -----------------  -----------------  -----------------  -----------------
           H          0.404525423777     3.786305760651     0.905174377561     1.007825032070
           O          1.210421906093     3.437722211585     0.572680480107    15.994914619560
           C          1.469737501773     2.182198926883     1.145993315511    12.000000000000
           C          0.567121481316     1.075061840740     0.620707291478    12.000000000000
           H          2.498114079936     1.949838182734     0.903025781067     1.007825032070
           H          1.402838578360     2.242446713136     2.230736880314     1.007825032070
           C         -0.892098311237     1.280230449915     1.009624098132    12.000000000000
           H          0.680335288134     1.027339650163    -0.454683346600     1.007825032070
           H          0.941923577550     0.174299821622     1.034191071853     1.007825032070
           C         -1.878253575271     0.217976994977     0.490557243991    12.000000000000
           H         -1.233516861680     2.239416310842     0.635113141516     1.007825032070
           H         -0.930933975114     1.335552829689     2.094085719512     1.007825032070
           C         -1.414325462151    -0.688141982313    -0.651815293067    12.000000000000
           H         -2.219698652907    -0.368050576713     1.338591811209     1.007825032070
           H         -2.761349257081     0.728366583089     0.120640852322     1.007825032070
           C         -0.301556506480    -1.685120168422    -0.371544423217    12.000000000000
           H         -2.288546825169    -1.243567559038    -0.979338811573     1.007825032070
           H         -1.112128933957    -0.078601006360    -1.497994761156     1.007825032070
           C         -0.067245292938    -2.604322475555    -1.569239416193    12.000000000000
           H         -0.573763275598    -2.287811296579     0.493707369656     1.007825032070
           H          0.623779336366    -1.244176612240    -0.142373187809     1.007825032070
           C          1.025000620591    -3.639963960924    -1.323760561103    12.000000000000
           H         -0.993516665386    -3.112687740279    -1.824017153448     1.007825032070
           H          0.197038841419    -2.004400581452    -2.436212032452     1.007825032070
           H          0.773200522534    -4.276585881608    -0.481952654651     1.007825032070
           H          1.165983541600    -4.276441819217    -2.189797909129     1.007825032070
           H          1.975899602359    -3.165259585646    -1.104531714225     1.007825032070

  Running in c1 symmetry.

  Rotational constants: A =      0.08034  B =      0.02109  C =      0.01791 [cm^-1]
  Rotational constants: A =   2408.46434  B =    632.23730  C =    536.87226 [MHz]
  Nuclear repulsion =  475.567540476015438

  Charge       = 0
  Multiplicity = 1
  Electrons    = 74
  Nalpha       = 37
  Nbeta        = 37

  ==> Algorithm <==

  SCF Algorithm Type is DF.
  DIIS enabled.
  MOM disabled.
  Fractional occupation disabled.
  Guess Type is READ.
  Energy threshold   = 1.00e-08
  Density threshold  = 1.00e-08
  Integral threshold = 0.00e+00

  ==> Primary Basis <==

  Basis Set: CC-PVTZ
    Number of shells: 198
    Number of basis function: 522
    Number of Cartesian functions: 585
    Spherical Harmonics?: true
    Max angular momentum: 3

  ==> Pre-Iterations <==

   -------------------------------------------------------
    Irrep   Nso     Nmo     Nalpha   Nbeta   Ndocc  Nsocc
   -------------------------------------------------------
     A        522     522       0       0       0       0
   -------------------------------------------------------
    Total     522     522      37      37      37       0
   -------------------------------------------------------

  ==> Integral Setup <==

  ==> DFJK: Density-Fitted J/K Matrices <==

    J tasked:                  Yes
    K tasked:                  Yes
    wK tasked:                  No
    OpenMP threads:              4
    Integrals threads:           4
    Memory (MB):              1430
    Algorithm:                Core
    Integral Cache:           NONE
    Schwarz Cutoff:          1E-12
    Fitting Condition:       1E-12

   => Auxiliary Basis Set <=

  Basis Set: 
    Number of shells: 405
    Number of basis function: 1251
    Number of Cartesian functions: 1494
    Spherical Harmonics?: true
    Max angular momentum: 4

  Minimum eigenvalue in the overlap matrix is 1.8324939520E-04.
  Using Symmetric Orthogonalization.
  SCF Guess: Reading in previously saved MOs, projecting if necessary.

  Using orbitals from previous SCF, no projection.
  Recomputing DOCC and SOCC from number of alpha and beta electrons from previous calculation.
              A 
    DOCC [    37 ]

  ==> Iterations <==

                           Total Energy        Delta E     RMS |[F,P]|

   @DF-RHF iter   0:  -388.36431651102043   -3.88364e+02   6.60037e-04 
   @DF-RHF iter   1:  -388.40474445447808   -4.04279e-02   1.42044e-04 
   @DF-RHF iter   2:  -388.40865801501218   -3.91356e-03   5.72003e-05 DIIS
   @DF-RHF iter   3:  -388.40920120689134   -5.43192e-04   2.27793e-05 DIIS
   @DF-RHF iter   4:  -388.40931805725427   -1.16850e-04   4.96585e-06 DIIS
   @DF-RHF iter   5:  -388.40932368380436   -5.62655e-06   1.84125e-06 DIIS
   @DF-RHF iter   6:  -388.40932468960978   -1.00581e-06   5.98020e-07 DIIS
   @DF-RHF iter   7:  -388.40932480969934   -1.20090e-07   1.74214e-07 DIIS
   @DF-RHF iter   8:  -388.40932481894220   -9.24285e-09   5.17291e-08 DIIS
   @DF-RHF iter   9:  -388.40932481978018   -8.37986e-10   1.42571e-08 DIIS
   @DF-RHF iter  10:  -388.40932481984191   -6.17320e-11   3.40112e-09 DIIS

  ==> Post-Iterations <==

    Orbital Energies (a.u.)
    -----------------------

    Doubly Occupied:                                                      

       1A    -20.543811     2A    -11.263188     3A    -11.216428  
       4A    -11.214090     5A    -11.212194     6A    -11.211063  
       7A    -11.207825     8A    -11.205963     9A    -11.203530  
      10A     -1.361549    11A     -1.097983    12A     -1.060604  
      13A     -1.010080    14A     -0.954364    15A     -0.889856  
      16A     -0.833766    17A     -0.794599    18A     -0.770633  
      19A     -0.697670    20A     -0.653049    21A     -0.644450  
      22A     -0.611902    23A     -0.606289    24A     -0.587286  
      25A     -0.565055    26A     -0.559137    27A     -0.553139  
      28A     -0.525069    29A     -0.512826    30A     -0.499639  
      31A     -0.481835    32A     -0.477324    33A     -0.467284  
      34A     -0.459027    35A     -0.448005    36A     -0.433682  
      37A     -0.422612  

    Virtual:                                                              

      38A      0.137530    39A      0.142269    40A      0.153674  
      41A      0.158651    42A      0.168459    43A      0.183875  
      44A      0.192247    45A      0.198955    46A      0.218601  
      47A      0.221319    48A      0.225815    49A      0.233244  
      50A      0.237930    51A      0.256733    52A      0.267608  
      53A      0.271276    54A      0.279262    55A      0.299220  
      56A      0.309397    57A      0.317051    58A      0.324103  
      59A      0.346970    60A      0.367563    61A      0.376006  
      62A      0.380595    63A      0.401722    64A      0.414622  
      65A      0.422734    66A      0.431643    67A      0.451923  
      68A      0.459339    69A      0.471524    70A      0.480836  
      71A      0.490618    72A      0.505799    73A      0.522624  
      74A      0.527459    75A      0.536417    76A      0.557996  
      77A      0.565313    78A      0.574861    79A      0.582997  
      80A      0.593719    81A      0.599294    82A      0.605541  
      83A      0.613417    84A      0.620542    85A      0.628927  
      86A      0.631258    87A      0.642671    88A      0.648410  
      89A      0.652577    90A      0.660702    91A      0.668964  
      92A      0.669302    93A      0.674954    94A      0.677900  
      95A      0.686383    96A      0.691900    97A      0.701272  
      98A      0.706054    99A      0.713918   100A      0.722159  
     101A      0.736017   102A      0.745308   103A      0.763056  
     104A      0.771957   105A      0.777572   106A      0.786832  
     107A      0.805197   108A      0.825272   109A      0.840848  
     110A      0.862346   111A      0.879800   112A      0.889536  
     113A      0.910312   114A      0.916624   115A      0.921276  
     116A      0.941945   117A      0.948084   118A      0.964985  
     119A      0.975704   120A      0.985397   121A      1.007391  
     122A      1.016145   123A      1.024813   124A      1.046528  
     125A      1.068976   126A      1.081105   127A      1.091445  
     128A      1.105886   129A      1.108445   130A      1.117921  
     131A      1.141374   132A      1.157348   133A      1.167249  
     134A      1.184867   135A      1.190949   136A      1.193458  
     137A      1.229181   138A      1.232283   139A      1.253087  
     140A      1.259997   141A      1.268807   142A      1.273287  
     143A      1.282384   144A      1.286353   145A      1.306358  
     146A      1.315456   147A      1.318613   148A      1.327292  
     149A      1.330374   150A      1.336389   151A      1.346379  
     152A      1.353380   153A      1.360481   154A      1.369816  
     155A      1.381268   156A      1.393747   157A      1.403934  
     158A      1.413263   159A      1.418483   160A      1.435258  
     161A      1.439253   162A      1.443366   163A      1.448690  
     164A      1.460524   165A      1.473422   166A      1.479137  
     167A      1.483461   168A      1.492441   169A      1.502530  
     170A      1.514391   171A      1.522454   172A      1.527018  
     173A      1.538470   174A      1.550141   175A      1.566455  
     176A      1.573523   177A      1.576246   178A      1.597563  
     179A      1.607130   180A      1.620555   181A      1.623480  
     182A      1.630994   183A      1.644045   184A      1.670762  
     185A      1.678887   186A      1.686302   187A      1.697877  
     188A      1.703592   189A      1.715253   190A      1.720577  
     191A      1.755361   192A      1.763379   193A      1.780421  
     194A      1.796878   195A      1.806152   196A      1.811343  
     197A      1.814525   198A      1.824825   199A      1.843032  
     200A      1.850925   201A      1.860449   202A      1.887489  
     203A      1.907363   204A      1.921317   205A      1.955725  
     206A      1.964614   207A      1.998551   208A      2.038655  
     209A      2.057037   210A      2.080482   211A      2.086200  
     212A      2.197650   213A      2.249701   214A      2.314754  
     215A      2.413135   216A      2.458736   217A      2.517871  
     218A      2.558840   219A      2.590382   220A      2.595009  
     221A      2.651514   222A      2.675662   223A      2.680388  
     224A      2.688081   225A      2.695554   226A      2.711098  
     227A      2.717247   228A      2.732350   229A      2.746885  
     230A      2.750462   231A      2.774813   232A      2.780277  
     233A      2.792442   234A      2.813230   235A      2.825222  
     236A      2.854836   237A      2.866908   238A      2.877487  
     239A      2.887517   240A      2.894347   241A      2.910932  
     242A      2.932779   243A      2.936481   244A      2.953776  
     245A      2.965022   246A      2.991206   247A      3.003051  
     248A      3.008574   249A      3.024833   250A      3.026993  
     251A      3.040930   252A      3.056649   253A      3.065971  
     254A      3.084141   255A      3.089412   256A      3.110953  
     257A      3.124269   258A      3.137445   259A      3.140626  
     260A      3.154431   261A      3.167363   262A      3.171836  
     263A      3.191200   264A      3.199462   265A      3.216670  
     266A      3.229919   267A      3.249609   268A      3.258374  
     269A      3.269502   270A      3.289368   271A      3.292261  
     272A      3.305538   273A      3.312763   274A      3.316667  
     275A      3.333203   276A      3.353571   277A      3.356563  
     278A      3.361564   279A      3.370639   280A      3.379006  
     281A      3.388268   282A      3.398728   283A      3.404092  
     284A      3.412848   285A      3.422681   286A      3.427312  
     287A      3.434030   288A      3.437359   289A      3.444513  
     290A      3.446762   291A      3.461558   292A      3.469944  
     293A      3.477324   294A      3.487018   295A      3.494214  
     296A      3.507028   297A      3.515207   298A      3.521305  
     299A      3.536558   300A      3.542974   301A      3.554324  
     302A      3.557815   303A      3.572311   304A      3.575602  
     305A      3.593898   306A      3.600479   307A      3.602690  
     308A      3.613466   309A      3.624860   310A      3.641210  
     311A      3.653543   312A      3.678241   313A      3.687501  
     314A      3.700638   315A      3.718348   316A      3.733997  
     317A      3.744172   318A      3.754981   319A      3.769180  
     320A      3.784699   321A      3.788473   322A      3.805174  
     323A      3.826448   324A      3.836357   325A      3.847656  
     326A      3.851755   327A      3.861226   328A      3.869669  
     329A      3.893061   330A      3.898336   331A      3.908262  
     332A      3.916016   333A      3.926138   334A      3.929293  
     335A      3.953378   336A      3.957467   337A      3.958408  
     338A      3.979028   339A      4.006304   340A      4.020015  
     341A      4.032812   342A      4.036845   343A      4.050697  
     344A      4.066701   345A      4.081420   346A      4.092881  
     347A      4.095108   348A      4.107309   349A      4.116558  
     350A      4.129760   351A      4.134958   352A      4.142489  
     353A      4.151036   354A      4.166903   355A      4.169076  
     356A      4.171486   357A      4.193446   358A      4.207179  
     359A      4.214856   360A      4.224081   361A      4.229085  
     362A      4.243046   363A      4.247268   364A      4.261840  
     365A      4.265663   366A      4.271541   367A      4.275412  
     368A      4.288652   369A      4.300413   370A      4.318151  
     371A      4.333090   372A      4.345144   373A      4.359954  
     374A      4.363245   375A      4.382979   376A      4.385466  
     377A      4.388551   378A      4.404177   379A      4.407218  
     380A      4.420263   381A      4.428940   382A      4.430793  
     383A      4.448953   384A      4.459745   385A      4.469478  
     386A      4.480367   387A      4.484962   388A      4.496179  
     389A      4.500602   390A      4.515903   391A      4.525209  
     392A      4.544926   393A      4.555333   394A      4.575470  
     395A      4.581214   396A      4.593533   397A      4.598021  
     398A      4.617929   399A      4.627813   400A      4.630690  
     401A      4.637121   402A      4.651044   403A      4.661508  
     404A      4.678336   405A      4.681991   406A      4.699639  
     407A      4.709345   408A      4.723578   409A      4.726227  
     410A      4.739985   411A      4.754300   412A      4.762579  
     413A      4.789645   414A      4.799936   415A      4.818888  
     416A      4.829679   417A      4.840075   418A      4.856989  
     419A      4.873889   420A      4.891501   421A      4.915414  
     422A      4.931265   423A      4.972810   424A      5.007374  
     425A      5.019632   426A      5.048118   427A      5.063863  
     428A      5.084785   429A      5.099570   430A      5.104732  
     431A      5.118526   432A      5.142646   433A      5.147266  
     434A      5.171185   435A      5.186921   436A      5.190588  
     437A      5.200923   438A      5.220314   439A      5.238403  
     440A      5.247769   441A      5.261098   442A      5.274523  
     443A      5.292373   444A      5.304822   445A      5.321738  
     446A      5.325192   447A      5.340491   448A      5.355735  
     449A      5.368401   450A      5.388317   451A      5.411106  
     452A      5.418351   453A      5.439993   454A      5.451526  
     455A      5.474464   456A      5.484074   457A      5.502191  
     458A      5.515069   459A      5.539690   460A      5.554877  
     461A      5.574007   462A      5.581556   463A      5.611867  
     464A      5.620184   465A      5.652292   466A      5.661443  
     467A      5.690633   468A      5.743612   469A      5.751316  
     470A      5.753724   471A      5.765984   472A      5.777174  
     473A      5.786764   474A      5.817667   475A      5.821545  
     476A      5.853467   477A      5.884652   478A      5.890031  
     479A      5.901263   480A      5.911949   481A      5.946165  
     482A      5.956864   483A      5.969511   484A      5.978148  
     485A      6.010939   486A      6.027464   487A      6.038860  
     488A      6.068514   489A      6.073016   490A      6.104713  
     491A      6.115246   492A      6.149713   493A      6.218917  
     494A      6.273112   495A      6.311642   496A      6.322273  
     497A      6.338212   498A      6.373161   499A      6.386277  
     500A      6.422989   501A      6.488547   502A      6.504415  
     503A      6.541945   504A      6.567767   505A      6.762876  
     506A      7.097228   507A      7.197440   508A      7.256607  
     509A      7.319668   510A      7.433381   511A      7.556182  
     512A      7.713185   513A      8.037869   514A     12.574277  
     515A     12.912778   516A     13.448372   517A     13.486967  
     518A     13.664764   519A     13.971860   520A     14.181164  
     521A     14.284766   522A     14.307071  

    Final Occupation by Irrep:
              A 
    DOCC [    37 ]

  Energy converged.

  @DF-RHF Final Energy:  -388.40932481984191

   => Energetics <=

    Nuclear Repulsion Energy =            475.5675404760154379
    One-Electron Energy =               -1469.4401137918998757
    Two-Electron Energy =                 605.4632484960426382
    DFT Exchange-Correlation Energy =       0.0000000000000000
    Empirical Dispersion Energy =           0.0000000000000000
    PCM Polarization Energy =               0.0000000000000000
    EFP Energy =                            0.0000000000000000
    Total Energy =                       -388.4093248198417996


  Saving occupied orbitals to File 180.

*** tstop() called on cx1-27-1-3 at Sat Sep 10 18:08:20 2016
Module time:
	user time   =      89.10 seconds =       1.49 minutes
	system time =       1.18 seconds =       0.02 minutes
	total time  =         25 seconds =       0.42 minutes
Total time:
	user time   =     287.98 seconds =       4.80 minutes
	system time =       3.76 seconds =       0.06 minutes
	total time  =         79 seconds =       1.32 minutes


Properties will be evaluated at   0.000000,   0.000000,   0.000000 Bohr

Properties computed using the SCF density matrix

  Nuclear Dipole Moment: (a.u.)
     X:    -1.3533      Y:    -8.0214      Z:    -1.2681

  Electronic Dipole Moment: (a.u.)
     X:     0.9200      Y:     7.6638      Z:     1.6425

  Dipole Moment: (a.u.)
     X:    -0.4333      Y:    -0.3575      Z:     0.3744     Total:     0.6751

  Dipole Moment: (Debye)
     X:    -1.1013      Y:    -0.9088      Z:     0.9516     Total:     1.7159


*** tstart() called on cx1-27-1-3
*** at Sat Sep 10 18:08:20 2016


         ------------------------------------------------------------
                                   SCF GRAD                          
                          Rob Parrish, Justin Turney,                
                       Andy Simmonett, and Alex Sokolov              
         ------------------------------------------------------------

  ==> Geometry <==

    Molecular point group: c1
    Full point group: C1

    Geometry (in Angstrom), charge = 0, multiplicity = 1:

       Center              X                  Y                   Z               Mass       
    ------------   -----------------  -----------------  -----------------  -----------------
           H          0.404525423777     3.786305760651     0.905174377561     1.007825032070
           O          1.210421906093     3.437722211585     0.572680480107    15.994914619560
           C          1.469737501773     2.182198926883     1.145993315511    12.000000000000
           C          0.567121481316     1.075061840740     0.620707291478    12.000000000000
           H          2.498114079936     1.949838182734     0.903025781067     1.007825032070
[...]
	    3 R(3,4)          =      1.523293    -0.000226    -0.000045     1.523248
	    4 R(3,5)          =      1.081711    -0.000132    -0.000023     1.081688
	    5 R(3,6)          =      1.088206    -0.000085    -0.000011     1.088196
	    6 R(4,7)          =      1.529094    -0.000071     0.000000     1.529094
	    7 R(4,8)          =      1.083310    -0.000155    -0.000014     1.083296
	    8 R(4,9)          =      1.085087    -0.000276    -0.000038     1.085049
	    9 R(7,10)         =      1.553318     0.000110     0.000024     1.553341
	   10 R(7,11)         =      1.085458    -0.000040     0.000004     1.085462
	   11 R(7,12)         =      1.085835    -0.000166    -0.000031     1.085804
	   12 R(10,13)        =      1.534162    -0.000346    -0.000055     1.534107
	   13 R(10,14)        =      1.085760    -0.000079    -0.000005     1.085755
	   14 R(10,15)        =      1.084819    -0.000182    -0.000026     1.084794
	   15 R(13,16)        =      1.528405    -0.000150    -0.000008     1.528397
	   16 R(13,17)        =      1.086312    -0.000258    -0.000031     1.086281
	   17 R(13,18)        =      1.085379    -0.000028     0.000010     1.085388
	   18 R(16,19)        =      1.526496     0.000005     0.000018     1.526515
	   19 R(16,20)        =      1.087664    -0.000085    -0.000016     1.087648
	   20 R(16,21)        =      1.083921    -0.000543    -0.000086     1.083835
	   21 R(19,22)        =      1.525103     0.000070     0.000025     1.525127
	   22 R(19,23)        =      1.086660    -0.000133    -0.000011     1.086650
	   23 R(19,24)        =      1.086682    -0.000177    -0.000016     1.086666
	   24 R(22,25)        =      1.085055    -0.000217    -0.000023     1.085033
	   25 R(22,26)        =      1.084029    -0.000215    -0.000028     1.084000
	   26 R(22,27)        =      1.085072    -0.000263    -0.000034     1.085038
	   27 B(1,2,3)        =    110.350272     0.000001     0.003183   110.353454
	   28 B(2,3,4)        =    113.662366     0.000002     0.004221   113.666586
	   29 B(2,3,5)        =    105.801515    -0.000001    -0.006569   105.794945
	   30 B(2,3,6)        =    110.436624    -0.000001    -0.004337   110.432286
	   31 B(3,4,7)        =    113.055324    -0.000000    -0.003677   113.051648
	   32 B(3,4,8)        =    108.071376    -0.000001    -0.004486   108.066890
	   33 B(3,4,9)        =    107.222035    -0.000001    -0.005195   107.216839
	   34 B(4,3,5)        =    109.304906     0.000001     0.002996   109.307903
	   35 B(4,3,6)        =    110.144629     0.000000     0.002774   110.147403
	   36 B(4,7,10)       =    118.740872     0.000000     0.006813   118.747685
	   37 B(4,7,11)       =    107.243171     0.000000     0.006316   107.249487
	   38 B(4,7,12)       =    108.571082    -0.000000    -0.000131   108.570951
	   39 B(5,3,6)        =    107.202769     0.000000     0.000474   107.203243
	   40 B(7,4,8)        =    110.674838     0.000001     0.008245   110.683083
	   41 B(7,4,9)        =    110.363841     0.000000    -0.002156   110.361685
	   42 B(7,10,13)      =    119.497111     0.000000     0.010106   119.507218
	   43 B(7,10,14)      =    109.232355     0.000001     0.007616   109.239971
	   44 B(7,10,15)      =    106.469631     0.000000    -0.003583   106.466048
	   45 B(8,4,9)        =    107.217245     0.000001     0.007433   107.224679
	   46 B(10,7,11)      =    107.115078    -0.000000     0.003150   107.118228
	   47 B(10,7,12)      =    108.591355     0.000000    -0.011103   108.580251
	   48 B(10,13,16)     =    115.553709     0.000003     0.022593   115.576303
	   49 B(10,13,17)     =    107.378142    -0.000001    -0.019521   107.358620
	   50 B(10,13,18)     =    110.270860    -0.000001    -0.000808   110.270052
	   51 B(11,7,12)      =    105.855083    -0.000000    -0.006215   105.848869
	   52 B(13,10,14)     =    109.177009     0.000001     0.006074   109.183083
	   53 B(13,10,15)     =    107.152994    -0.000001    -0.019585   107.133409
	   54 B(13,16,19)     =    112.967140     0.000000    -0.005223   112.961916
	   55 B(13,16,20)     =    108.748171     0.000001     0.006665   108.754837
	   56 B(13,16,21)     =    110.644509     0.000001     0.012314   110.656822
	   57 B(14,10,15)     =    104.201308    -0.000000    -0.003586   104.197721
	   58 B(16,13,17)     =    107.600315    -0.000000    -0.003337   107.596979
	   59 B(16,13,18)     =    109.901732    -0.000001    -0.001123   109.900609
	   60 B(16,19,22)     =    113.156839     0.000002     0.007655   113.164494
	   61 B(16,19,23)     =    109.308159    -0.000001    -0.000195   109.307964
	   62 B(16,19,24)     =    109.272192    -0.000001    -0.004030   109.268162
	   63 B(17,13,18)     =    105.597764     0.000000    -0.000326   105.597438
	   64 B(19,16,20)     =    109.152658    -0.000002    -0.015869   109.136789
	   65 B(19,16,21)     =    108.920730    -0.000001    -0.003177   108.917553
	   66 B(19,22,25)     =    111.146955    -0.000000    -0.003112   111.143843
	   67 B(19,22,26)     =    111.262023     0.000002     0.008255   111.270278
	   68 B(19,22,27)     =    111.160594    -0.000000    -0.001434   111.159160
	   69 B(20,16,21)     =    106.173248     0.000000     0.005580   106.178829
	   70 B(22,19,23)     =    109.329767    -0.000001     0.000330   109.330097
	   71 B(22,19,24)     =    109.316102    -0.000001    -0.003151   109.312952
	   72 B(23,19,24)     =    106.222403     0.000000    -0.001161   106.221242
	   73 B(25,22,26)     =    107.733647    -0.000001    -0.001677   107.731971
	   74 B(25,22,27)     =    107.648465     0.000000    -0.001739   107.646725
	   75 B(26,22,27)     =    107.715510    -0.000001    -0.000534   107.714976
	   76 D(1,2,3,4)      =     74.414345    -0.000000    -0.014507    74.399838
	   77 D(1,2,3,5)      =   -165.643672     0.000000    -0.012753  -165.656425
	   78 D(1,2,3,6)      =    -49.955835    -0.000000    -0.017945   -49.973780
	   79 D(2,3,4,7)      =    -67.019153    -0.000000     0.006371   -67.012782
	   80 D(2,3,4,8)      =     55.834809     0.000000     0.011212    55.846021
	   81 D(2,3,4,9)      =    171.119284     0.000000     0.014996   171.134280
	   82 D(3,4,7,10)     =    176.128219    -0.000000    -0.014668   176.113552
	   83 D(3,4,7,11)     =     54.685112    -0.000000    -0.028907    54.656205
	   84 D(3,4,7,12)     =    -59.272149    -0.000000    -0.024810   -59.296959
	   85 D(4,7,10,13)    =    -16.660535    -0.000000    -0.024711   -16.685246
	   86 *D(4,7,10,14)   =    110.000008    -0.000000     0.000000   110.000008
	   87 D(4,7,10,15)    =   -138.032134    -0.000000    -0.002416  -138.034550
	   88 D(5,3,4,7)      =    175.043492    -0.000000     0.009951   175.053442
	   89 D(5,3,4,8)      =    -62.102547     0.000000     0.014792   -62.087755
	   90 D(5,3,4,9)      =     53.181929     0.000000     0.018576    53.200504
	   91 D(6,3,4,7)      =     57.508407    -0.000000     0.005961    57.514368
	   92 D(6,3,4,8)      =   -179.637631     0.000000     0.010802  -179.626829
	   93 D(6,3,4,9)      =    -64.353156     0.000000     0.014586   -64.338570
	   94 D(7,10,13,16)   =     83.665316     0.000000    -0.017768    83.647548
	   95 D(7,10,13,17)   =   -156.280028     0.000000    -0.021940  -156.301968
	   96 D(7,10,13,18)   =    -41.702032    -0.000000    -0.033459   -41.735491
	   97 D(8,4,7,10)     =     54.732375     0.000000    -0.012294    54.720081
	   98 D(8,4,7,11)     =    -66.710733     0.000000    -0.026533   -66.737266
	   99 D(8,4,7,12)     =    179.332006     0.000000    -0.022436   179.309570
	  100 D(9,4,7,10)     =    -63.791907    -0.000000    -0.025322   -63.817228
	  101 D(9,4,7,11)     =    174.764986    -0.000000    -0.039561   174.725425
	  102 D(9,4,7,12)     =     60.807725    -0.000000    -0.035464    60.772261
	  103 D(10,13,16,19)  =    177.906272    -0.000000    -0.055004   177.851268
	  104 D(10,13,16,20)  =     56.564328     0.000000    -0.036135    56.528193
	  105 D(10,13,16,21)  =    -59.680966    -0.000000    -0.053746   -59.734712
	  106 D(11,7,10,13)   =    104.847256    -0.000000    -0.008893   104.838364
	  107 D(11,7,10,14)   =   -128.492200     0.000000     0.015818  -128.476382
	  108 D(11,7,10,15)   =    -16.524343     0.000000     0.013402   -16.510941
	  109 D(12,7,10,13)   =   -141.250285    -0.000000    -0.019917  -141.270202
	  110 D(12,7,10,14)   =    -14.589742    -0.000000     0.004794   -14.584948
	  111 D(12,7,10,15)   =     97.378115    -0.000000     0.002378    97.380493
	  112 D(13,16,19,22)  =   -178.964642     0.000000     0.027485  -178.937156
	  113 D(13,16,19,23)  =    -56.870226     0.000000     0.032987   -56.837239
	  114 D(13,16,19,24)  =     58.984521     0.000000     0.029236    59.013757
	  115 D(14,10,13,16)  =    -43.021116    -0.000000    -0.043186   -43.064302
	  116 D(14,10,13,17)  =     77.033540    -0.000000    -0.047358    76.986182
	  117 D(14,10,13,18)  =   -168.388464    -0.000000    -0.058877  -168.447342
	  118 D(15,10,13,16)  =   -155.303989    -0.000000    -0.032077  -155.336066
	  119 D(15,10,13,17)  =    -35.249334    -0.000000    -0.036248   -35.285582
	  120 D(15,10,13,18)  =     79.328663    -0.000000    -0.047768    79.280895
	  121 D(16,19,22,25)  =     59.906099     0.000000     0.012976    59.919075
	  122 D(16,19,22,26)  =    179.969275     0.000000     0.014305   179.983580
	  123 D(16,19,22,27)  =    -59.981330     0.000000     0.018214   -59.963117
	  124 D(17,13,16,19)  =     57.972897    -0.000000    -0.042043    57.930855
	  125 D(17,13,16,20)  =    -63.369046     0.000000    -0.023174   -63.392220
	  126 D(17,13,16,21)  =   -179.614340    -0.000000    -0.040785  -179.655125
	  127 D(18,13,16,19)  =    -56.536877    -0.000000    -0.039271   -56.576149
	  128 D(18,13,16,20)  =   -177.878821     0.000000    -0.020402  -177.899223
	  129 D(18,13,16,21)  =     65.875885    -0.000000    -0.038014    65.837871
	  130 D(20,16,19,22)  =    -57.851777     0.000000     0.021328   -57.830449
	  131 D(20,16,19,23)  =     64.242638     0.000000     0.026830    64.269468
	  132 D(20,16,19,24)  =   -179.902614     0.000000     0.023079  -179.879535
	  133 D(21,16,19,22)  =     57.663871    -0.000000     0.017575    57.681446
	  134 D(21,16,19,23)  =    179.758286    -0.000000     0.023077   179.781364
	  135 D(21,16,19,24)  =    -64.386966    -0.000000     0.019326   -64.367640
	  136 D(23,19,22,25)  =    -62.176235    -0.000000     0.007765   -62.168470
	  137 D(23,19,22,26)  =     57.886941    -0.000000     0.009094    57.896035
	  138 D(23,19,22,27)  =    177.936336    -0.000000     0.013003   177.949338
	  139 D(24,19,22,25)  =   -178.067627     0.000000     0.010736  -178.056891
	  140 D(24,19,22,26)  =    -58.004451     0.000000     0.012065   -57.992386
	  141 D(24,19,22,27)  =     62.044944     0.000000     0.015974    62.060918
	  142 R(4,16)         =      3.454655     0.000267     0.000303     3.454958
	 ---------------------------------------------------------------------------
	Successfully symmetrized geometry.

  ==> Convergence Check <==

  Measures of convergence in internal coordinates in au.
  Criteria marked as inactive (o), active & met (*), and active & unmet ( ).
  ---------------------------------------------------------------------------------------------
   Step     Total Energy     Delta E     MAX Force     RMS Force      MAX Disp      RMS Disp   
  ---------------------------------------------------------------------------------------------
    Convergence Criteria    1.00e-06 *    3.00e-04 *             o    1.20e-03 *             o
  ---------------------------------------------------------------------------------------------
     10    -388.41594351   -6.26e-07 *    6.59e-05 *    1.41e-05 o    1.03e-03 *    3.28e-04 o  ~
  ---------------------------------------------------------------------------------------------


  **** Optimization is complete! (in 10 steps) ****

  ==> Optimization Summary <==

  Measures of convergence in internal coordinates in au.
  --------------------------------------------------------------------------------------------------------------- ~
   Step         Total Energy             Delta E       MAX Force       RMS Force        MAX Disp        RMS Disp  ~
  --------------------------------------------------------------------------------------------------------------- ~
      1    -388.389166154718   -388.389166154718      0.06383925      0.00780004      0.40216665      0.04198339  ~
      2    -388.409324819842     -0.020158665124      0.01776080      0.00263884      0.25324265      0.03330182  ~
      3    -388.413875890826     -0.004551070984      0.00774564      0.00128217      0.22208041      0.03521800  ~
      4    -388.415114060373     -0.001238169548      0.00695572      0.00102729      0.14893998      0.03631045  ~
      5    -388.415762515436     -0.000648455063      0.00200909      0.00042887      0.12872858      0.03078012  ~
      6    -388.415808379785     -0.000045864349      0.00184188      0.00043142      0.03673983      0.01425724  ~
      7    -388.415932778828     -0.000124399043      0.00067758      0.00012991      0.01687174      0.00511159  ~
      8    -388.415941331135     -0.000008552307      0.00019319      0.00004694      0.00738483      0.00262284  ~
      9    -388.415942887670     -0.000001556535      0.00012225      0.00003140      0.00241712      0.00074115  ~
     10    -388.415943513918     -0.000000626248      0.00006589      0.00001409      0.00102760      0.00032784  ~
  --------------------------------------------------------------------------------------------------------------- ~

	Writing optimization data to binary file.
	Final energy is   -388.4159435139184
	Final (previous) structure:
	Cartesian Geometry (in Angstrom)
	    H     0.3081569760   3.9414506647   0.8895345975
	    O     1.1065231238   3.6624596600   0.4820984793
	    C     1.5346574218   2.4441934395   1.0309900081
	    C     0.7167817149   1.2447611862   0.5696186324
	    H     2.5607891725   2.3215769747   0.7114308769
	    H     1.5403089344   2.4982349543   2.1178389306
	    C    -0.7244666628   1.2707814283   1.0797694795
	    H     0.7388456738   1.2194393948  -0.5131710492
	    H     1.2260902547   0.3538467987   0.9221668669
	    C    -1.7020040538   0.1572607887   0.6136277988
	    H    -1.1552318165   2.2205513394   0.7787762709
	    H    -0.7068586783   1.2837742820   2.1653839160
	    C    -1.3459149452  -0.6968265021  -0.6100501490
	    H    -1.9258267527  -0.4959288397   1.4515543518
	    H    -2.6458003784   0.6468923758   0.3983548603
	    C    -0.4256451526  -1.8865165477  -0.3384570326
	    H    -2.2754278664  -1.0863872706  -1.0154172790
	    H    -0.9241406135  -0.0746494360  -1.3930246491
	    C    -0.1509658110  -2.7238230703  -1.5849159663
	    H    -0.8835143549  -2.5164727324   0.4208343997
	    H     0.5186966093  -1.5524513228   0.0756735763
	    C     0.7467037712  -3.9265481011  -1.3136586696
	    H    -1.0938788567  -3.0657760021  -2.0030235141
	    H     0.3081686506  -2.0966129649  -2.3443113410
	    H     0.2994071139  -4.5918531807  -0.5824679625
	    H     0.9210341868  -4.4987966492  -2.2176820805
	    H     1.7122405789  -3.6156824068  -0.9283235123
	Saving final (previous) structure.
			--------------------------
			 OPTKING Finished Execution 
			--------------------------

    Final optimized geometry and variables:
    Molecular point group: c1
    Full point group: C1

    Geometry (in Angstrom), charge = 0, multiplicity = 1:

    H            0.308156976035     3.941450664668     0.889534597459
    O            1.106523123789     3.662459660015     0.482098479292
    C            1.534657421783     2.444193439490     1.030990008107
    C            0.716781714928     1.244761186190     0.569618632378
    H            2.560789172472     2.321576974660     0.711430876861
    H            1.540308934404     2.498234954316     2.117838930555
    C           -0.724466662812     1.270781428266     1.079769479471
    H            0.738845673824     1.219439394833    -0.513171049226
    H            1.226090254718     0.353846798741     0.922166866927
    C           -1.702004053847     0.157260788717     0.613627798752
    H           -1.155231816465     2.220551339413     0.778776270903
    H           -0.706858678330     1.283774282007     2.165383916014
    C           -1.345914945249    -0.696826502141    -0.610050148975
    H           -1.925826752704    -0.495928839711     1.451554351842
    H           -2.645800378419     0.646892375790     0.398354860285
    C           -0.425645152624    -1.886516547657    -0.338457032641
    H           -2.275427866371    -1.086387270558    -1.015417278997
    H           -0.924140613534    -0.074649435996    -1.393024649073
    C           -0.150965811009    -2.723823070267    -1.584915966294
    H           -0.883514354904    -2.516472732423     0.420834399700
    H            0.518696609288    -1.552451322800     0.075673576279
    C            0.746703771234    -3.926548101115    -1.313658669562
    H           -1.093878856667    -3.065776002093    -2.003023514115
    H            0.308168650591    -2.096612964878    -2.344311341049
    H            0.299407113910    -4.591853180721    -0.582467962467
    H            0.921034186824    -4.498796649169    -2.217682080538
    H            1.712240578890    -3.615682406806    -0.928323512317

	Cleaning optimization helper files.


Properties will be evaluated at   0.000000,   0.000000,   0.000000 Bohr

Properties computed using the  density matrix

  Nuclear Dipole Moment: (a.u.)
     X:    -1.3793      Y:    -8.5217      Z:    -0.9969

  Electronic Dipole Moment: (a.u.)
     X:     1.0060      Y:     8.1463      Z:     1.4011

  Dipole Moment: (a.u.)
     X:    -0.3733      Y:    -0.3753      Z:     0.4042     Total:     0.6660

  Dipole Moment: (Debye)
     X:    -0.9488      Y:    -0.9540      Z:     1.0274     Total:     1.6929

  Quadrupole Moment: (Debye Ang)
    XX:   -60.5600     YY:   -66.5401     ZZ:   -58.8974
    XY:    -4.8113     XZ:     0.2977     YZ:     3.3071

  Traceless Quadrupole Moment: (Debye Ang)
    XX:     1.4392     YY:    -4.5409     ZZ:     3.1018
    XY:    -4.8113     XZ:     0.2977     YZ:     3.3071

  Mulliken Charges: (a.u.)
   Center  Symbol    Alpha    Beta     Spin     Total
       1     H     0.39246  0.39246  0.00000  0.21508
       2     O     4.20554  4.20554  0.00000 -0.41109
       3     C     2.97823  2.97823  0.00000  0.04354
       4     C     3.10088  3.10088  0.00000 -0.20175
       5     H     0.44771  0.44771  0.00000  0.10458
       6     H     0.46899  0.46899  0.00000  0.06203
       7     C     3.10043  3.10043  0.00000 -0.20085
       8     H     0.44739  0.44739  0.00000  0.10522
       9     H     0.45483  0.45483  0.00000  0.09033
      10     C     3.10506  3.10506  0.00000 -0.21012
      11     H     0.45813  0.45813  0.00000  0.08374
      12     H     0.44929  0.44929  0.00000  0.10143
      13     C     3.10918  3.10918  0.00000 -0.21836
      14     H     0.45153  0.45153  0.00000  0.09693
      15     H     0.44543  0.44543  0.00000  0.10914
      16     C     3.08623  3.08623  0.00000 -0.17246
      17     H     0.44364  0.44364  0.00000  0.11273
      18     H     0.44805  0.44805  0.00000  0.10390
      19     C     3.08535  3.08535  0.00000 -0.17070
      20     H     0.45413  0.45413  0.00000  0.09174
      21     H     0.45063  0.45063  0.00000  0.09873
      22     C     3.14996  3.14996  0.00000 -0.29992
      23     H     0.45388  0.45388  0.00000  0.09224
      24     H     0.45418  0.45418  0.00000  0.09164
      25     H     0.45534  0.45534  0.00000  0.08931
      26     H     0.44806  0.44806  0.00000  0.10389
      27     H     0.45547  0.45547  0.00000  0.08906

   Total alpha = 37.00000, Total beta = 37.00000, Total charge = -0.00000


*** Psi4 exiting successfully. Buy a developer a beer!
