    -----------------------------------------------------------------------
          Psi4: An Open-Source Ab Initio Electronic Structure Package
                              Psi4 (no tag) Driver

                          Git: Rev {detached?}  

    J. M. Turney, A. C. Simmonett, R. M. Parrish, E. G. Hohenstein,
    F. A. Evangelista, J. T. Fermann, B. J. Mintz, L. A. Burns, J. J. Wilke,
    M. L. Abrams, N. J. Russ, M. L. Leininger, C. L. Janssen, E. T. Seidl,
    W. D. Allen, H. F. Schaefer, R. A. King, E. F. Valeev, C. D. Sherrill,
    and T. D. Crawford, WIREs Comput. Mol. Sci. 2, 556-565 (2012)
    (doi: 10.1002/wcms.93)

                         Additional Contributions by
    A. E. DePrince, M. Saitow, U. Bozkaya, A. Yu. Sokolov
    -----------------------------------------------------------------------


    Psi4 started on: Fri Sep  9 23:47:55 2016

    Process ID:  32995
    PSI4DATADIR: /export131/home/mjharvey/miniconda3/share
    Memory level set to 256.000 MB

  ==> Input File <==

--------------------------------------------------------------------------
set {
	reference rhf
	basis cc-pvtz
}


set_num_threads( 4 )
memory 2 gb

molecule MOL {
0 1

H	 -3.817401	 -2.300013	 0.170481
C	 -2.747216	 -2.217359	 0.177405
C	 -1.969878	 -3.339686	 0.400492
C	 -2.149857	 -0.989627	 -0.036648
H	 -2.434237	 -4.292310	 0.566562
C	 -0.594753	 -3.232685	 0.409241
H	 -2.753576	 -0.119858	 -0.209560
C	 -0.773050	 -0.880868	 -0.028188
H	 0.022144	 -4.091296	 0.580368
C	 0.008743	 -2.003145	 0.194981
H	 -0.307269	 0.068453	 -0.193620
C	 1.498234	 -1.940163	 0.214221
O	 1.968286	 -0.725612	 -0.000027
O	 2.195619	 -2.880137	 0.402054
C	 3.373556	 -0.568203	 0.000011
H	 3.695416	 -0.031588	 -0.879663
H	 3.782700	 -1.565294	 -0.000152
H	 3.695405	 -0.031851	 0.879862

	symmetry c1
}
set optking {
	frozen_dihedral = ("
		12 13 15 16
	")
}

ee = optimize('scf')
oeprop('DIPOLE', 'QUADRUPOLE', 'MULLIKEN_CHARGES')
f=open( 'psi4out.xyz', 'w' )
f.write( "18  " )
f.write( str(ee) + "\n" )
f.write( MOL.save_string_xyz() )
f.close()
--------------------------------------------------------------------------

  Memory set to   2.000 GiB by Python script.
gradient() will perform analytic gradient computation.

*** tstart() called on cx1-27-1-2
*** at Fri Sep  9 23:47:55 2016


         ---------------------------------------------------------
                                   SCF
            by Justin Turney, Rob Parrish, and Andy Simmonett
                              RHF Reference
                        4 Threads,   2000 MiB Core
         ---------------------------------------------------------

  ==> Geometry <==

    Molecular point group: c1
    Full point group: C1

    Geometry (in Angstrom), charge = 0, multiplicity = 1:

       Center              X                  Y                   Z               Mass       
    ------------   -----------------  -----------------  -----------------  -----------------
           H         -4.025031036621    -0.446352730026    -0.000997009477     1.007825032070
           C         -2.954846036621    -0.363698730026     0.005926990523    12.000000000000
           C         -2.177508036621    -1.486025730026     0.229013990523    12.000000000000
           C         -2.357487036621     0.864033269974    -0.208126009477    12.000000000000
           H         -2.641867036621    -2.438649730026     0.395083990523     1.007825032070
           C         -0.802383036621    -1.379024730026     0.237762990523    12.000000000000
           H         -2.961206036621     1.733802269974    -0.381038009477     1.007825032070
           C         -0.980680036621     0.972792269974    -0.199666009477    12.000000000000
           H         -0.185486036621    -2.237635730026     0.408889990523     1.007825032070
           C         -0.198887036621    -0.149484730026     0.023502990523    12.000000000000
           H         -0.514899036621     1.922113269974    -0.365098009477     1.007825032070
           C          1.290603963379    -0.086502730026     0.042742990523    12.000000000000
           O          1.760655963379     1.128048269974    -0.171505009477    15.994914619560
           O          1.987988963379    -1.026476730026     0.230575990523    15.994914619560
           C          3.165925963379     1.285457269974    -0.171467009477    12.000000000000
           H          3.487785963379     1.822072269974    -1.051141009477     1.007825032070
           H          3.575069963379     0.288366269974    -0.171630009477     1.007825032070
           H          3.487774963379     1.821809269974     0.708383990523     1.007825032070

  Running in c1 symmetry.

  Rotational constants: A =      0.12051  B =      0.02846  C =      0.02312 [cm^-1]
  Rotational constants: A =   3612.65401  B =    853.12497  C =    693.10188 [MHz]
  Nuclear repulsion =  494.302672744415588

  Charge       = 0
  Multiplicity = 1
  Electrons    = 72
  Nalpha       = 36
  Nbeta        = 36

  ==> Algorithm <==

  SCF Algorithm Type is DF.
  DIIS enabled.
  MOM disabled.
  Fractional occupation disabled.
  Guess Type is CORE.
  Energy threshold   = 1.00e-08
  Density threshold  = 1.00e-08
  Integral threshold = 0.00e+00

  ==> Primary Basis <==

  Basis Set: CC-PVTZ
    Number of shells: 148
    Number of basis function: 412
    Number of Cartesian functions: 470
    Spherical Harmonics?: true
    Max angular momentum: 3

  ==> Pre-Iterations <==

   -------------------------------------------------------
    Irrep   Nso     Nmo     Nalpha   Nbeta   Ndocc  Nsocc
   -------------------------------------------------------
     A        412     412       0       0       0       0
   -------------------------------------------------------
    Total     412     412      36      36      36       0
   -------------------------------------------------------

 OEINTS: Overlap, kinetic, potential, dipole, and quadrupole integrals
         stored in file 35.

  ==> Integral Setup <==

  ==> DFJK: Density-Fitted J/K Matrices <==

    J tasked:                  Yes
    K tasked:                  Yes
    wK tasked:                  No
    OpenMP threads:              4
    Integrals threads:           4
    Memory (MB):              1430
    Algorithm:                Core
    Integral Cache:           NONE
    Schwarz Cutoff:          1E-12
    Fitting Condition:       1E-12

   => Auxiliary Basis Set <=

  Basis Set: 
    Number of shells: 330
    Number of basis function: 1030
    Number of Cartesian functions: 1240
    Spherical Harmonics?: true
    Max angular momentum: 4

  Minimum eigenvalue in the overlap matrix is 3.1232370366E-05.
  Using Symmetric Orthogonalization.
  SCF Guess: Core (One-Electron) Hamiltonian.

  ==> Iterations <==

                           Total Energy        Delta E     RMS |[F,P]|

   @DF-RHF iter   1:  -316.31445558249396   -3.16314e+02   4.18766e-02 
   @DF-RHF iter   2:  -280.15990819812276    3.61545e+01   2.98823e-02 DIIS
   @DF-RHF iter   3:  -345.08180776268995   -6.49219e+01   2.75461e-02 DIIS
   @DF-RHF iter   4:  -355.94592395734747   -1.08641e+01   2.64806e-02 DIIS
   @DF-RHF iter   5:  -359.01016310093070   -3.06424e+00   2.21441e-02 DIIS
   @DF-RHF iter   6:  -442.24791086192721   -8.32377e+01   8.14983e-03 DIIS
   @DF-RHF iter   7:  -398.54669075103476    4.37012e+01   1.85589e-02 DIIS
   @DF-RHF iter   8:  -449.74679762451177   -5.12001e+01   7.48564e-03 DIIS
   @DF-RHF iter   9:  -457.35614258323830   -7.60934e+00   1.22727e-03 DIIS
   @DF-RHF iter  10:  -457.49034398050566   -1.34201e-01   3.44730e-04 DIIS
   @DF-RHF iter  11:  -457.50359275998989   -1.32488e-02   1.37442e-04 DIIS
   @DF-RHF iter  12:  -457.50564084845070   -2.04809e-03   6.17654e-05 DIIS
   @DF-RHF iter  13:  -457.50608957029584   -4.48722e-04   2.66572e-05 DIIS
   @DF-RHF iter  14:  -457.50618126274099   -9.16924e-05   1.09931e-05 DIIS
   @DF-RHF iter  15:  -457.50619624449968   -1.49818e-05   3.11553e-06 DIIS
   @DF-RHF iter  16:  -457.50619739181428   -1.14731e-06   1.16003e-06 DIIS
   @DF-RHF iter  17:  -457.50619756258101   -1.70767e-07   3.50140e-07 DIIS
   @DF-RHF iter  18:  -457.50619758209012   -1.95091e-08   1.24539e-07 DIIS
   @DF-RHF iter  19:  -457.50619758551619   -3.42607e-09   6.27298e-08 DIIS
   @DF-RHF iter  20:  -457.50619758683371   -1.31752e-09   2.93839e-08 DIIS
   @DF-RHF iter  21:  -457.50619758727402   -4.40309e-10   1.24457e-08 DIIS
   @DF-RHF iter  22:  -457.50619758733905   -6.50289e-11   4.13914e-09 DIIS

  ==> Post-Iterations <==

    Orbital Energies (a.u.)
    -----------------------

    Doubly Occupied:                                                      

       1A    -20.600150     2A    -20.534210     3A    -11.373613  
       4A    -11.275428     5A    -11.245602     6A    -11.244051  
       7A    -11.243190     8A    -11.240706     9A    -11.236409  
      10A    -11.235706    11A     -1.477588    12A     -1.368944  
      13A     -1.171350    14A     -1.052352    15A     -1.029528  
      16A     -0.978570    17A     -0.863056    18A     -0.838949  
      19A     -0.780454    20A     -0.746960    21A     -0.689966  
      22A     -0.678997    23A     -0.677858    24A     -0.635991  
      25A     -0.630285    26A     -0.601708    27A     -0.588957  
      28A     -0.569865    29A     -0.522505    30A     -0.519004  
      31A     -0.510728    32A     -0.501597    33A     -0.461524  
      34A     -0.450991    35A     -0.350983    36A     -0.346696  

    Virtual:                                                              

      37A      0.089565    38A      0.124103    39A      0.143839  
      40A      0.152337    41A      0.170532    42A      0.185392  
      43A      0.209311    44A      0.212414    45A      0.220276  
      46A      0.240764    47A      0.244916    48A      0.265871  
      49A      0.336428    50A      0.338796    51A      0.353732  
      52A      0.360022    53A      0.380369    54A      0.387733  
      55A      0.391626    56A      0.407255    57A      0.424998  
      58A      0.428926    59A      0.438896    60A      0.464956  
      61A      0.472082    62A      0.474218    63A      0.502108  
      64A      0.510928    65A      0.524722    66A      0.554062  
      67A      0.556661    68A      0.565537    69A      0.571233  
      70A      0.580758    71A      0.581427    72A      0.591012  
      73A      0.598335    74A      0.602787    75A      0.610255  
      76A      0.621844    77A      0.625847    78A      0.639303  
      79A      0.643399    80A      0.653366    81A      0.656667  
      82A      0.677981    83A      0.683477    84A      0.712576  
      85A      0.714890    86A      0.730292    87A      0.736723  
      88A      0.738980    89A      0.764633    90A      0.779772  
      91A      0.791298    92A      0.800024    93A      0.849043  
      94A      0.852350    95A      0.858432    96A      0.871553  
      97A      0.908088    98A      0.912677    99A      0.931139  
     100A      0.935836   101A      0.951011   102A      0.956137  
     103A      0.964988   104A      1.002295   105A      1.005986  
     106A      1.009773   107A      1.024933   108A      1.037217  
     109A      1.044810   110A      1.060225   111A      1.074594  
     112A      1.091368   113A      1.108975   114A      1.114974  
     115A      1.122850   116A      1.158361   117A      1.161254  
     118A      1.170033   119A      1.180451   120A      1.212787  
     121A      1.215529   122A      1.222170   123A      1.233204  
     124A      1.256673   125A      1.267234   126A      1.277545  
     127A      1.298002   128A      1.318572   129A      1.335717  
     130A      1.346184   131A      1.361678   132A      1.384595  
     133A      1.402725   134A      1.421755   135A      1.441231  
     136A      1.469497   137A      1.486063   138A      1.492324  
     139A      1.512486   140A      1.514181   141A      1.527965  
     142A      1.534989   143A      1.543768   144A      1.557186  
     145A      1.568733   146A      1.580308   147A      1.586821  
     148A      1.601462   149A      1.613461   150A      1.621186  
     151A      1.625504   152A      1.648639   153A      1.676414  
     154A      1.694643   155A      1.726657   156A      1.733231  
     157A      1.764785   158A      1.770248   159A      1.781202  
     160A      1.814810   161A      1.842873   162A      1.910644  
     163A      1.925933   164A      1.967181   165A      1.993686  
     166A      2.053307   167A      2.117904   168A      2.140016  
     169A      2.167188   170A      2.207281   171A      2.231754  
     172A      2.254468   173A      2.302896   174A      2.325331  
     175A      2.333452   176A      2.353600   177A      2.355457  
     178A      2.379371   179A      2.423046   180A      2.431472  
     181A      2.450837   182A      2.467564   183A      2.502716  
     184A      2.509443   185A      2.527500   186A      2.558501  
     187A      2.587795   188A      2.616732   189A      2.628250  
     190A      2.642872   191A      2.675671   192A      2.695670  
     193A      2.704830   194A      2.725049   195A      2.758171  
     196A      2.763523   197A      2.793502   198A      2.803714  
     199A      2.809351   200A      2.847088   201A      2.854109  
     202A      2.890438   203A      2.925200   204A      2.932307  
     205A      2.945843   206A      2.964398   207A      2.969416  
     208A      2.973294   209A      3.002768   210A      3.031911  
     211A      3.039051   212A      3.050078   213A      3.057053  
     214A      3.069353   215A      3.076234   216A      3.078870  
     217A      3.104209   218A      3.119449   219A      3.131047  
     220A      3.147788   221A      3.154491   222A      3.185355  
     223A      3.221304   224A      3.226917   225A      3.234861  
     226A      3.244843   227A      3.250442   228A      3.264960  
     229A      3.276443   230A      3.283429   231A      3.309322  
     232A      3.326926   233A      3.333347   234A      3.335577  
     235A      3.345977   236A      3.359985   237A      3.364333  
     238A      3.382419   239A      3.389609   240A      3.403178  
     241A      3.411200   242A      3.432038   243A      3.444543  
     244A      3.456167   245A      3.470636   246A      3.473515  
     247A      3.493872   248A      3.505520   249A      3.509737  
     250A      3.526281   251A      3.537197   252A      3.545094  
     253A      3.567812   254A      3.604021   255A      3.621222  
     256A      3.627524   257A      3.638176   258A      3.651355  
     259A      3.665178   260A      3.673753   261A      3.688478  
     262A      3.691426   263A      3.695284   264A      3.705553  
     265A      3.708301   266A      3.728555   267A      3.734035  
     268A      3.738842   269A      3.765432   270A      3.796357  
     271A      3.811435   272A      3.840211   273A      3.862152  
     274A      3.871520   275A      3.893486   276A      3.907610  
     277A      3.914940   278A      3.941993   279A      3.983034  
     280A      3.991785   281A      4.027500   282A      4.041042  
     283A      4.067618   284A      4.080106   285A      4.104929  
     286A      4.116747   287A      4.123211   288A      4.132716  
     289A      4.144392   290A      4.151227   291A      4.154839  
     292A      4.168527   293A      4.170485   294A      4.181923  
     295A      4.201237   296A      4.214286   297A      4.242462  
     298A      4.261691   299A      4.276199   300A      4.294803  
     301A      4.312081   302A      4.326090   303A      4.352457  
     304A      4.364492   305A      4.373875   306A      4.401380  
     307A      4.433292   308A      4.437423   309A      4.446746  
     310A      4.468978   311A      4.473262   312A      4.504192  
     313A      4.520236   314A      4.553298   315A      4.559819  
     316A      4.583435   317A      4.587438   318A      4.601815  
     319A      4.603004   320A      4.617956   321A      4.642379  
     322A      4.669345   323A      4.695879   324A      4.699977  
     325A      4.711153   326A      4.725509   327A      4.733995  
     328A      4.739648   329A      4.753818   330A      4.804484  
     331A      4.818780   332A      4.851347   333A      4.937161  
     334A      4.991803   335A      5.014083   336A      5.055842  
     337A      5.058748   338A      5.068352   339A      5.086693  
     340A      5.098852   341A      5.121016   342A      5.150964  
     343A      5.171791   344A      5.193790   345A      5.245202  
     346A      5.253164   347A      5.293603   348A      5.305334  
     349A      5.315873   350A      5.353201   351A      5.380367  
     352A      5.398559   353A      5.414544   354A      5.416889  
     355A      5.470095   356A      5.496339   357A      5.505934  
     358A      5.534397   359A      5.555086   360A      5.586829  
     361A      5.599386   362A      5.639294   363A      5.653860  
     364A      5.705856   365A      5.724051   366A      5.788337  
     367A      5.803478   368A      5.891998   369A      5.908274  
     370A      5.927470   371A      6.001007   372A      6.026870  
     373A      6.035146   374A      6.078089   375A      6.144793  
     376A      6.190586   377A      6.205307   378A      6.258209  
     379A      6.358426   380A      6.361191   381A      6.411883  
     382A      6.477396   383A      6.532637   384A      6.589040  
     385A      6.660983   386A      6.740252   387A      6.813515  
     388A      6.854298   389A      6.863078   390A      6.907772  
     391A      6.951445   392A      7.125764   393A      7.188018  
     394A      7.276147   395A      7.310508   396A      7.362194  
     397A      7.502200   398A      7.590765   399A      7.634679  
     400A      7.714330   401A      7.953026   402A      8.040644  
     403A      9.509146   404A     11.146036   405A     12.344413  
     406A     13.120716   407A     13.684920   408A     13.794501  
     409A     14.215074   410A     14.441931   411A     14.875509  
     412A     16.580719  

    Final Occupation by Irrep:
              A 
    DOCC [    36 ]

  Energy converged.

  @DF-RHF Final Energy:  -457.50619758733905

   => Energetics <=

    Nuclear Repulsion Energy =            494.3026727444155881
    One-Electron Energy =               -1603.0688069812053982
    Two-Electron Energy =                 651.2599366494500828
    DFT Exchange-Correlation Energy =       0.0000000000000000
    Empirical Dispersion Energy =           0.0000000000000000
    PCM Polarization Energy =               0.0000000000000000
    EFP Energy =                            0.0000000000000000
    Total Energy =                       -457.5061975873397841

    Alert: EFP and PCM quantities not currently incorporated into SCF psivars.

Properties will be evaluated at   0.000000,   0.000000,   0.000000 Bohr
  ==> Properties <==


Properties computed using the SCF density matrix

  Nuclear Dipole Moment: (a.u.)
     X:     0.2263      Y:     2.3118      Z:    -0.4287

  Electronic Dipole Moment: (a.u.)
     X:    -0.6801      Y:    -1.6595      Z:     0.2933

  Dipole Moment: (a.u.)
     X:    -0.4538      Y:     0.6524      Z:    -0.1354     Total:     0.8061

  Dipole Moment: (Debye)
     X:    -1.1535      Y:     1.6582      Z:    -0.3441     Total:     2.0490


  Saving occupied orbitals to File 180.

*** tstop() called on cx1-27-1-2 at Fri Sep  9 23:48:24 2016
Module time:
	user time   =      96.85 seconds =       1.61 minutes
	system time =       1.38 seconds =       0.02 minutes
	total time  =         29 seconds =       0.48 minutes
Total time:
	user time   =      96.85 seconds =       1.61 minutes
	system time =       1.38 seconds =       0.02 minutes
	total time  =         29 seconds =       0.48 minutes

*** tstart() called on cx1-27-1-2
*** at Fri Sep  9 23:48:24 2016


         ------------------------------------------------------------
                                   SCF GRAD                          
                          Rob Parrish, Justin Turney,                
                       Andy Simmonett, and Alex Sokolov              
         ------------------------------------------------------------

  ==> Geometry <==

    Molecular point group: c1
    Full point group: C1

    Geometry (in Angstrom), charge = 0, multiplicity = 1:

       Center              X                  Y                   Z               Mass       
    ------------   -----------------  -----------------  -----------------  -----------------
           H         -4.025031036621    -0.446352730026    -0.000997009477     1.007825032070
           C         -2.954846036621    -0.363698730026     0.005926990523    12.000000000000
           C         -2.177508036621    -1.486025730026     0.229013990523    12.000000000000
           C         -2.357487036621     0.864033269974    -0.208126009477    12.000000000000
           H         -2.641867036621    -2.438649730026     0.395083990523     1.007825032070
           C         -0.802383036621    -1.379024730026     0.237762990523    12.000000000000
           H         -2.961206036621     1.733802269974    -0.381038009477     1.007825032070
           C         -0.980680036621     0.972792269974    -0.199666009477    12.000000000000
           H         -0.185486036621    -2.237635730026     0.408889990523     1.007825032070
           C         -0.198887036621    -0.149484730026     0.023502990523    12.000000000000
           H         -0.514899036621     1.922113269974    -0.365098009477     1.007825032070
           C          1.290603963379    -0.086502730026     0.042742990523    12.000000000000
           O          1.760655963379     1.128048269974    -0.171505009477    15.994914619560
           O          1.987988963379    -1.026476730026     0.230575990523    15.994914619560
           C          3.165925963379     1.285457269974    -0.171467009477    12.000000000000
           H          3.487785963379     1.822072269974    -1.051141009477     1.007825032070
           H          3.575069963379     0.288366269974    -0.171630009477     1.007825032070
           H          3.487774963379     1.821809269974     0.708383990523     1.007825032070

  Nuclear repulsion =  494.302672744415588

  ==> Basis Set <==

  Basis Set: CC-PVTZ
    Number of shells: 148
    Number of basis function: 412
    Number of Cartesian functions: 470
    Spherical Harmonics?: true
    Max angular momentum: 3

  ==> DFJKGrad: Density-Fitted SCF Gradients <==

    Gradient:                    1
    J tasked:                  Yes
    K tasked:                  Yes
    wK tasked:                  No
    OpenMP threads:              4
    Integrals threads:           4
    Memory (MB):              1430
    Schwarz Cutoff:          0E+00
    Fitting Condition:       1E-12

   => Auxiliary Basis Set <=

  Basis Set: 
    Number of shells: 330
    Number of basis function: 1030
    Number of Cartesian functions: 1240
    Spherical Harmonics?: true
    Max angular momentum: 4


  -Total Gradient:
     Atom            X                  Y                   Z
    ------   -----------------  -----------------  -----------------
       1        0.000024822661     0.000016622177    -0.000006705292
       2       -0.000018370624    -0.000039647071     0.000009802037
       3       -0.000038148686     0.000052470981    -0.000001843666
       4        0.000033564057     0.000036684201    -0.000003169235
       5        0.000000552247     0.000030987312    -0.000006131608
       6       -0.000072604374     0.000077674717    -0.000028040652
       7       -0.000021465778    -0.000021465842     0.000004408848
       8       -0.000185007790    -0.000124025381     0.000014055324
       9        0.000010610812     0.000042230452    -0.000016255550
      10       -0.000097151577    -0.000154249851     0.000126984316
      11       -0.000039061751     0.000000138617    -0.000013060428
      12       -0.000217302094     0.000601353513    -0.000574777628
      13        0.001027906676    -0.009197999641     0.001710266509
      14        0.004993668234     0.004329154368    -0.000992060240
      15       -0.005104963749     0.012283981444     0.000146334620
      16        0.006109204312    -0.001106232711     0.001303873074
      17       -0.009738618988    -0.006378330306     0.000041075577
      18        0.003332366414    -0.000449346983    -0.001714756007


*** tstop() called on cx1-27-1-2 at Fri Sep  9 23:49:07 2016
Module time:
	user time   =     165.27 seconds =       2.75 minutes
	system time =       0.95 seconds =       0.02 minutes
	total time  =         43 seconds =       0.72 minutes
Total time:
	user time   =     262.13 seconds =       4.37 minutes
	system time =       2.33 seconds =       0.04 minutes
	total time  =         72 seconds =       1.20 minutes
CURRENT ENERGY: -457.5061975873

			-----------------------------------------
			 OPTKING 2.0: for geometry optimizations 
			  - R.A. King,  Bethel University        
			-----------------------------------------

	Internal coordinates to be generated automatically.
	Detected frag with atoms:  1 2 3 4 5 6 7 8 9 10 11 12 13 14 15 16 17 18
	---Fragment 1 Bond Connectivity---
	 1 : 2
	 2 : 1 3 4
	 3 : 2 5 6
	 4 : 2 7 8
	 5 : 3
	 6 : 3 9 10
	 7 : 4
	 8 : 4 10 11
	 9 : 6
	 10 : 6 8 12
	 11 : 8
	 12 : 10 13 14
	 13 : 12 15
	 14 : 12
	 15 : 13 16 17 18
	 16 : 15
	 17 : 15
	 18 : 15

	Assuming in current code that numbering for constraints corresponds to unified fragment.
	Frozen dihedral atom list: 
	    12    13    15    16
	---Fragment 1 Geometry and Gradient---
	 H          -7.6062063356       -0.8434844184       -0.0018840749
	 C          -5.5838497741       -0.6872909946        0.0112003889
	 C          -4.1148938414       -2.8081816562        0.4327737227
	 C          -4.4550048610        1.6327862500       -0.3933011590
	 H          -4.9924051787       -4.6083801238        0.7466005416
	 C          -1.5162841929       -2.6059790702        0.4493069366
	 H          -5.5958684323        3.2764114588       -0.7200574841
	 C          -1.8532166932        1.8383109744       -0.3773140760
	 H          -0.3505178107       -4.2285187149        0.7726901006
	 C          -0.3758420306       -0.2824852008        0.0444142154
	 H          -0.9730181653        3.6322676766       -0.6899352496
	 C           2.4388880368       -0.1634664695        0.0807725462
	 O           3.3271575850        2.1317022949       -0.3240974983
	 O           3.7567546960       -1.9397599015        0.4357254749
	 C           5.9827330278        2.4291621958       -0.3240256887
	 H           6.5909602809        3.4432175846       -1.9863686350
	 H           6.7559031367        0.5449332762       -0.3243337141
	 H           6.5909394939        3.4427205866        1.3386517390
	             0.0000248227        0.0000166222       -0.0000067053
	            -0.0000183706       -0.0000396471        0.0000098020
	            -0.0000381487        0.0000524710       -0.0000018437
	             0.0000335641        0.0000366842       -0.0000031692
	             0.0000005522        0.0000309873       -0.0000061316
	            -0.0000726044        0.0000776747       -0.0000280407
	            -0.0000214658       -0.0000214658        0.0000044088
	            -0.0001850078       -0.0001240254        0.0000140553
	             0.0000106108        0.0000422305       -0.0000162556
	            -0.0000971516       -0.0001542499        0.0001269843
	            -0.0000390618        0.0000001386       -0.0000130604
	            -0.0002173021        0.0006013535       -0.0005747776
	             0.0010279067       -0.0091979996        0.0017102665
	             0.0049936682        0.0043291544       -0.0009920602
	            -0.0051049637        0.0122839814        0.0001463346
	             0.0061092043       -0.0011062327        0.0013038731
	            -0.0097386190       -0.0063783303        0.0000410756
	             0.0033323664       -0.0004493470       -0.0017147560

	Previous optimization step data not found.  Starting new optimization.

	---Fragment 1 Intrafragment Coordinates---
	 - Coordinate -           - BOHR/RAD -       - ANG/DEG -
	 R(1,2)           =         2.028421	       1.073394
	 R(2,3)           =         2.614141	       1.383344
	 R(2,4)           =         2.611641	       1.382021
	 R(3,5)           =         2.027123	       1.072707
	 R(3,6)           =         2.606517	       1.379310
	 R(4,7)           =         2.027275	       1.072788
	 R(4,8)           =         2.609942	       1.381122
	 R(6,9)           =         2.023913	       1.071009
	 R(6,10)          =         2.619765	       1.386320
	 R(8,10)          =         2.618829	       1.385825
	 R(8,11)          =         2.022563	       1.070294
	 R(10,12)         =         2.817480	       1.490946
	 R(12,13)         =         2.494142	       1.319843
	 R(12,14)         =         2.240085	       1.185402
	 R(13,15)         =         2.672183	       1.414059
	 R(15,16)         =         2.040008	       1.079526
	 R(15,17)         =         2.036691	       1.077771
	 R(15,18)         =         2.040027	       1.079536
	 B(1,2,3)         =         2.093026	     119.921549
	 B(1,2,4)         =         2.092491	     119.890912
	 B(2,3,5)         =         2.096948	     120.146267
	 B(2,3,6)         =         2.092441	     119.888033
	 B(2,4,7)         =         2.096664	     120.129985
	 B(2,4,8)         =         2.094271	     119.992870
	 B(3,2,4)         =         2.097668	     120.187540
	 B(3,6,9)         =         2.109555	     120.868615
	 B(3,6,10)        =         2.096503	     120.120745
	 B(4,8,10)        =         2.093920	     119.972762
	 B(4,8,11)        =         2.097550	     120.180745
	 B(5,3,6)         =         2.093796	     119.965700
	 B(6,10,8)        =         2.091569	     119.838050
	 B(6,10,12)       =         2.060505	     118.058229
	 B(7,4,8)         =         2.092251	     119.877145
	 B(8,10,12)       =         2.131112	     122.103721
	 B(9,6,10)        =         2.077128	     119.010640
	 B(10,8,11)       =         2.091716	     119.846493
	 B(10,12,13)      =         1.974224	     113.114696
	 B(10,12,14)      =         2.160704	     123.799242
	 B(12,13,15)      =         2.044698	     117.152558
	 B(13,12,14)      =         2.148257	     123.086062
	 B(13,15,16)      =         1.930085	     110.585730
	 B(13,15,17)      =         1.848634	     105.918939
	 B(13,15,18)      =         1.930089	     110.585927
	 B(16,15,17)      =         1.924705	     110.277448
	 B(16,15,18)      =         1.905282	     109.164619
	 B(17,15,18)      =         1.924728	     110.278773
	 D(1,2,3,5)       =        -0.000000	      -0.000000
	 D(1,2,3,6)       =         3.141593	     180.000000
	 D(1,2,4,7)       =         0.000000	       0.000000
	 D(1,2,4,8)       =         3.141593	     180.000000
	 D(2,3,6,9)       =         3.141593	     180.000000
	 D(2,3,6,10)      =        -0.000000	      -0.000000
	 D(2,4,8,10)      =         0.000000	       0.000000
	 D(2,4,8,11)      =         3.141593	     180.000000
	 D(3,2,4,7)       =         3.141593	     180.000000
	 D(3,2,4,8)       =        -0.000000	      -0.000000
	 D(3,6,10,8)      =         0.000000	       0.000000
	 D(3,6,10,12)     =         3.141593	     180.000000
	 D(4,2,3,5)       =         3.141593	     180.000000
	 D(4,2,3,6)       =         0.000000	       0.000000
	 D(4,8,10,6)      =        -0.000000	      -0.000000
	 D(4,8,10,12)     =         3.141593	     180.000000
	 D(5,3,6,9)       =         0.000000	       0.000000
	 D(5,3,6,10)      =         3.141593	     180.000000
	 D(6,10,8,11)     =         3.141593	     180.000000
	 D(6,10,12,13)    =         3.141593	     180.000000
	 D(6,10,12,14)    =        -0.000029	      -0.001637
	 D(7,4,8,10)      =         3.141593	     180.000000
	 D(7,4,8,11)      =        -0.000000	      -0.000000
	 D(8,10,6,9)      =         3.141593	     180.000000
	 D(8,10,12,13)    =         0.000000	       0.000000
	 D(8,10,12,14)    =         3.141559	     179.998088
	 D(9,6,10,12)     =        -0.000000	      -0.000000
	 D(10,12,13,15)   =        -3.141559	    -179.998061
	 D(11,8,10,12)    =         0.000000	       0.000000
	*D(12,13,15,16)   =         2.268928	     130.000007
	 D(12,13,15,17)   =         0.183640	      10.521795
	 D(12,13,15,18)   =        -1.901678	    -108.958110
	 D(14,12,13,15)   =         0.000072	       0.004114

	Current energy   :      -457.5061975873

	Generating empirical Hessian (Schlegel '84) for each fragment.
	Taking RFO optimization step.
	Going to follow RFO solution 1.
	Using RFO vector 1.
	Norm of target step-size    0.20734
	Projected energy change by RFO approximation:        -0.0059458674

	Back-transformation to cartesian coordinates...
	Successfully converged to displaced geometry.

	Back-transformation to cartesian coordinates to adjust frozen coordinates...
	Successfully converged to displaced geometry.

	--- Internal Coordinate Step in ANG or DEG, aJ/ANG or AJ/DEG ---
	 ---------------------------------------------------------------------------
	   Coordinate                Previous        Force       Change         New 
	   ----------                --------       ------       ------       ------
	    1 R(1,2)          =      1.073394     0.000214     0.000037     1.073431
	    2 R(2,3)          =      1.383344     0.000698     0.000094     1.383438
	    3 R(2,4)          =      1.382021     0.000609     0.000081     1.382102
	    4 R(3,5)          =      1.072707     0.000237     0.000040     1.072748
	    5 R(3,6)          =      1.379310    -0.000317    -0.000040     1.379269
	    6 R(4,7)          =      1.072788     0.000050     0.000009     1.072796
	    7 R(4,8)          =      1.381122     0.000209     0.000027     1.381149
	    8 R(6,9)          =      1.071009     0.000250     0.000042     1.071051
	    9 R(6,10)         =      1.386320     0.000438     0.000056     1.386376
	   10 R(8,10)         =      1.385825    -0.000766    -0.000103     1.385721
	   11 R(8,11)         =      1.070294     0.000122     0.000021     1.070315
	   12 R(10,12)        =      1.490946    -0.003331    -0.000629     1.490318
	   13 R(12,13)        =      1.319843     0.051577     0.005287     1.325130
	   14 R(12,14)        =      1.185402     0.005373     0.000305     1.185707
	   15 R(13,15)        =      1.414059     0.040240     0.005867     1.419925
	   16 R(15,16)        =      1.079526    -0.001723    -0.000299     1.079227
	   17 R(15,17)        =      1.077771    -0.018157    -0.003156     1.074615
	   18 R(15,18)        =      1.079536     0.005168     0.000904     1.080440
	   19 B(1,2,3)        =    119.921549    -0.000003    -0.011777   119.909772
	   20 B(1,2,4)        =    119.890912    -0.000000    -0.000865   119.890047
	   21 B(2,3,5)        =    120.146267     0.000002     0.008564   120.154832
	   22 B(2,3,6)        =    119.888033    -0.000003    -0.007951   119.880082
	   23 B(2,4,7)        =    120.129985     0.000002     0.009558   120.139543
	   24 B(2,4,8)        =    119.992870     0.000000     0.001809   119.994679
	   25 B(3,2,4)        =    120.187540     0.000003     0.012641   120.200181
	   26 B(3,6,9)        =    120.868615     0.000000    -0.002109   120.866506
	   27 B(3,6,10)       =    120.120745    -0.000006    -0.019517   120.101228
	   28 B(4,8,10)       =    119.972762    -0.000009    -0.028352   119.944410
	   29 B(4,8,11)       =    120.180745     0.000007     0.026843   120.207588
	   30 B(5,3,6)        =    119.965700     0.000000    -0.000613   119.965087
	   31 B(6,10,8)       =    119.838050     0.000014     0.041368   119.879418
	   32 B(6,10,12)      =    118.058229    -0.000001    -0.003797   118.054432
	   33 B(7,4,8)        =    119.877145    -0.000002    -0.011367   119.865778
	   34 B(8,10,12)      =    122.103721    -0.000013    -0.037573   122.066148
	   35 B(9,6,10)       =    119.010640     0.000006     0.021626   119.032266
	   36 B(10,8,11)      =    119.846493     0.000001     0.001509   119.848002
	   37 B(10,12,13)     =    113.114696    -0.000397    -1.163104   111.951592
	   38 B(10,12,14)     =    123.799242    -0.000368    -1.079070   122.720172
	   39 B(12,13,15)     =    117.152558     0.001594     4.672730   121.825288
	   40 B(13,12,14)     =    123.086062     0.000765     2.240732   125.326794
	   41 B(13,15,16)     =    110.585730    -0.000910    -4.514611   106.071120
	   42 B(13,15,17)     =    105.918939     0.001522     7.728407   113.647346
	   43 B(13,15,18)     =    110.585927    -0.000476    -2.739675   107.846252
	   44 B(16,15,17)     =    110.277448    -0.000292    -0.260358   110.017090
	   45 B(16,15,18)     =    109.164619     0.000372    -0.073469   109.091149
	   46 B(17,15,18)     =    110.278773    -0.000211    -0.268784   110.009989
	   47 D(1,2,3,5)      =      0.000000     0.000000     0.000921     0.000921
	   48 D(1,2,3,6)      =    180.000000     0.000000     0.007186   180.007186
	   49 D(1,2,4,7)      =      0.000000    -0.000000    -0.001703    -0.001703
	   50 D(1,2,4,8)      =    180.000000    -0.000000    -0.005237   179.994763
	   51 D(2,3,6,9)      =    180.000000    -0.000000    -0.008676   179.991324
	   52 D(2,3,6,10)     =      0.000000    -0.000000    -0.009108    -0.009108
	   53 D(2,4,8,10)     =      0.000000     0.000000     0.005214     0.005214
	   54 D(2,4,8,11)     =    180.000000     0.000000     0.010386   180.010386
	   55 D(3,2,4,7)      =    180.000000     0.000000     0.007055   180.007055
	   56 D(3,2,4,8)      =      0.000000     0.000000     0.003522     0.003522
	   57 D(3,6,10,8)     =      0.000000     0.000000     0.017817     0.017817
	   58 D(3,6,10,12)    =    180.000000     0.000000     0.003564   180.003564
	   59 D(4,2,3,5)      =    180.000000    -0.000000    -0.007839   179.992161
	   60 D(4,2,3,6)      =      0.000000    -0.000000    -0.001575    -0.001575
	   61 D(4,8,10,6)     =      0.000000    -0.000000    -0.015846    -0.015846
	   62 D(4,8,10,12)    =    180.000000    -0.000000    -0.001003   179.998997
	   63 D(5,3,6,9)      =      0.000000    -0.000000    -0.002423    -0.002423
	   64 D(5,3,6,10)     =    180.000000    -0.000000    -0.002855   179.997145
	   65 D(6,10,8,11)    =    180.000000    -0.000000    -0.020999   179.979001
	   66 D(6,10,12,13)   =    180.000000     0.000001     0.207962   180.207962
	   67 D(6,10,12,14)   =     -0.001637    -0.000001    -0.206005    -0.207642
	   68 D(7,4,8,10)     =    180.000000     0.000000     0.001691   180.001691
	   69 D(7,4,8,11)     =      0.000000     0.000000     0.006862     0.006862
	   70 D(8,10,6,9)     =    180.000000     0.000000     0.017393   180.017393
	   71 D(8,10,12,13)   =      0.000000     0.000001     0.193378     0.193378
	   72 D(8,10,12,14)   =    179.998088    -0.000001    -0.220313   179.777774
	   73 D(9,6,10,12)    =      0.000000     0.000000     0.003139     0.003139
	   74 D(10,12,13,15)  =   -179.998061     0.000005     0.726423  -179.271639
	   75 D(11,8,10,12)   =      0.000000    -0.000000    -0.006155    -0.006155
	   76 *D(12,13,15,16) =    130.000007     0.000000    -0.000000   130.000007
	   77 D(12,13,15,17)  =     10.521795    -0.000014    -1.520706     9.001089
	   78 D(12,13,15,18)  =   -108.958110    -0.000104    -4.276896  -113.235006
	   79 D(14,12,13,15)  =      0.004114     0.000007     1.152818     1.156932
	 ---------------------------------------------------------------------------

  ==> Convergence Check <==

  Measures of convergence in internal coordinates in au.
  Criteria marked as inactive (o), active & met (*), and active & unmet ( ).
  --------------------------------------------------------------------------------------------- ~
   Step     Total Energy     Delta E     MAX Force     RMS Force      MAX Disp      RMS Disp    ~
  --------------------------------------------------------------------------------------------- ~
    Convergence Criteria    1.00e-06 *    3.00e-04 *             o    1.20e-03 *             o  ~
  --------------------------------------------------------------------------------------------- ~
      1    -457.50619759   -4.58e+02      2.10e-02      4.09e-03 o    1.35e-01      2.33e-02 o  ~
  ---------------------------------------------------------------------------------------------

	Writing optimization data to binary file.
	Structure for next step:
	Cartesian Geometry (in Angstrom)
	    H    -4.0255167210  -0.3946943043  -0.0127595186
	    C    -2.9536095331  -0.3389625922   0.0000244479
	    C    -2.2060580177  -1.4814443788   0.2231868553
	    C    -2.3244929873   0.8742225947  -0.2063751819
	    H    -2.6951184169  -2.4226831943   0.3834284064
	    C    -0.8287852471  -1.4091047670   0.2396326174
	    H    -2.9051441229   1.7595804896  -0.3792259537
	    C    -0.9454333215   0.9484284919  -0.1902706614
	    H    -0.2346128843  -2.2835887840   0.4110598981
	    C    -0.1938126966  -0.1941667097   0.0328137148
	    H    -0.4547051239   1.8861873930  -0.3495463674
	    C     1.2960328260  -0.1683658535   0.0600379475
	    O     1.7742217533   1.0501373601  -0.1462504402
	    O     1.9504083067  -1.1380109736   0.2536416747
	    C     3.1695320627   1.3114017997  -0.1784606123
	    H     3.3469626381   1.8762959286  -1.0807595070
	    H     3.7745341996   0.4232795744  -0.1755405041
	    H     3.4111225469   1.9261309547   0.6765789803
			--------------------------
			 OPTKING Finished Execution 
			--------------------------

    Structure for next step:
    Molecular point group: c1
    Full point group: C1

    Geometry (in Angstrom), charge = 0, multiplicity = 1:

    H           -4.025184490512    -0.364490916153    -0.019770760016
    C           -2.953277384439    -0.308759208281    -0.006986794500
    C           -2.205725926170    -1.451240907674     0.216175595850
    C           -2.324160886720     0.904425885949    -0.213386408566
    H           -2.694786287973    -2.392479651220     0.376417134699
    C           -0.828453260786    -1.378901301387     0.232621356684
    H           -2.904811977995     1.789783713295    -0.386237167125
    C           -0.945101326210     0.978631777477    -0.197281889312
    H           -0.234280943327    -2.253385251557     0.404048624330
    C           -0.193480758755    -0.163963336838     0.025802469900
    H           -0.454373166092     1.916390607024    -0.356557583135
    C            1.296364650092    -0.138162482665     0.053026700481
    O            1.774553540855     1.080340637976    -0.153261671489
    O            1.950740080857    -1.107807528687     0.246630412868
    C            3.169863743687     1.341605057631    -0.185471841094
    H            3.347294305595     1.906499143328    -1.087770666864
    H            3.774865834465     0.453482900148    -0.182551733085
    H            3.411454209498     1.956334165651     0.669567686263

gradient() will perform analytic gradient computation.

*** tstart() called on cx1-27-1-2
*** at Fri Sep  9 23:49:08 2016


         ---------------------------------------------------------
                                   SCF
            by Justin Turney, Rob Parrish, and Andy Simmonett
                              RHF Reference
                        4 Threads,   2000 MiB Core
         ---------------------------------------------------------

  ==> Geometry <==

    Molecular point group: c1
    Full point group: C1

    Geometry (in Angstrom), charge = 0, multiplicity = 1:

       Center              X                  Y                   Z               Mass       
    ------------   -----------------  -----------------  -----------------  -----------------
           H         -4.025184490512    -0.364490916153    -0.019770760016     1.007825032070
           C         -2.953277384439    -0.308759208281    -0.006986794500    12.000000000000
           C         -2.205725926170    -1.451240907674     0.216175595850    12.000000000000
           C         -2.324160886720     0.904425885949    -0.213386408566    12.000000000000
           H         -2.694786287973    -2.392479651220     0.376417134699     1.007825032070
           C         -0.828453260786    -1.378901301387     0.232621356684    12.000000000000
           H         -2.904811977995     1.789783713295    -0.386237167125     1.007825032070
           C         -0.945101326210     0.978631777477    -0.197281889312    12.000000000000
           H         -0.234280943327    -2.253385251557     0.404048624330     1.007825032070
           C         -0.193480758755    -0.163963336838     0.025802469900    12.000000000000
           H         -0.454373166092     1.916390607024    -0.356557583135     1.007825032070
           C          1.296364650092    -0.138162482665     0.053026700481    12.000000000000
           O          1.774553540855     1.080340637976    -0.153261671489    15.994914619560
           O          1.950740080857    -1.107807528687     0.246630412868    15.994914619560
           C          3.169863743687     1.341605057631    -0.185471841094    12.000000000000
           H          3.347294305595     1.906499143328    -1.087770666864     1.007825032070
           H          3.774865834465     0.453482900148    -0.182551733085     1.007825032070
           H          3.411454209498     1.956334165651     0.669567686263     1.007825032070

  Running in c1 symmetry.

  Rotational constants: A =      0.11685  B =      0.02861  C =      0.02308 [cm^-1]
  Rotational constants: A =   3503.19965  B =    857.58592  C =    691.88042 [MHz]
  Nuclear repulsion =  493.050199285355461

  Charge       = 0
  Multiplicity = 1
  Electrons    = 72
  Nalpha       = 36
  Nbeta        = 36

  ==> Algorithm <==

  SCF Algorithm Type is DF.
  DIIS enabled.
  MOM disabled.
  Fractional occupation disabled.
  Guess Type is READ.
  Energy threshold   = 1.00e-08
  Density threshold  = 1.00e-08
  Integral threshold = 0.00e+00

  ==> Primary Basis <==

  Basis Set: CC-PVTZ
    Number of shells: 148
    Number of basis function: 412
    Number of Cartesian functions: 470
    Spherical Harmonics?: true
    Max angular momentum: 3

  ==> Pre-Iterations <==

   -------------------------------------------------------
    Irrep   Nso     Nmo     Nalpha   Nbeta   Ndocc  Nsocc
   -------------------------------------------------------
     A        412     412       0       0       0       0
   -------------------------------------------------------
    Total     412     412      36      36      36       0
   -------------------------------------------------------

 OEINTS: Overlap, kinetic, potential, dipole, and quadrupole integrals
         stored in file 35.

  ==> Integral Setup <==

  ==> DFJK: Density-Fitted J/K Matrices <==

    J tasked:                  Yes
    K tasked:                  Yes
    wK tasked:                  No
    OpenMP threads:              4
    Integrals threads:           4
    Memory (MB):              1430
    Algorithm:                Core
    Integral Cache:           NONE
    Schwarz Cutoff:          1E-12
    Fitting Condition:       1E-12

   => Auxiliary Basis Set <=

  Basis Set: 
    Number of shells: 330
    Number of basis function: 1030
    Number of Cartesian functions: 1240
    Spherical Harmonics?: true
    Max angular momentum: 4

  Minimum eigenvalue in the overlap matrix is 3.1174920922E-05.
  Using Symmetric Orthogonalization.
  SCF Guess: Reading in previously saved MOs, projecting if necessary.

  Using orbitals from previous SCF, no projection.
  Recomputing DOCC and SOCC from number of alpha and beta electrons from previous calculation.
              A 
    DOCC [    36 ]

  ==> Iterations <==

                           Total Energy        Delta E     RMS |[F,P]|

   @DF-RHF iter   0:  -457.47609676860191   -4.57476e+02   4.46483e-04 
   @DF-RHF iter   1:  -457.50620283514809   -3.01061e-02   8.18209e-05 
   @DF-RHF iter   2:  -457.50707796054905   -8.75125e-04   3.37704e-05 DIIS
   @DF-RHF iter   3:  -457.50719833532867   -1.20375e-04   1.98867e-05 DIIS
   @DF-RHF iter   4:  -457.50723597508841   -3.76398e-05   3.32138e-06 DIIS
   @DF-RHF iter   5:  -457.50723730955986   -1.33447e-06   1.38442e-06 DIIS
   @DF-RHF iter   6:  -457.50723757199523   -2.62435e-07   3.47475e-07 DIIS
   @DF-RHF iter   7:  -457.50723759003097   -1.80357e-08   1.22766e-07 DIIS
   @DF-RHF iter   8:  -457.50723759276218   -2.73121e-09   4.67518e-08 DIIS
   @DF-RHF iter   9:  -457.50723759336438   -6.02199e-10   2.23644e-08 DIIS
   @DF-RHF iter  10:  -457.50723759354332   -1.78943e-10   1.06679e-08 DIIS
   @DF-RHF iter  11:  -457.50723759359346   -5.01359e-11   4.19192e-09 DIIS

  ==> Post-Iterations <==

    Orbital Energies (a.u.)
    -----------------------

    Doubly Occupied:                                                      

       1A    -20.600340     2A    -20.534360     3A    -11.373824  
       4A    -11.283522     5A    -11.243109     6A    -11.242395  
       7A    -11.241122     8A    -11.238673     9A    -11.234890  
      10A    -11.234170    11A     -1.469948    12A     -1.369569  
      13A     -1.169450    14A     -1.050995    15A     -1.027905  
      16A     -0.983324    17A     -0.862898    18A     -0.837291  
      19A     -0.780433    20A     -0.743358    21A     -0.687445  
      22A     -0.678165    23A     -0.674456    24A     -0.633277  
      25A     -0.629097    26A     -0.600478    27A     -0.587462  
      28A     -0.572328    29A     -0.529222    30A     -0.519224  
      31A     -0.509299    32A     -0.500913    33A     -0.460352  
      34A     -0.448858    35A     -0.348985    36A     -0.345092  

    Virtual:                                                              

      37A      0.091505    38A      0.125597    39A      0.142131  
      40A      0.150118    41A      0.171450    42A      0.186292  
      43A      0.207613    44A      0.211661    45A      0.220793  
      46A      0.232591    47A      0.241951    48A      0.262748  
      49A      0.336146    50A      0.339239    51A      0.354157  
      52A      0.365784    53A      0.373939    54A      0.390651  
      55A      0.392677    56A      0.406648    57A      0.425722  
      58A      0.429129    59A      0.439363    60A      0.466247  
      61A      0.471361    62A      0.477556    63A      0.502676  
      64A      0.507337    65A      0.524917    66A      0.552751  
      67A      0.554846    68A      0.567038    69A      0.571507  
      70A      0.573907    71A      0.581452    72A      0.592217  
      73A      0.597310    74A      0.603402    75A      0.606377  
      76A      0.619809    77A      0.622139    78A      0.636184  
      79A      0.645595    80A      0.649642    81A      0.654777  
      82A      0.677209    83A      0.684964    84A      0.707429  
      85A      0.712703    86A      0.733961    87A      0.739153  
      88A      0.740116    89A      0.759465    90A      0.781033  
      91A      0.789423    92A      0.801526    93A      0.848739  
      94A      0.852558    95A      0.858365    96A      0.863412  
      97A      0.912852    98A      0.918677    99A      0.928958  
     100A      0.937701   101A      0.942377   102A      0.962446  
     103A      0.974958   104A      1.003761   105A      1.005478  
     106A      1.009997   107A      1.028451   108A      1.039996  
     109A      1.044564   110A      1.063135   111A      1.071720  
     112A      1.085471   113A      1.106491   114A      1.110160  
     115A      1.126815   116A      1.159486   117A      1.162836  
     118A      1.166884   119A      1.195683   120A      1.207836  
     121A      1.214226   122A      1.218724   123A      1.232628  
     124A      1.252477   125A      1.259420   126A      1.270366  
     127A      1.286642   128A      1.328998   129A      1.337254  
     130A      1.357361   131A      1.359656   132A      1.374752  
     133A      1.400488   134A      1.423270   135A      1.430409  
     136A      1.442478   137A      1.489231   138A      1.494133  
     139A      1.500915   140A      1.514300   141A      1.522109  
     142A      1.534691   143A      1.539911   144A      1.547680  
     145A      1.567866   146A      1.578336   147A      1.587170  
     148A      1.599246   149A      1.602518   150A      1.613046  
     151A      1.625285   152A      1.657256   153A      1.676453  
     154A      1.693606   155A      1.718386   156A      1.738019  
     157A      1.762425   158A      1.770548   159A      1.787156  
     160A      1.818681   161A      1.841694   162A      1.888620  
     163A      1.909905   164A      1.970736   165A      1.991898  
     166A      2.043052   167A      2.099783   168A      2.118446  
     169A      2.165566   170A      2.183470   171A      2.230454  
     172A      2.251535   173A      2.305693   174A      2.327346  
     175A      2.328812   176A      2.352549   177A      2.354828  
     178A      2.377783   179A      2.399227   180A      2.419013  
     181A      2.451576   182A      2.477795   183A      2.489281  
     184A      2.509931   185A      2.532008   186A      2.561292  
     187A      2.571975   188A      2.619031   189A      2.624509  
     190A      2.643698   191A      2.666765   192A      2.697411  
     193A      2.704223   194A      2.722708   195A      2.758033  
     196A      2.766218   197A      2.790194   198A      2.802613  
     199A      2.812949   200A      2.848533   201A      2.855668  
     202A      2.891100   203A      2.928264   204A      2.932193  
     205A      2.947289   206A      2.965504   207A      2.970745  
     208A      2.975168   209A      3.004475   210A      3.033283  
     211A      3.039574   212A      3.048818   213A      3.052846  
     214A      3.062708   215A      3.073663   216A      3.078878  
     217A      3.084358   218A      3.113959   219A      3.130574  
     220A      3.147230   221A      3.161310   222A      3.186080  
     223A      3.223308   224A      3.225240   225A      3.234943  
     226A      3.244798   227A      3.249496   228A      3.257832  
     229A      3.266012   230A      3.282248   231A      3.312336  
     232A      3.328941   233A      3.332235   234A      3.336855  
     235A      3.341368   236A      3.351478   237A      3.362935  
     238A      3.382968   239A      3.391364   240A      3.402716  
     241A      3.408468   242A      3.434840   243A      3.445706  
     244A      3.446381   245A      3.473768   246A      3.476117  
     247A      3.498565   248A      3.503834   249A      3.505226  
     250A      3.530949   251A      3.536701   252A      3.548211  
     253A      3.569199   254A      3.604350   255A      3.612740  
     256A      3.623639   257A      3.627470   258A      3.648102  
     259A      3.655549   260A      3.660726   261A      3.686497  
     262A      3.689991   263A      3.690703   264A      3.700767  
     265A      3.707894   266A      3.730052   267A      3.734331  
     268A      3.736983   269A      3.749122   270A      3.789832  
     271A      3.813829   272A      3.836656   273A      3.854721  
     274A      3.865297   275A      3.873952   276A      3.879032  
     277A      3.913232   278A      3.942529   279A      3.974041  
     280A      3.993698   281A      4.028558   282A      4.057328  
     283A      4.071254   284A      4.082291   285A      4.105973  
     286A      4.112205   287A      4.123237   288A      4.124445  
     289A      4.142212   290A      4.152869   291A      4.155288  
     292A      4.167313   293A      4.171889   294A      4.182900  
     295A      4.186768   296A      4.215786   297A      4.228698  
     298A      4.256140   299A      4.275725   300A      4.292000  
     301A      4.293924   302A      4.314227   303A      4.339159  
     304A      4.366727   305A      4.375837   306A      4.389186  
     307A      4.420536   308A      4.436751   309A      4.443821  
     310A      4.464313   311A      4.473910   312A      4.506021  
     313A      4.535586   314A      4.553310   315A      4.556662  
     316A      4.576769   317A      4.588933   318A      4.599411  
     319A      4.605719   320A      4.620976   321A      4.645395  
     322A      4.664044   323A      4.696906   324A      4.698366  
     325A      4.712747   326A      4.727907   327A      4.731035  
     328A      4.736714   329A      4.746693   330A      4.802407  
     331A      4.805951   332A      4.863811   333A      4.939334  
     334A      4.996487   335A      5.009611   336A      5.038281  
     337A      5.054043   338A      5.059814   339A      5.072044  
     340A      5.100968   341A      5.124914   342A      5.152260  
     343A      5.173572   344A      5.195035   345A      5.241429  
     346A      5.252756   347A      5.297375   348A      5.308954  
     349A      5.327224   350A      5.360158   351A      5.385239  
     352A      5.392611   353A      5.411281   354A      5.416151  
     355A      5.451810   356A      5.488293   357A      5.501466  
     358A      5.531231   359A      5.554190   360A      5.585086  
     361A      5.601922   362A      5.633731   363A      5.641880  
     364A      5.656439   365A      5.711541   366A      5.770586  
     367A      5.790020   368A      5.875178   369A      5.888689  
     370A      5.931688   371A      5.993010   372A      6.016502  
     373A      6.018785   374A      6.081683   375A      6.144334  
     376A      6.150801   377A      6.192249   378A      6.231382  
     379A      6.335591   380A      6.362462   381A      6.416875  
     382A      6.466655   383A      6.519055   384A      6.623292  
     385A      6.628744   386A      6.737031   387A      6.823362  
     388A      6.852807   389A      6.895676   390A      6.902969  
     391A      6.959425   392A      7.052980   393A      7.155464  
     394A      7.263346   395A      7.308372   396A      7.359178  
     397A      7.509959   398A      7.560247   399A      7.617265  
     400A      7.719271   401A      7.962412   402A      8.060385  
     403A      9.460835   404A     11.173253   405A     12.226685  
     406A     13.108516   407A     13.686008   408A     13.801814  
     409A     14.150651   410A     14.429991   411A     14.806406  
     412A     16.582909  

    Final Occupation by Irrep:
              A 
    DOCC [    36 ]

  Energy converged.

  @DF-RHF Final Energy:  -457.50723759359346

   => Energetics <=

    Nuclear Repulsion Energy =            493.0501992853554611
    One-Electron Energy =               -1600.6224182569330878
    Two-Electron Energy =                 650.0649813779837132
    DFT Exchange-Correlation Energy =       0.0000000000000000
    Empirical Dispersion Energy =           0.0000000000000000
    PCM Polarization Energy =               0.0000000000000000
    EFP Energy =                            0.0000000000000000
    Total Energy =                       -457.5072375935937998

    Alert: EFP and PCM quantities not currently incorporated into SCF psivars.

Properties will be evaluated at   0.000000,   0.000000,   0.000000 Bohr
  ==> Properties <==


Properties computed using the SCF density matrix

  Nuclear Dipole Moment: (a.u.)
     X:     0.2243      Y:     2.8237      Z:    -0.5460

  Electronic Dipole Moment: (a.u.)
     X:    -0.5729      Y:    -2.0499      Z:     0.3828

  Dipole Moment: (a.u.)
     X:    -0.3486      Y:     0.7738      Z:    -0.1632     Total:     0.8642

  Dipole Moment: (Debye)
     X:    -0.8861      Y:     1.9667      Z:    -0.4147     Total:     2.1966


  Saving occupied orbitals to File 180.

*** tstop() called on cx1-27-1-2 at Fri Sep  9 23:49:28 2016
Module time:
	user time   =      69.37 seconds =       1.16 minutes
	system time =       0.92 seconds =       0.02 minutes
	total time  =         20 seconds =       0.33 minutes
Total time:
	user time   =     333.05 seconds =       5.55 minutes
	system time =       3.32 seconds =       0.06 minutes
	total time  =         93 seconds =       1.55 minutes

*** tstart() called on cx1-27-1-2
*** at Fri Sep  9 23:49:28 2016


         ------------------------------------------------------------
                                   SCF GRAD                          
                          Rob Parrish, Justin Turney,                
                       Andy Simmonett, and Alex Sokolov              
         ------------------------------------------------------------

  ==> Geometry <==

    Molecular point group: c1
    Full point group: C1

    Geometry (in Angstrom), charge = 0, multiplicity = 1:

       Center              X                  Y                   Z               Mass       
    ------------   -----------------  -----------------  -----------------  -----------------
           H         -4.025184490512    -0.364490916153    -0.019770760016     1.007825032070
           C         -2.953277384439    -0.308759208281    -0.006986794500    12.000000000000
           C         -2.205725926170    -1.451240907674     0.216175595850    12.000000000000
           C         -2.324160886720     0.904425885949    -0.213386408566    12.000000000000
           H         -2.694786287973    -2.392479651220     0.376417134699     1.007825032070
           C         -0.828453260786    -1.378901301387     0.232621356684    12.000000000000
           H         -2.904811977995     1.789783713295    -0.386237167125     1.007825032070
           C         -0.945101326210     0.978631777477    -0.197281889312    12.000000000000
           H         -0.234280943327    -2.253385251557     0.404048624330     1.007825032070
           C         -0.193480758755    -0.163963336838     0.025802469900    12.000000000000
           H         -0.454373166092     1.916390607024    -0.356557583135     1.007825032070
           C          1.296364650092    -0.138162482665     0.053026700481    12.000000000000
           O          1.774553540855     1.080340637976    -0.153261671489    15.994914619560
           O          1.950740080857    -1.107807528687     0.246630412868    15.994914619560
           C          3.169863743687     1.341605057631    -0.185471841094    12.000000000000
           H          3.347294305595     1.906499143328    -1.087770666864     1.007825032070
           H          3.774865834465     0.453482900148    -0.182551733085     1.007825032070
           H          3.411454209498     1.956334165651     0.669567686263     1.007825032070

  Nuclear repulsion =  493.050199285355404

  ==> Basis Set <==

  Basis Set: CC-PVTZ
    Number of shells: 148
    Number of basis function: 412
    Number of Cartesian functions: 470
    Spherical Harmonics?: true
    Max angular momentum: 3

  ==> DFJKGrad: Density-Fitted SCF Gradients <==

    Gradient:                    1
    J tasked:                  Yes
    K tasked:                  Yes
    wK tasked:                  No
    OpenMP threads:              4
    Integrals threads:           4
    Memory (MB):              1430
    Schwarz Cutoff:          0E+00
    Fitting Condition:       1E-12

   => Auxiliary Basis Set <=

  Basis Set: 
    Number of shells: 330
    Number of basis function: 1030
    Number of Cartesian functions: 1240
    Spherical Harmonics?: true
    Max angular momentum: 4


  -Total Gradient:
     Atom            X                  Y                   Z
    ------   -----------------  -----------------  -----------------
       1        0.000025812808     0.000000441129     0.000005466306
       2        0.000106884473    -0.000091869753     0.000016875970
       3       -0.000013285844    -0.000108536540     0.000006092496
       4        0.000167997072     0.000106333880    -0.000039612506
       5        0.000034526854     0.000011265241    -0.000001129318
       6        0.000221809404    -0.000044571985     0.000030011792
       7        0.000072872500    -0.000013626568     0.000000906633
       8        0.000659960640     0.000233359619     0.000016610541
       9        0.000085968558    -0.000110904073     0.000023867076
      10        0.001458090271    -0.000922532110     0.000498459325
      11        0.000290006173     0.000210436395    -0.000025037967
      12       -0.000668738140    -0.000515945368    -0.001751215355
      13       -0.003498328497     0.007361771356    -0.000289534929
      14       -0.004565442622    -0.007009474047     0.001793493206
      15        0.004609987223    -0.004510545501     0.000598123545
      16       -0.001945225344     0.000008525846     0.000142709582
      17        0.003732749618     0.004418654995    -0.000533095128
      18       -0.000775645133     0.000977217481    -0.000492991268


*** tstop() called on cx1-27-1-2 at Fri Sep  9 23:50:11 2016
Module time:
	user time   =     163.01 seconds =       2.72 minutes
	system time =       0.90 seconds =       0.02 minutes
	total time  =         43 seconds =       0.72 minutes
Total time:
	user time   =     496.08 seconds =       8.27 minutes
	system time =       4.22 seconds =       0.07 minutes
	total time  =        136 seconds =       2.27 minutes
CURRENT ENERGY: -457.5072375936

			-----------------------------------------
			 OPTKING 2.0: for geometry optimizations 
			  - R.A. King,  Bethel University        
			-----------------------------------------

	Previous internal coordinate definitions found.
	---Fragment 1 Geometry and Gradient---
	 H          -7.6064963214       -0.6887880095       -0.0373613219
	 C          -5.5808854510       -0.5834703447       -0.0132031282
	 C          -4.1682179247       -2.7424478683        0.4085126728
	 C          -4.3920275647        1.7091172319       -0.4032418727
	 H          -5.0924080709       -4.5211313193        0.7113252963
	 C          -1.5655497768       -2.6057458239        0.4395906568
	 H          -5.4892991059        3.3822010552       -0.7298824682
	 C          -1.7859826744        1.8493460444       -0.3728087418
	 H          -0.4427268210       -4.2582809973        0.7635412444
	 C          -0.3656256460       -0.3098458025        0.0487596017
	 H          -0.8586408460        3.6214534109       -0.6737961827
	 C           2.4497741570       -0.2610892541        0.1002059416
	 O           3.3534202004        2.0415479360       -0.2896225858
	 O           3.6863645093       -2.0934528372        0.4660639364
	 C           5.9901743541        2.5352661374       -0.3504909850
	 H           6.3254695237        3.6027612535       -2.0555886558
	 H           7.1334626155        0.8569584872       -0.3449727806
	 H           6.4467141708        3.6969357975        1.2652995545
	             0.0000258128        0.0000004411        0.0000054663
	             0.0001068845       -0.0000918698        0.0000168760
	            -0.0000132858       -0.0001085365        0.0000060925
	             0.0001679971        0.0001063339       -0.0000396125
	             0.0000345269        0.0000112652       -0.0000011293
	             0.0002218094       -0.0000445720        0.0000300118
	             0.0000728725       -0.0000136266        0.0000009066
	             0.0006599606        0.0002333596        0.0000166105
	             0.0000859686       -0.0001109041        0.0000238671
	             0.0014580903       -0.0009225321        0.0004984593
	             0.0002900062        0.0002104364       -0.0000250380
	            -0.0006687381       -0.0005159454       -0.0017512154
	            -0.0034983285        0.0073617714       -0.0002895349
	            -0.0045654426       -0.0070094740        0.0017934932
	             0.0046099872       -0.0045105455        0.0005981235
	            -0.0019452253        0.0000085258        0.0001427096
	             0.0037327496        0.0044186550       -0.0005330951
	            -0.0007756451        0.0009772175       -0.0004929913

	---Fragment 1 Intrafragment Coordinates---
	 - Coordinate -           - BOHR/RAD -       - ANG/DEG -
	 R(1,2)           =         2.028491	       1.073431
	 R(2,3)           =         2.614318	       1.383438
	 R(2,4)           =         2.611795	       1.382102
	 R(3,5)           =         2.027199	       1.072748
	 R(3,6)           =         2.606441	       1.379269
	 R(4,7)           =         2.027291	       1.072796
	 R(4,8)           =         2.609992	       1.381149
	 R(6,9)           =         2.023993	       1.071051
	 R(6,10)          =         2.619871	       1.386376
	 R(8,10)          =         2.618634	       1.385721
	 R(8,11)          =         2.022602	       1.070315
	 R(10,12)         =         2.816292	       1.490318
	 R(12,13)         =         2.504133	       1.325130
	 R(12,14)         =         2.240662	       1.185707
	 R(13,15)         =         2.683269	       1.419925
	 R(15,16)         =         2.039443	       1.079227
	 R(15,17)         =         2.030728	       1.074615
	 R(15,18)         =         2.041736	       1.080440
	 B(1,2,3)         =         2.092820	     119.909772
	 B(1,2,4)         =         2.092476	     119.890047
	 B(2,3,5)         =         2.097097	     120.154832
	 B(2,3,6)         =         2.092302	     119.880082
	 B(2,4,7)         =         2.096831	     120.139543
	 B(2,4,8)         =         2.094302	     119.994679
	 B(3,2,4)         =         2.097889	     120.200181
	 B(3,6,9)         =         2.109518	     120.866506
	 B(3,6,10)        =         2.096162	     120.101228
	 B(4,8,10)        =         2.093425	     119.944410
	 B(4,8,11)        =         2.098018	     120.207588
	 B(5,3,6)         =         2.093786	     119.965087
	 B(6,10,8)        =         2.092291	     119.879418
	 B(6,10,12)       =         2.060439	     118.054432
	 B(7,4,8)         =         2.092052	     119.865778
	 B(8,10,12)       =         2.130456	     122.066148
	 B(9,6,10)        =         2.077505	     119.032266
	 B(10,8,11)       =         2.091742	     119.848002
	 B(10,12,13)      =         1.953924	     111.951592
	 B(10,12,14)      =         2.141871	     122.720172
	 B(12,13,15)      =         2.126252	     121.825288
	 B(13,12,14)      =         2.187365	     125.326794
	 B(13,15,16)      =         1.851290	     106.071120
	 B(13,15,17)      =         1.983520	     113.647346
	 B(13,15,18)      =         1.882272	     107.846252
	 B(16,15,17)      =         1.920160	     110.017090
	 B(16,15,18)      =         1.904000	     109.091149
	 B(17,15,18)      =         1.920037	     110.009989
	 D(1,2,3,5)       =         0.000016	       0.000921
	 D(1,2,3,6)       =        -3.141467	    -179.992814
	 D(1,2,4,7)       =        -0.000030	      -0.001703
	 D(1,2,4,8)       =         3.141501	     179.994763
	 D(2,3,6,9)       =         3.141441	     179.991324
	 D(2,3,6,10)      =        -0.000159	      -0.009108
	 D(2,4,8,10)      =         0.000091	       0.005214
	 D(2,4,8,11)      =        -3.141411	    -179.989614
	 D(3,2,4,7)       =        -3.141470	    -179.992945
	 D(3,2,4,8)       =         0.000061	       0.003522
	 D(3,6,10,8)      =         0.000311	       0.017817
	 D(3,6,10,12)     =        -3.141530	    -179.996436
	 D(4,2,3,5)       =         3.141456	     179.992161
	 D(4,2,3,6)       =        -0.000027	      -0.001575
	 D(4,8,10,6)      =        -0.000277	      -0.015846
	 D(4,8,10,12)     =         3.141575	     179.998997
	 D(5,3,6,9)       =        -0.000042	      -0.002423
	 D(5,3,6,10)      =         3.141543	     179.997145
	 D(6,10,8,11)     =         3.141226	     179.979001
	 D(6,10,12,13)    =        -3.137963	    -179.792038
	 D(6,10,12,14)    =        -0.003624	      -0.207642
	 D(7,4,8,10)      =        -3.141563	    -179.998309
	 D(7,4,8,11)      =         0.000120	       0.006862
	 D(8,10,6,9)      =        -3.141289	    -179.982607
	 D(8,10,12,13)    =         0.003375	       0.193378
	 D(8,10,12,14)    =         3.137714	     179.777774
	 D(9,6,10,12)     =         0.000055	       0.003139
	 D(10,12,13,15)   =        -3.128880	    -179.271639
	 D(11,8,10,12)    =        -0.000107	      -0.006155
	*D(12,13,15,16)   =         2.268928	     130.000007
	 D(12,13,15,17)   =         0.157099	       9.001089
	 D(12,13,15,18)   =        -1.976324	    -113.235006
	 D(14,12,13,15)   =         0.020192	       1.156932

	Current energy   :      -457.5072375936

	Energy change for the previous step:
		Projected    :        -0.0059458674
		Actual       :        -0.0010400063
	Energy ratio indicates iffy step: Trust radius decreased to 1.250e-01.


	Performing BFGS update.
	Previous computed or guess Hessian on step 1.
	Steps to be used in Hessian update: 1
	Taking RFO optimization step.
	Going to follow RFO solution 1.
	Using RFO vector 1.
	Norm of target step-size    0.08337
	Projected energy change by RFO approximation:        -0.0013694786

	Back-transformation to cartesian coordinates...
	Could not converge backtransformation.
	Using first guess instead.

	Back-transformation to cartesian coordinates to adjust frozen coordinates...
	Successfully converged to displaced geometry.

	--- Internal Coordinate Step in ANG or DEG, aJ/ANG or AJ/DEG ---
	 ---------------------------------------------------------------------------
	   Coordinate                Previous        Force       Change         New 
	   ----------                --------       ------       ------       ------
	    1 R(1,2)          =      1.073431     0.000213     0.000135     1.073566
	    2 R(2,3)          =      1.383438    -0.001436    -0.000005     1.383432
	    3 R(2,4)          =      1.382102    -0.002572    -0.000093     1.382009
	    4 R(3,5)          =      1.072748     0.000213     0.000128     1.072876
	    5 R(3,6)          =      1.379269     0.001081     0.000224     1.379494
	    6 R(4,7)          =      1.072796     0.000419     0.000136     1.072933
	    7 R(4,8)          =      1.381149     0.002121     0.000319     1.381467
	    8 R(6,9)          =      1.071051    -0.001170    -0.000042     1.071009
	    9 R(6,10)         =      1.386376     0.001724     0.000267     1.386643
	   10 R(8,10)         =      1.385721     0.004289     0.000508     1.386229
	   11 R(8,11)         =      1.070315    -0.002645    -0.000168     1.070147
	   12 R(10,12)        =      1.490318     0.025596     0.003168     1.493486
	   13 R(12,13)        =      1.325130    -0.069593    -0.004268     1.320862
	   14 R(12,14)        =      1.185707    -0.028880    -0.000564     1.185144
	   15 R(13,15)        =      1.419925    -0.046922    -0.003143     1.416782
	   16 R(15,16)        =      1.079227     0.003581     0.001237     1.080464
	   17 R(15,17)        =      1.074615     0.012784     0.004316     1.078931
	   18 R(15,18)        =      1.080440     0.000062     0.000930     1.081370
	   19 B(1,2,3)        =    119.909772     0.000008     0.021555   119.931327
	   20 B(1,2,4)        =    119.890047     0.000008     0.021965   119.912011
	   21 B(2,3,5)        =    120.154832    -0.000009    -0.016594   120.138238
	   22 B(2,3,6)        =    119.880082     0.000013     0.020223   119.900305
	   23 B(2,4,7)        =    120.139543    -0.000008    -0.017745   120.121798
	   24 B(2,4,8)        =    119.994679     0.000007     0.011369   120.006048
	   25 B(3,2,4)        =    120.200181    -0.000016    -0.043520   120.156661
	   26 B(3,6,9)        =    120.866506    -0.000018    -0.036955   120.829550
	   27 B(3,6,10)       =    120.101228     0.000034     0.070194   120.171422
	   28 B(4,8,10)       =    119.944410     0.000033     0.070890   120.015300
	   29 B(4,8,11)       =    120.207588    -0.000029    -0.070576   120.137011
	   30 B(5,3,6)        =    119.965087    -0.000005    -0.003629   119.961457
	   31 B(6,10,8)       =    119.879418    -0.000070    -0.129155   119.750263
	   32 B(6,10,12)      =    118.054432    -0.000045    -0.086304   117.968128
	   33 B(7,4,8)        =    119.865778     0.000001     0.006376   119.872154
	   34 B(8,10,12)      =    122.066148     0.000116     0.215457   122.281606
	   35 B(9,6,10)       =    119.032266    -0.000016    -0.033240   118.999026
	   36 B(10,8,11)      =    119.848002    -0.000004    -0.000316   119.847686
	   37 B(10,12,13)     =    111.951592     0.000427     0.756847   112.708439
	   38 B(10,12,14)     =    122.720172     0.000450     0.801615   123.521787
	   39 B(12,13,15)     =    121.825288    -0.001117    -1.928004   119.897284
	   40 B(13,12,14)     =    125.326794    -0.000877    -1.577454   123.749341
	   41 B(13,15,16)     =    106.071120     0.000373     1.091855   107.162975
	   42 B(13,15,17)     =    113.647346    -0.000739    -2.128535   111.518811
	   43 B(13,15,18)     =    107.846252     0.000145     0.535556   108.381808
	   44 B(16,15,17)     =    110.017090     0.000155     0.130912   110.148001
	   45 B(16,15,18)     =    109.091149    -0.000003     0.490059   109.581208
	   46 B(17,15,18)     =    110.009989     0.000095    -0.029417   109.980572
	   47 D(1,2,3,5)      =      0.000921    -0.000000    -0.002057    -0.001136
	   48 D(1,2,3,6)      =   -179.992814    -0.000000    -0.000867  -179.993681
	   49 D(1,2,4,7)      =     -0.001703     0.000000     0.001703     0.000000
	   50 D(1,2,4,8)      =    179.994763     0.000000     0.006875   180.001638
	   51 D(2,3,6,9)      =    179.991324    -0.000000    -0.007738   179.983587
	   52 D(2,3,6,10)     =     -0.009108     0.000000     0.003641    -0.005467
	   53 D(2,4,8,10)     =      0.005214    -0.000000    -0.015643    -0.010428
	   54 D(2,4,8,11)     =   -179.989614    -0.000000     0.000400  -179.989214
	   55 D(3,2,4,7)      =   -179.992945    -0.000000    -0.001071  -179.994016
	   56 D(3,2,4,8)      =      0.003522     0.000000     0.003566     0.007087
	   57 D(3,6,10,8)     =      0.017817    -0.000000    -0.015694     0.002123
	   58 D(3,6,10,12)    =   -179.996436    -0.000000    -0.020795  -180.017231
	   59 D(4,2,3,5)      =    179.992161     0.000000     0.001253   179.993413
	   60 D(4,2,3,6)      =     -0.001575     0.000000     0.002443     0.000869
	   61 D(4,8,10,6)     =     -0.015846     0.000000     0.021679     0.005833
	   62 D(4,8,10,12)    =    179.998997     0.000000     0.027054   180.026052
	   63 D(5,3,6,9)      =     -0.002423    -0.000000    -0.006548    -0.008971
	   64 D(5,3,6,10)     =    179.997145     0.000000     0.004830   180.001975
	   65 D(6,10,8,11)    =    179.979001     0.000000     0.005679   179.984681
	   66 D(6,10,12,13)   =   -179.792038    -0.000005    -0.948508  -180.740545
	   67 D(6,10,12,14)   =     -0.207642     0.000006     1.058167     0.850525
	   68 D(7,4,8,10)     =   -179.998309    -0.000000    -0.011019  -180.009328
	   69 D(7,4,8,11)     =      0.006862     0.000000     0.005024     0.011886
	   70 D(8,10,6,9)     =   -179.982607    -0.000000    -0.004523  -179.987130
	   71 D(8,10,12,13)   =      0.193378    -0.000005    -0.953799    -0.760420
	   72 D(8,10,12,14)   =    179.777774     0.000005     1.052876   180.830650
	   73 D(9,6,10,12)    =      0.003139    -0.000000    -0.009624    -0.006484
	   74 D(10,12,13,15)  =   -179.271639     0.000003     0.849988  -178.421650
	   75 D(11,8,10,12)   =     -0.006155     0.000000     0.011055     0.004899
	   76 *D(12,13,15,16) =    130.000007    -0.000000     0.000000   130.000007
	   77 D(12,13,15,17)  =      9.001089    -0.000001     0.382761     9.383850
	   78 D(12,13,15,18)  =   -113.235006     0.000059     1.415561  -111.819445
	   79 D(14,12,13,15)  =      1.156932    -0.000009    -1.173863    -0.016931
	 ---------------------------------------------------------------------------

  ==> Convergence Check <==

  Measures of convergence in internal coordinates in au.
  Criteria marked as inactive (o), active & met (*), and active & unmet ( ).
  ---------------------------------------------------------------------------------------------
   Step     Total Energy     Delta E     MAX Force     RMS Force      MAX Disp      RMS Disp   
  ---------------------------------------------------------------------------------------------
[...]
	 O           3.7263060745       -2.0124234424        0.4496294263
	 C           5.9930971071        2.4712616648       -0.3393989176
	 H           6.4297145366        3.5204728818       -2.0334067807
	 H           6.9882233117        0.6982868241       -0.3372269646
	 H           6.5153327977        3.5658577872        1.3030285226
	             0.0000005027        0.0000004859       -0.0000012094
	            -0.0000043724       -0.0000129020        0.0000022061
	            -0.0000224290        0.0000025796        0.0000010492
	             0.0000041206        0.0000004656        0.0000023487
	            -0.0000037473        0.0000012020        0.0000001375
	            -0.0000006646        0.0000071719       -0.0000079708
	            -0.0000037038       -0.0000016555        0.0000009556
	            -0.0000224178        0.0000115839       -0.0000074746
	            -0.0000019758        0.0000045946        0.0000009688
	            -0.0000320751       -0.0000187081        0.0000327270
	            -0.0000098662       -0.0000134028        0.0000032906
	            -0.0000161752       -0.0001210512       -0.0006901293
	             0.0000728398        0.0000144290        0.0008238336
	             0.0000519269        0.0000920768        0.0000140857
	            -0.0001487459        0.0006337121        0.0001772422
	             0.0000795933       -0.0006041291       -0.0003181913
	             0.0000372373        0.0000060667       -0.0000032214
	             0.0000199525       -0.0000025193       -0.0000306483

	---Fragment 1 Intrafragment Coordinates---
	 - Coordinate -           - BOHR/RAD -       - ANG/DEG -
	 R(1,2)           =         2.028500	       1.073436
	 R(2,3)           =         2.614210	       1.383380
	 R(2,4)           =         2.611527	       1.381961
	 R(3,5)           =         2.027239	       1.072769
	 R(3,6)           =         2.606542	       1.379323
	 R(4,7)           =         2.027354	       1.072830
	 R(4,8)           =         2.610239	       1.381279
	 R(6,9)           =         2.023880	       1.070991
	 R(6,10)          =         2.620048	       1.386470
	 R(8,10)          =         2.618746	       1.385781
	 R(8,11)          =         2.022395	       1.070205
	 R(10,12)         =         2.820247	       1.492411
	 R(12,13)         =         2.495659	       1.320646
	 R(12,14)         =         2.239148	       1.184906
	 R(13,15)         =         2.674742	       1.415413
	 R(15,16)         =         2.039888	       1.079462
	 R(15,17)         =         2.033155	       1.075900
	 R(15,18)         =         2.041675	       1.080408
	 B(1,2,3)         =         2.093111	     119.926434
	 B(1,2,4)         =         2.092734	     119.904798
	 B(2,3,5)         =         2.096994	     120.148884
	 B(2,3,6)         =         2.092487	     119.890692
	 B(2,4,7)         =         2.096741	     120.134406
	 B(2,4,8)         =         2.094511	     120.006636
	 B(3,2,4)         =         2.097341	     120.168768
	 B(3,6,9)         =         2.109133	     120.844423
	 B(3,6,10)        =         2.096903	     120.143669
	 B(4,8,10)        =         2.094128	     119.984696
	 B(4,8,11)        =         2.097125	     120.156411
	 B(5,3,6)         =         2.093704	     119.960425
	 B(6,10,8)        =         2.091001	     119.805538
	 B(6,10,12)       =         2.059314	     117.989982
	 B(7,4,8)         =         2.091933	     119.858958
	 B(8,10,12)       =         2.132871	     122.204479
	 B(9,6,10)        =         2.077150	     119.011908
	 B(10,8,11)       =         2.091932	     119.858892
	 B(10,12,13)      =         1.966104	     112.649458
	 B(10,12,14)      =         2.154420	     123.439193
	 B(12,13,15)      =         2.086523	     119.548946
	 B(13,12,14)      =         2.162660	     123.911312
	 B(13,15,16)      =         1.874327	     107.391004
	 B(13,15,17)      =         1.936521	     110.954481
	 B(13,15,18)      =         1.895224	     108.588348
	 B(16,15,17)      =         1.922665	     110.160588
	 B(16,15,18)      =         1.915104	     109.727398
	 B(17,15,18)      =         1.919271	     109.966121
	 D(1,2,3,5)       =        -0.000022	      -0.001287
	 D(1,2,3,6)       =        -3.141536	    -179.996764
	 D(1,2,4,7)       =         0.000019	       0.001061
	 D(1,2,4,8)       =         3.141593	     180.000000
	 D(2,3,6,9)       =         3.141439	     179.991174
	 D(2,3,6,10)      =        -0.000108	      -0.006193
	 D(2,4,8,10)      =        -0.000023	      -0.001306
	 D(2,4,8,11)      =        -3.141434	    -179.990903
	 D(3,2,4,7)       =        -3.141488	    -179.994009
	 D(3,2,4,8)       =         0.000095	       0.005448
	 D(3,6,10,8)      =         0.000180	       0.010306
	 D(3,6,10,12)     =        -3.141438	    -179.991126
	 D(4,2,3,5)       =         3.141484	     179.993783
	 D(4,2,3,6)       =        -0.000030	      -0.001695
	 D(4,8,10,6)      =        -0.000114	      -0.006541
	 D(4,8,10,12)     =         3.141505	     179.994953
	 D(5,3,6,9)       =        -0.000075	      -0.004312
	 D(5,3,6,10)      =         3.141563	     179.998321
	 D(6,10,8,11)     =         3.141297	     179.983087
	 D(6,10,12,13)    =        -3.139528	    -179.881723
	 D(6,10,12,14)    =         0.000886	       0.050768
	 D(7,4,8,10)      =         3.141560	     179.998153
	 D(7,4,8,11)      =         0.000149	       0.008556
	 D(8,10,6,9)      =        -3.141368	    -179.987109
	 D(8,10,12,13)    =         0.002039	       0.116809
	 D(8,10,12,14)    =        -3.140732	    -179.950700
	 D(9,6,10,12)     =         0.000200	       0.011459
	 D(10,12,13,15)   =        -3.129664	    -179.316566
	 D(11,8,10,12)    =        -0.000269	      -0.015419
	*D(12,13,15,16)   =         2.268928	     130.000007
	 D(12,13,15,17)   =         0.166798	       9.556840
	 D(12,13,15,18)   =        -1.944495	    -111.411350
	 D(14,12,13,15)   =         0.013113	       0.751315

	Current energy   :      -457.5082019846

	Energy change for the previous step:
		Projected    :        -0.0000172291
		Actual       :        -0.0000076799

	Performing BFGS update.
	Previous computed or guess Hessian on step 1.
	Steps to be used in Hessian update: 5 4
	Taking RFO optimization step.
	Going to follow RFO solution 1.
	Using RFO vector 1.
	Norm of target step-size    0.00115
	Projected energy change by RFO approximation:        -0.0000003774

	Back-transformation to cartesian coordinates...
	Successfully converged to displaced geometry.

	Back-transformation to cartesian coordinates to adjust frozen coordinates...
	Successfully converged to displaced geometry.

	--- Internal Coordinate Step in ANG or DEG, aJ/ANG or AJ/DEG ---
	 ---------------------------------------------------------------------------
	   Coordinate                Previous        Force       Change         New 
	   ----------                --------       ------       ------       ------
	    1 R(1,2)          =      1.073436     0.000004     0.000003     1.073439
	    2 R(2,3)          =      1.383380     0.000138     0.000018     1.383398
	    3 R(2,4)          =      1.381961     0.000001    -0.000002     1.381959
	    4 R(3,5)          =      1.072769    -0.000005     0.000001     1.072769
	    5 R(3,6)          =      1.379323    -0.000182    -0.000018     1.379305
	    6 R(4,7)          =      1.072830    -0.000004     0.000001     1.072831
	    7 R(4,8)          =      1.381279    -0.000067    -0.000002     1.381277
	    8 R(6,9)          =      1.070991     0.000039     0.000005     1.070996
	    9 R(6,10)         =      1.386470    -0.000093    -0.000007     1.386463
	   10 R(8,10)         =      1.385781    -0.000198    -0.000013     1.385767
	   11 R(8,11)         =      1.070205     0.000138     0.000017     1.070223
	   12 R(10,12)        =      1.492411    -0.000796    -0.000097     1.492313
	   13 R(12,13)        =      1.320646     0.000302     0.000009     1.320655
	   14 R(12,14)        =      1.184906     0.000347     0.000012     1.184918
	   15 R(13,15)        =      1.415413     0.000036     0.000005     1.415418
	   16 R(15,16)        =      1.079462     0.000243     0.000052     1.079514
	   17 R(15,17)        =      1.075900    -0.000107     0.000030     1.075929
	   18 R(15,18)        =      1.080408     0.000172     0.000040     1.080449
	   19 B(1,2,3)        =    119.926434    -0.000000    -0.000917   119.925517
	   20 B(1,2,4)        =    119.904798    -0.000000    -0.000500   119.904298
	   21 B(2,3,5)        =    120.148884     0.000000     0.000697   120.149580
	   22 B(2,3,6)        =    119.890692    -0.000000     0.000646   119.891338
	   23 B(2,4,7)        =    120.134406     0.000001     0.001794   120.136200
	   24 B(2,4,8)        =    120.006636    -0.000001    -0.001824   120.004812
	   25 B(3,2,4)        =    120.168768     0.000000     0.001417   120.170185
	   26 B(3,6,9)        =    120.844423     0.000001     0.001531   120.845954
	   27 B(3,6,10)       =    120.143669    -0.000001    -0.003519   120.140150
	   28 B(4,8,10)       =    119.984696    -0.000001    -0.001234   119.983462
	   29 B(4,8,11)       =    120.156411     0.000001     0.001121   120.157532
	   30 B(5,3,6)        =    119.960425    -0.000000    -0.001343   119.959082
	   31 B(6,10,8)       =    119.805538     0.000003     0.004513   119.810051
	   32 B(6,10,12)      =    117.989982     0.000001     0.001023   117.991005
	   33 B(7,4,8)        =    119.858958     0.000000     0.000029   119.858987
	   34 B(8,10,12)      =    122.204479    -0.000003    -0.005535   122.198944
	   35 B(9,6,10)       =    119.011908     0.000001     0.001988   119.013896
	   36 B(10,8,11)      =    119.858892     0.000000     0.000113   119.859005
	   37 B(10,12,13)     =    112.649458    -0.000011    -0.022586   112.626872
	   38 B(10,12,14)     =    123.439193    -0.000003    -0.000883   123.438310
	   39 B(12,13,15)     =    119.548946     0.000007     0.015142   119.564088
	   40 B(13,12,14)     =    123.911312     0.000013     0.023494   123.934806
	   41 B(13,15,16)     =    107.391004     0.000001     0.003703   107.394707
	   42 B(13,15,17)     =    110.954481    -0.000004    -0.015212   110.939270
	   43 B(13,15,18)     =    108.588348    -0.000003    -0.012544   108.575804
	   44 B(16,15,17)     =    110.160588     0.000002     0.006668   110.167256
	   45 B(16,15,18)     =    109.727398     0.000002     0.012283   109.739681
	   46 B(17,15,18)     =    109.966121     0.000002     0.005032   109.971153
	   47 D(1,2,3,5)      =     -0.001287     0.000000     0.001287     0.000000
	   48 D(1,2,3,6)      =   -179.996764     0.000000     0.001661  -179.995103
	   49 D(1,2,4,7)      =      0.001061    -0.000000    -0.001061     0.000000
	   50 D(1,2,4,8)      =    180.000000    -0.000000    -0.001571   179.998429
	   51 D(2,3,6,9)      =    179.991174     0.000000     0.003193   179.994367
	   52 D(2,3,6,10)     =     -0.006193    -0.000000    -0.002962    -0.009155
	   53 D(2,4,8,10)     =     -0.001306     0.000000     0.003814     0.002508
	   54 D(2,4,8,11)     =   -179.990903    -0.000000    -0.001684  -179.992587
	   55 D(3,2,4,7)      =   -179.994009    -0.000000    -0.001366  -179.995375
	   56 D(3,2,4,8)      =      0.005448    -0.000000    -0.001690     0.003758
	   57 D(3,6,10,8)     =      0.010306     0.000000     0.005080     0.015385
	   58 D(3,6,10,12)    =   -179.991126     0.000000     0.005464  -179.985662
	   59 D(4,2,3,5)      =    179.993783     0.000000     0.001371   179.995153
	   60 D(4,2,3,6)      =     -0.001695     0.000000     0.001695     0.000000
	   61 D(4,8,10,6)     =     -0.006541    -0.000000    -0.005499    -0.012040
	   62 D(4,8,10,12)    =    179.994953    -0.000000    -0.005900   179.989053
	   63 D(5,3,6,9)      =     -0.004312     0.000000     0.003084    -0.001228
	   64 D(5,3,6,10)     =    179.998321    -0.000000    -0.003071   179.995250
	   65 D(6,10,8,11)    =    179.983087     0.000000    -0.000018   179.983070
	   66 D(6,10,12,13)   =   -179.881723    -0.000000    -0.009917  -179.891640
	   67 D(6,10,12,14)   =      0.050768     0.000000     0.018067     0.068834
	   68 D(7,4,8,10)     =    179.998153     0.000000     0.003491   180.001644
	   69 D(7,4,8,11)     =      0.008556    -0.000000    -0.002007     0.006549
	   70 D(8,10,6,9)     =   -179.987109    -0.000000    -0.000963  -179.988072
	   71 D(8,10,12,13)   =      0.116809    -0.000000    -0.009523     0.107286
	   72 D(8,10,12,14)   =   -179.950700     0.000000     0.018461  -179.932239
	   73 D(9,6,10,12)    =      0.011459    -0.000000    -0.000578     0.010881
	   74 D(10,12,13,15)  =   -179.316566     0.000000     0.031214  -179.285352
	   75 D(11,8,10,12)   =     -0.015419     0.000000    -0.000419    -0.015837
	   76 *D(12,13,15,16) =    130.000007    -0.000000     0.000000   130.000007
	   77 D(12,13,15,17)  =      9.556840    -0.000000    -0.001523     9.555317
	   78 D(12,13,15,18)  =   -111.411350     0.000000     0.009834  -111.401516
	   79 D(14,12,13,15)  =      0.751315    -0.000000     0.003087     0.754402
	 ---------------------------------------------------------------------------

  ==> Convergence Check <==

  Measures of convergence in internal coordinates in au.
  Criteria marked as inactive (o), active & met (*), and active & unmet ( ).
  ---------------------------------------------------------------------------------------------
   Step     Total Energy     Delta E     MAX Force     RMS Force      MAX Disp      RMS Disp   
  ---------------------------------------------------------------------------------------------
    Convergence Criteria    1.00e-06 *    3.00e-04 *             o    1.20e-03 *             o
  ---------------------------------------------------------------------------------------------
      6    -457.50820198   -7.68e-06      1.75e-04 *    3.35e-05 o    5.45e-04 *    1.29e-04 o  ~
  ---------------------------------------------------------------------------------------------


  **** Optimization is complete! (in 6 steps) ****

  ==> Optimization Summary <==

  Measures of convergence in internal coordinates in au.
  --------------------------------------------------------------------------------------------------------------- ~
   Step         Total Energy             Delta E       MAX Force       RMS Force        MAX Disp        RMS Disp  ~
  --------------------------------------------------------------------------------------------------------------- ~
      1    -457.506197587339   -457.506197587339      0.02095029      0.00409457      0.13488615      0.02328719  ~
      2    -457.507237593593     -0.001040006254      0.01468422      0.00295067      0.03714994      0.00937131  ~
      3    -457.508112350246     -0.000874756653      0.00222990      0.00063975      0.05242591      0.01405393  ~
      4    -457.507828983555      0.000283366691      0.00332214      0.00097094      0.03656962      0.01013590  ~
      5    -457.508194304707     -0.000365321152      0.00121528      0.00026521      0.00420914      0.00091802  ~
      6    -457.508201984607     -0.000007679900      0.00017488      0.00003355      0.00054479      0.00012938  ~
  --------------------------------------------------------------------------------------------------------------- ~

	Writing optimization data to binary file.
	Final energy is   -457.5082019846069
	Final (previous) structure:
	Cartesian Geometry (in Angstrom)
	    H    -4.0274665902  -0.4067765795  -0.0133464015
	    C    -2.9563787177  -0.3366435199  -0.0025164220
	    C    -2.1928642300  -1.4684302739   0.2207440590
	    C    -2.3437099136   0.8843157446  -0.2115864855
	    H    -2.6687937754  -2.4160398108   0.3831002053
	    C    -0.8166141888  -1.3774553544   0.2345713432
	    H    -2.9363638247   1.7616969926  -0.3845802526
	    C    -0.9656079842   0.9769696416  -0.1981040452
	    H    -0.2107375954  -2.2437807342   0.4060838955
	    C    -0.1975418228  -0.1546764638   0.0251432994
	    H    -0.4886484256   1.9213063326  -0.3595891888
	    C     1.2940337852  -0.1113991021   0.0500159075
	    O     1.7711479037   1.1022999396  -0.1583163918
	    O     1.9718763974  -1.0649287010   0.2379336629
	    C     3.1714106401   1.3077354494  -0.1796021855
	    H     3.4024586504   1.8629541548  -1.0760326063
	    H     3.6980087875   0.3695175006  -0.1784528374
	    H     3.4477658862   1.8869708141   0.6895330489
	Saving final (previous) structure.
			--------------------------
			 OPTKING Finished Execution 
			--------------------------

    Final optimized geometry and variables:
    Molecular point group: c1
    Full point group: C1

    Geometry (in Angstrom), charge = 0, multiplicity = 1:

    H           -4.027466282674    -0.406776548474    -0.013346400496
    C           -2.956378491917    -0.336643494242    -0.002516421852
    C           -2.192864062505    -1.468430161782     0.220744042187
    C           -2.343709734643     0.884315677061    -0.211586469365
    H           -2.668793571588    -2.416039626252     0.383100176017
    C           -0.816614126483    -1.377455249206     0.234571325271
    H           -2.936363600450     1.761696858024    -0.384580223268
    C           -0.965607910491     0.976969566958    -0.198104030096
    H           -0.210737579323    -2.243780562815     0.406083864494
    C           -0.197541807676    -0.154676451995     0.025143297452
    H           -0.488648388329     1.921306185838    -0.359589161344
    C            1.294033686426    -0.111399093562     0.050015903700
    O            1.771147768413     1.102299855423    -0.158316379734
    O            1.971876246861    -1.064928619727     0.237933644719
    C            3.171410397947     1.307735349487    -0.179602171821
    H            3.402458390527     1.862954012504    -1.076032524151
    H            3.698008505092     0.369517472356    -0.178452823763
    H            3.447765622941     1.886970670043     0.689532996284

	Cleaning optimization helper files.


Properties will be evaluated at   0.000000,   0.000000,   0.000000 Bohr

Properties computed using the  density matrix

  Nuclear Dipole Moment: (a.u.)
     X:     0.2207      Y:     2.5650      Z:    -0.4996

  Electronic Dipole Moment: (a.u.)
     X:    -0.6219      Y:    -1.8510      Z:     0.3486

  Dipole Moment: (a.u.)
     X:    -0.4012      Y:     0.7139      Z:    -0.1510     Total:     0.8327

  Dipole Moment: (Debye)
     X:    -1.0197      Y:     1.8146      Z:    -0.3837     Total:     2.1165

  Quadrupole Moment: (Debye Ang)
    XX:   -49.2301     YY:   -55.5154     ZZ:   -60.7106
    XY:     7.0079     XZ:    -1.1266     YZ:    -0.8627

  Traceless Quadrupole Moment: (Debye Ang)
    XX:     5.9219     YY:    -0.3633     ZZ:    -5.5585
    XY:     7.0079     XZ:    -1.1266     YZ:    -0.8627

  Mulliken Charges: (a.u.)
   Center  Symbol    Alpha    Beta     Spin     Total
       1     H     0.42034  0.42034  0.00000  0.15931
       2     C     3.06971  3.06971  0.00000 -0.13943
       3     C     3.07554  3.07554  0.00000 -0.15108
       4     C     3.07481  3.07481  0.00000 -0.14961
       5     H     0.42049  0.42049  0.00000  0.15902
       6     C     3.07597  3.07597  0.00000 -0.15194
       7     H     0.42199  0.42199  0.00000  0.15602
       8     C     3.08188  3.08188  0.00000 -0.16375
       9     H     0.40635  0.40635  0.00000  0.18729
      10     C     3.01867  3.01867  0.00000 -0.03734
      11     H     0.41123  0.41123  0.00000  0.17753
      12     C     2.77439  2.77439  0.00000  0.45123
      13     O     4.15024  4.15024  0.00000 -0.30049
      14     O     4.21144  4.21144  0.00000 -0.42288
      15     C     3.04245  3.04245  0.00000 -0.08490
      16     H     0.45098  0.45098  0.00000  0.09803
      17     H     0.43989  0.43989  0.00000  0.12022
      18     H     0.45362  0.45362  0.00000  0.09276

   Total alpha = 36.00000, Total beta = 36.00000, Total charge =  0.00000


*** PSI4 exiting successfully. Buy a developer a beer!
