    -----------------------------------------------------------------------
          Psi4: An Open-Source Ab Initio Electronic Structure Package
                              Psi4 (no tag) Driver

                          Git: Rev {detached?}  

    J. M. Turney, A. C. Simmonett, R. M. Parrish, E. G. Hohenstein,
    F. A. Evangelista, J. T. Fermann, B. J. Mintz, L. A. Burns, J. J. Wilke,
    M. L. Abrams, N. J. Russ, M. L. Leininger, C. L. Janssen, E. T. Seidl,
    W. D. Allen, H. F. Schaefer, R. A. King, E. F. Valeev, C. D. Sherrill,
    and T. D. Crawford, WIREs Comput. Mol. Sci. 2, 556-565 (2012)
    (doi: 10.1002/wcms.93)

                         Additional Contributions by
    A. E. DePrince, M. Saitow, U. Bozkaya, A. Yu. Sokolov
    -----------------------------------------------------------------------


    Psi4 started on: Fri Sep  2 12:52:52 2016

    Process ID:   6904
    PSI4DATADIR: /export131/home/mjharvey/miniconda3/share
    Memory level set to 256.000 MB

  ==> Input File <==

--------------------------------------------------------------------------
set {
	reference rhf
	basis 6-31G*
}


set_num_threads( 4 )
memory 2 gb

molecule MOL {
0 1

O	 1.439763	 0.933529	 0.808025
C	 1.122059	 0.121804	 -0.000188
C	 -0.170150	 -0.657997	 -0.000612
O	 1.884790	 -0.211395	 -1.033724
C	 -1.412532	 0.227344	 -0.000452
H	 -0.153702	 -1.313099	 -0.867402
H	 -0.153924	 -1.313811	 0.865644
C	 -2.706999	 -0.587347	 -0.000541
H	 -1.388000	 0.879466	 -0.868000
H	 -1.387972	 0.879138	 0.867341
C	 -3.956778	 0.291888	 0.000910
H	 -2.726114	 -1.239230	 -0.871609
H	 -2.725217	 -1.240844	 0.869333
H	 -3.985213	 0.933254	 -0.875158
H	 -4.860123	 -0.309979	 0.000519
H	 -3.984618	 0.931166	 0.878514
C	 3.131343	 0.449841	 -1.152091
H	 2.987835	 1.515887	 -1.254264
H	 3.595345	 0.048240	 -2.039428
H	 3.748139	 0.255836	 -0.286393

	symmetry c1
}
set optking {
	frozen_dihedral = ("
		1 2 3 6
	")
}

ee = optimize('scf')
oeprop('DIPOLE', 'QUADRUPOLE', 'MULLIKEN_CHARGES')
f=open( 'psi4out.xyz', 'w' )
f.write( "20  " )
f.write( str(ee) + "\n" )
f.write( MOL.save_string_xyz() )
f.close()
--------------------------------------------------------------------------

  Memory set to   2.000 GiB by Python script.
gradient() will perform analytic gradient computation.

*** tstart() called on cx1-1-2-3.cx1.hpc.ic.ac.uk
*** at Fri Sep  2 12:52:53 2016


         ---------------------------------------------------------
                                   SCF
            by Justin Turney, Rob Parrish, and Andy Simmonett
                              RHF Reference
                        4 Threads,   2000 MiB Core
         ---------------------------------------------------------

  ==> Geometry <==

    Molecular point group: c1
    Full point group: C1

    Geometry (in Angstrom), charge = 0, multiplicity = 1:

       Center              X                  Y                   Z               Mass       
    ------------   -----------------  -----------------  -----------------  -----------------
           O          1.490249356942     0.849769670902     0.989399667955    15.994914619560
           C          1.172545356942     0.038044670902     0.181186667955    12.000000000000
           C         -0.119663643058    -0.741756329098     0.180762667955    12.000000000000
           O          1.935276356942    -0.295154329098    -0.852349332045    15.994914619560
           C         -1.362045643058     0.143584670902     0.180922667955    12.000000000000
           H         -0.103215643058    -1.396858329098    -0.686027332045     1.007825032070
           H         -0.103437643058    -1.397570329098     1.047018667955     1.007825032070
           C         -2.656512643058    -0.671106329098     0.180833667955    12.000000000000
           H         -1.337513643058     0.795706670902    -0.686625332045     1.007825032070
           H         -1.337485643058     0.795378670902     1.048715667955     1.007825032070
           C         -3.906291643058     0.208128670902     0.182284667955    12.000000000000
           H         -2.675627643058    -1.322989329098    -0.690234332045     1.007825032070
           H         -2.674730643058    -1.324603329098     1.050707667955     1.007825032070
           H         -3.934726643058     0.849494670902    -0.693783332045     1.007825032070
           H         -4.809636643058    -0.393738329098     0.181893667955     1.007825032070
           H         -3.934131643058     0.847406670902     1.059888667955     1.007825032070
           C          3.181829356942     0.366081670902    -0.970716332045    12.000000000000
           H          3.038321356942     1.432127670902    -1.072889332045     1.007825032070
           H          3.645831356942    -0.035519329098    -1.858053332045     1.007825032070
           H          3.798625356942     0.172076670902    -0.105018332045     1.007825032070

  Running in c1 symmetry.

  Rotational constants: A =      0.20905  B =      0.02514  C =      0.02413 [cm^-1]
  Rotational constants: A =   6267.30769  B =    753.82525  C =    723.35889 [MHz]
  Nuclear repulsion =  381.387389964416911

  Charge       = 0
  Multiplicity = 1
  Electrons    = 64
  Nalpha       = 32
  Nbeta        = 32

  ==> Algorithm <==

  SCF Algorithm Type is DF.
  DIIS enabled.
  MOM disabled.
  Fractional occupation disabled.
  Guess Type is CORE.
  Energy threshold   = 1.00e-08
  Density threshold  = 1.00e-08
  Integral threshold = 0.00e+00

  ==> Primary Basis <==

  Basis Set: 6-31G*
    Number of shells: 72
    Number of basis function: 144
    Number of Cartesian functions: 144
    Spherical Harmonics?: false
    Max angular momentum: 2

  ==> Pre-Iterations <==

   -------------------------------------------------------
    Irrep   Nso     Nmo     Nalpha   Nbeta   Ndocc  Nsocc
   -------------------------------------------------------
     A        144     144       0       0       0       0
   -------------------------------------------------------
    Total     144     144      32      32      32       0
   -------------------------------------------------------

 OEINTS: Overlap, kinetic, potential, dipole, and quadrupole integrals
         stored in file 35.

  ==> Integral Setup <==

  ==> DFJK: Density-Fitted J/K Matrices <==

    J tasked:                  Yes
    K tasked:                  Yes
    wK tasked:                  No
    OpenMP threads:              4
    Integrals threads:           4
    Memory (MB):              1430
    Algorithm:                Core
    Integral Cache:           NONE
    Schwarz Cutoff:          1E-12
    Fitting Condition:       1E-12

   => Auxiliary Basis Set <=

  Basis Set: 
    Number of shells: 300
    Number of basis function: 948
    Number of Cartesian functions: 948
    Spherical Harmonics?: false
    Max angular momentum: 3

  Minimum eigenvalue in the overlap matrix is 2.6854463229E-03.
  Using Symmetric Orthogonalization.
  SCF Guess: Core (One-Electron) Hamiltonian.

  ==> Iterations <==

                           Total Energy        Delta E     RMS |[F,P]|

   @DF-RHF iter   1:  -249.59407986187750   -2.49594e+02   7.40124e-02 
   @DF-RHF iter   2:   -12.73563679946119    2.36858e+02   8.64843e-02 DIIS
   @DF-RHF iter   3:  -203.20523338042756   -1.90470e+02   7.49878e-02 DIIS
   @DF-RHF iter   4:  -281.71679214742517   -7.85116e+01   6.40474e-02 DIIS
   @DF-RHF iter   5:  -359.18626431540122   -7.74695e+01   3.65348e-02 DIIS
   @DF-RHF iter   6:  -367.93940227329824   -8.75314e+00   2.87222e-02 DIIS
   @DF-RHF iter   7:  -383.64820472684630   -1.57088e+01   5.18798e-03 DIIS
   @DF-RHF iter   8:  -383.89350086946035   -2.45296e-01   1.98494e-03 DIIS
   @DF-RHF iter   9:  -383.93136574295750   -3.78649e-02   7.14845e-04 DIIS
   @DF-RHF iter  10:  -383.93874250809642   -7.37677e-03   2.21698e-04 DIIS
   @DF-RHF iter  11:  -383.93947678978350   -7.34282e-04   7.35801e-05 DIIS
   @DF-RHF iter  12:  -383.93956968993871   -9.29002e-05   2.60188e-05 DIIS
   @DF-RHF iter  13:  -383.93957967642393   -9.98649e-06   1.04437e-05 DIIS
   @DF-RHF iter  14:  -383.93958138782898   -1.71141e-06   3.05834e-06 DIIS
   @DF-RHF iter  15:  -383.93958159990689   -2.12078e-07   9.52480e-07 DIIS
   @DF-RHF iter  16:  -383.93958162310776   -2.32009e-08   2.83169e-07 DIIS
   @DF-RHF iter  17:  -383.93958162533841   -2.23065e-09   8.84935e-08 DIIS
   @DF-RHF iter  18:  -383.93958162558545   -2.47041e-10   3.66217e-08 DIIS
   @DF-RHF iter  19:  -383.93958162562501   -3.95630e-11   1.36772e-08 DIIS
   @DF-RHF iter  20:  -383.93958162563138   -6.36646e-12   4.84628e-09 DIIS

  ==> Post-Iterations <==

    Orbital Energies (a.u.)
    -----------------------

    Doubly Occupied:                                                      

       1A    -20.605197     2A    -20.543449     3A    -11.371710  
       4A    -11.280415     5A    -11.233719     6A    -11.226371  
       7A    -11.223109     8A    -11.213000     9A     -1.469286  
      10A     -1.361944    11A     -1.091516    12A     -1.025138  
      13A     -0.969184    14A     -0.888177    15A     -0.806806  
      16A     -0.771342    17A     -0.694460    18A     -0.681108  
      19A     -0.672533    20A     -0.646335    21A     -0.599313  
      22A     -0.592042    23A     -0.574433    24A     -0.551393  
      25A     -0.534568    26A     -0.523400    27A     -0.502678  
      28A     -0.481330    29A     -0.478948    30A     -0.472557  
      31A     -0.454533    32A     -0.432454  

    Virtual:                                                              

      33A      0.193888    34A      0.233799    35A      0.257277  
      36A      0.268394    37A      0.274797    38A      0.289584  
      39A      0.309370    40A      0.320083    41A      0.326443  
      42A      0.329799    43A      0.333059    44A      0.338493  
      45A      0.344332    46A      0.360075    47A      0.389792  
      48A      0.412151    49A      0.452381    50A      0.478478  
      51A      0.530623    52A      0.579400    53A      0.705767  
      54A      0.724413    55A      0.736001    56A      0.745732  
      57A      0.751201    58A      0.753655    59A      0.775878  
      60A      0.806370    61A      0.843087    62A      0.851845  
      63A      0.903682    64A      0.947289    65A      0.953483  
      66A      0.976772    67A      1.005392    68A      1.018056  
      69A      1.077076    70A      1.097834    71A      1.110813  
      72A      1.116754    73A      1.130592    74A      1.133472  
      75A      1.138099    76A      1.175980    77A      1.182648  
      78A      1.199077    79A      1.200773    80A      1.212704  
      81A      1.215153    82A      1.227742    83A      1.232978  
      84A      1.262944    85A      1.288589    86A      1.336637  
      87A      1.364484    88A      1.396452    89A      1.410666  
      90A      1.510856    91A      1.534901    92A      1.636250  
      93A      1.651726    94A      1.687491    95A      1.743129  
      96A      1.761697    97A      1.802594    98A      1.833531  
      99A      1.923661   100A      1.953848   101A      1.991813  
     102A      2.030351   103A      2.095651   104A      2.112562  
     105A      2.144967   106A      2.175085   107A      2.209854  
     108A      2.235939   109A      2.239033   110A      2.280634  
     111A      2.291521   112A      2.324120   113A      2.355962  
     114A      2.382196   115A      2.404687   116A      2.446119  
     117A      2.475635   118A      2.549036   119A      2.599021  
     120A      2.629808   121A      2.655365   122A      2.676413  
     123A      2.692697   124A      2.734241   125A      2.760445  
     126A      2.795898   127A      2.853387   128A      2.903702  
     129A      2.931427   130A      3.041671   131A      3.062586  
     132A      3.140733   133A      3.169030   134A      3.352249  
     135A      3.420759   136A      3.557970   137A      4.437989  
     138A      4.542454   139A      4.630926   140A      4.666358  
     141A      4.697515   142A      4.775822   143A      4.904664  
     144A      5.024169  

    Final Occupation by Irrep:
              A 
    DOCC [    32 ]

  Energy converged.

  @DF-RHF Final Energy:  -383.93958162563138

   => Energetics <=

    Nuclear Repulsion Energy =            381.3873899644169114
    One-Electron Energy =               -1278.7090503430374611
    Two-Electron Energy =                 513.3820787529891732
    DFT Exchange-Correlation Energy =       0.0000000000000000
    Empirical Dispersion Energy =           0.0000000000000000
    PCM Polarization Energy =               0.0000000000000000
    EFP Energy =                            0.0000000000000000
    Total Energy =                       -383.9395816256313765

    Alert: EFP and PCM quantities not currently incorporated into SCF psivars.

Properties will be evaluated at   0.000000,   0.000000,   0.000000 Bohr
  ==> Properties <==


Properties computed using the SCF density matrix

  Nuclear Dipole Moment: (a.u.)
     X:    -9.7592      Y:    -0.9152      Z:    -1.3159

  Electronic Dipole Moment: (a.u.)
     X:     9.6863      Y:     0.4819      Z:     0.7326

  Dipole Moment: (a.u.)
     X:    -0.0729      Y:    -0.4333      Z:    -0.5833     Total:     0.7303

  Dipole Moment: (Debye)
     X:    -0.1854      Y:    -1.1013      Z:    -1.4827     Total:     1.8562


  Saving occupied orbitals to File 180.

*** tstop() called on cx1-1-2-3.cx1.hpc.ic.ac.uk at Fri Sep  2 12:53:00 2016
Module time:
	user time   =      23.05 seconds =       0.38 minutes
	system time =       0.33 seconds =       0.01 minutes
	total time  =          7 seconds =       0.12 minutes
Total time:
	user time   =      23.05 seconds =       0.38 minutes
	system time =       0.33 seconds =       0.01 minutes
	total time  =          7 seconds =       0.12 minutes

*** tstart() called on cx1-1-2-3.cx1.hpc.ic.ac.uk
*** at Fri Sep  2 12:53:00 2016


         ------------------------------------------------------------
                                   SCF GRAD                          
                          Rob Parrish, Justin Turney,                
                       Andy Simmonett, and Alex Sokolov              
         ------------------------------------------------------------

  ==> Geometry <==

    Molecular point group: c1
    Full point group: C1

    Geometry (in Angstrom), charge = 0, multiplicity = 1:

       Center              X                  Y                   Z               Mass       
    ------------   -----------------  -----------------  -----------------  -----------------
           O          1.490249356942     0.849769670902     0.989399667955    15.994914619560
           C          1.172545356942     0.038044670902     0.181186667955    12.000000000000
           C         -0.119663643058    -0.741756329098     0.180762667955    12.000000000000
           O          1.935276356942    -0.295154329098    -0.852349332045    15.994914619560
           C         -1.362045643058     0.143584670902     0.180922667955    12.000000000000
           H         -0.103215643058    -1.396858329098    -0.686027332045     1.007825032070
           H         -0.103437643058    -1.397570329098     1.047018667955     1.007825032070
           C         -2.656512643058    -0.671106329098     0.180833667955    12.000000000000
           H         -1.337513643058     0.795706670902    -0.686625332045     1.007825032070
           H         -1.337485643058     0.795378670902     1.048715667955     1.007825032070
           C         -3.906291643058     0.208128670902     0.182284667955    12.000000000000
           H         -2.675627643058    -1.322989329098    -0.690234332045     1.007825032070
           H         -2.674730643058    -1.324603329098     1.050707667955     1.007825032070
           H         -3.934726643058     0.849494670902    -0.693783332045     1.007825032070
           H         -4.809636643058    -0.393738329098     0.181893667955     1.007825032070
           H         -3.934131643058     0.847406670902     1.059888667955     1.007825032070
           C          3.181829356942     0.366081670902    -0.970716332045    12.000000000000
           H          3.038321356942     1.432127670902    -1.072889332045     1.007825032070
           H          3.645831356942    -0.035519329098    -1.858053332045     1.007825032070
           H          3.798625356942     0.172076670902    -0.105018332045     1.007825032070

  Nuclear repulsion =  381.387389964416968

  ==> Basis Set <==

  Basis Set: 6-31G*
    Number of shells: 72
    Number of basis function: 144
    Number of Cartesian functions: 144
    Spherical Harmonics?: false
    Max angular momentum: 2

  ==> DFJKGrad: Density-Fitted SCF Gradients <==

    Gradient:                    1
    J tasked:                  Yes
    K tasked:                  Yes
    wK tasked:                  No
    OpenMP threads:              4
    Integrals threads:           4
    Memory (MB):              1430
    Schwarz Cutoff:          0E+00
    Fitting Condition:       1E-12

   => Auxiliary Basis Set <=

  Basis Set: 
    Number of shells: 300
    Number of basis function: 948
    Number of Cartesian functions: 948
    Spherical Harmonics?: false
    Max angular momentum: 3


  -Total Gradient:
     Atom            X                  Y                   Z
    ------   -----------------  -----------------  -----------------
       1        0.001412680956    -0.000686734801    -0.001053802775
       2        0.000100191132     0.000382890124     0.002297120582
       3       -0.004513215473     0.009697554722     0.005310033777
       4       -0.001927526318    -0.001494622344    -0.000700231731
       5        0.000977731397    -0.002055818362    -0.004163555948
       6        0.002820874294    -0.002531055435    -0.000984656612
       7        0.001218362659    -0.003162070826    -0.002612325639
       8        0.000545550445     0.000150833846     0.000747969695
       9        0.000608658207    -0.000058701460     0.001912612554
      10       -0.000402226175     0.000463415322    -0.000412693625
      11       -0.000065175108    -0.000255934535    -0.000123801688
      12       -0.000195576432    -0.000201995120    -0.000120367150
      13       -0.000502433764    -0.000407886658     0.000019522236
      14        0.000102748789     0.000003065676     0.000096296617
      15       -0.000120692964     0.000003738605     0.000035856546
      16        0.000026750384     0.000048328840    -0.000008071218
      17       -0.000163019198     0.000141404710    -0.000173524270
      18        0.000084425516    -0.000010695331    -0.000056630300
      19       -0.000019497556     0.000009184186     0.000015995373
      20        0.000011389197    -0.000034901161    -0.000025746427


*** tstop() called on cx1-1-2-3.cx1.hpc.ic.ac.uk at Fri Sep  2 12:53:07 2016
Module time:
	user time   =      25.50 seconds =       0.42 minutes
	system time =       0.26 seconds =       0.00 minutes
	total time  =          7 seconds =       0.12 minutes
Total time:
	user time   =      48.57 seconds =       0.81 minutes
	system time =       0.59 seconds =       0.01 minutes
	total time  =         14 seconds =       0.23 minutes
CURRENT ENERGY: -383.9395816256

			-----------------------------------------
			 OPTKING 2.0: for geometry optimizations 
			  - R.A. King,  Bethel University        
			-----------------------------------------

	Internal coordinates to be generated automatically.
	Detected frag with atoms:  1 2 3 4 5 6 7 8 9 10 11 12 13 14 15 16 17 18 19 20
	---Fragment 1 Bond Connectivity---
	 1 : 2
	 2 : 1 3 4
	 3 : 2 5 6 7
	 4 : 2 17
	 5 : 3 8 9 10
	 6 : 3
	 7 : 3
	 8 : 5 11 12 13
	 9 : 5
	 10 : 5
	 11 : 8 14 15 16
	 12 : 8
	 13 : 8
	 14 : 11
	 15 : 11
	 16 : 11
	 17 : 4 18 19 20
	 18 : 17
	 19 : 17
	 20 : 17

	Assuming in current code that numbering for constraints corresponds to unified fragment.
	Frozen dihedral atom list: 
	     1     2     3     6
	---Fragment 1 Geometry and Gradient---
	 O           2.8161631543        1.6058319540        1.8696944084
	 C           2.2157896030        0.0718940088        0.3423931814
	 C          -0.2261315134       -1.4017163193        0.3415919375
	 O           3.6571423061       -0.5577608489       -1.6107068071
	 C          -2.5738932459        0.2713357049        0.3418942937
	 H          -0.1950492980       -2.6396796884       -1.2964037772
	 H          -0.1954688172       -2.6410251734        1.9785785385
	 C          -5.0200813639       -1.2682071680        0.3417261080
	 H          -2.5275344844        1.5036676901       -1.2975338335
	 H          -2.5274815720        1.5030478599        1.9817854037
	 C          -7.3818214006        0.3933061884        0.3444681007
	 H          -5.0562034790       -2.5000875087       -1.3043538551
	 H          -5.0545083946       -2.5031375267        1.9855497382
	 H          -7.4355557631        1.6053122794       -1.3110604931
	 H          -9.0888960541       -0.7440576100        0.3437292177
	 H          -7.4344313761        1.6013665312        2.0028993138
	 C           6.0127860862        0.6917941003       -1.8343880203
	 H           5.7415952683        2.7063290853       -2.0274670085
	 H           6.8896227913       -0.0671218044       -3.5112119379
	 H           7.1783616061        0.3251777819       -0.1984558865
	             0.0014126810       -0.0006867348       -0.0010538028
	             0.0001001911        0.0003828901        0.0022971206
	            -0.0045132155        0.0096975547        0.0053100338
	            -0.0019275263       -0.0014946223       -0.0007002317
	             0.0009777314       -0.0020558184       -0.0041635559
	             0.0028208743       -0.0025310554       -0.0009846566
	             0.0012183627       -0.0031620708       -0.0026123256
	             0.0005455504        0.0001508338        0.0007479697
	             0.0006086582       -0.0000587015        0.0019126126
	            -0.0004022262        0.0004634153       -0.0004126936
	            -0.0000651751       -0.0002559345       -0.0001238017
	            -0.0001955764       -0.0002019951       -0.0001203671
	            -0.0005024338       -0.0004078867        0.0000195222
	             0.0001027488        0.0000030657        0.0000962966
	            -0.0001206930        0.0000037386        0.0000358565
	             0.0000267504        0.0000483288       -0.0000080712
	            -0.0001630192        0.0001414047       -0.0001735243
	             0.0000844255       -0.0000106953       -0.0000566303
	            -0.0000194976        0.0000091842        0.0000159954
	             0.0000113892       -0.0000349012       -0.0000257464

	Previous optimization step data not found.  Starting new optimization.

	---Fragment 1 Intrafragment Coordinates---
	 - Coordinate -           - BOHR/RAD -       - ANG/DEG -
	 R(1,2)           =         2.246344	       1.188714
	 R(2,3)           =         2.852106	       1.509269
	 R(2,4)           =         2.507701	       1.327018
	 R(3,5)           =         2.882896	       1.525563
	 R(3,6)           =         2.053424	       1.086625
	 R(3,7)           =         2.053424	       1.086625
	 R(4,17)          =         2.675907	       1.416029
	 R(5,8)           =         2.890334	       1.529499
	 R(5,9)           =         2.051467	       1.085590
	 R(5,10)          =         2.051466	       1.085589
	 R(8,11)          =         2.887637	       1.528072
	 R(8,12)          =         2.056311	       1.088153
	 R(8,13)          =         2.056306	       1.088150
	 R(11,14)         =         2.052467	       1.086119
	 R(11,15)         =         2.051268	       1.085484
	 R(11,16)         =         2.052455	       1.086113
	 R(17,18)         =         2.041856	       1.080504
	 R(17,19)         =         2.038758	       1.078864
	 R(17,20)         =         2.041874	       1.080513
	 B(1,2,3)         =         2.191781	     125.579801
	 B(1,2,4)         =         2.150026	     123.187391
	 B(2,3,5)         =         1.979487	     113.416276
	 B(2,3,6)         =         1.874185	     107.382889
	 B(2,3,7)         =         1.874253	     107.386811
	 B(2,4,17)        =         2.041860	     116.989948
	 B(3,2,4)         =         1.941379	     111.232807
	 B(3,5,8)         =         1.960718	     112.340892
	 B(3,5,9)         =         1.907234	     109.276433
	 B(3,5,10)        =         1.907203	     109.274701
	 B(4,17,18)       =         1.930184	     110.591410
	 B(4,17,19)       =         1.847863	     105.874775
	 B(4,17,20)       =         1.930184	     110.591389
	 B(5,3,6)         =         1.941513	     111.240475
	 B(5,3,7)         =         1.941562	     111.243334
	 B(5,8,11)        =         1.966782	     112.688289
	 B(5,8,12)        =         1.911352	     109.512430
	 B(5,8,13)        =         1.911353	     109.512432
	 B(6,3,7)         =         1.846095	     105.773475
	 B(8,5,9)         =         1.916700	     109.818836
	 B(8,5,10)        =         1.916651	     109.816039
	 B(8,11,14)       =         1.939515	     111.126003
	 B(8,11,15)       =         1.940788	     111.198982
	 B(8,11,16)       =         1.939494	     111.124842
	 B(9,5,10)        =         1.852133	     106.119431
	 B(11,8,12)       =         1.908258	     109.335107
	 B(11,8,13)       =         1.908267	     109.335664
	 B(12,8,13)       =         1.854438	     106.251483
	 B(14,11,15)      =         1.881094	     107.778759
	 B(14,11,16)      =         1.879174	     107.668712
	 B(15,11,16)      =         1.881066	     107.777156
	 B(18,17,19)      =         1.924753	     110.280222
	 B(18,17,20)      =         1.905748	     109.191332
	 B(19,17,20)      =         1.924757	     110.280427
	 D(1,2,3,5)       =         0.989309	      56.683233
	*D(1,2,3,6)       =         3.141593	     180.000000
	 D(1,2,3,7)       =        -1.163087	     -66.640001
	 D(1,2,4,17)      =        -0.000273	      -0.015644
	 D(2,3,5,8)       =        -3.141347	    -179.985931
	 D(2,3,5,9)       =         1.010009	      57.869270
	 D(2,3,5,10)      =        -1.009602	     -57.845913
	 D(2,4,17,18)     =        -1.056922	     -60.557155
	 D(2,4,17,19)     =         3.141321	     179.984412
	 D(2,4,17,20)     =         1.056374	      60.525745
	 D(3,2,4,17)      =         3.141506	     179.995032
	 D(3,5,8,11)      =         3.140676	     179.947504
	 D(3,5,8,12)      =        -1.014437	     -58.122946
	 D(3,5,8,13)      =         1.012592	      58.017239
	 D(4,2,3,5)       =        -2.152475	    -123.327754
	 D(4,2,3,6)       =        -0.000192	      -0.011001
	 D(4,2,3,7)       =         1.978313	     113.349013
	 D(5,8,11,14)     =         1.045789	      59.919278
	 D(5,8,11,15)     =         3.141298	     179.983121
	 D(5,8,11,16)     =        -1.046427	     -59.955844
	 D(6,3,5,8)       =         1.026965	      58.840747
	 D(6,3,5,9)       =        -1.104864	     -63.304052
	 D(6,3,5,10)      =        -3.124475	    -179.019235
	 D(7,3,5,8)       =        -1.026347	     -58.805374
	 D(7,3,5,9)       =         3.125009	     179.049827
	 D(7,3,5,10)      =         1.105398	      63.334644
	 D(9,5,8,11)      =        -1.016061	     -58.216007
	 D(9,5,8,12)      =         1.112011	      63.713543
	 D(9,5,8,13)      =         3.139040	     179.853728
	 D(10,5,8,11)     =         1.014302	      58.115206
	 D(10,5,8,12)     =        -3.140812	    -179.955244
	 D(10,5,8,13)     =        -1.113783	     -63.815059
	 D(12,8,11,14)    =        -1.084031	     -62.110417
	 D(12,8,11,15)    =         1.011478	      57.953426
	 D(12,8,11,16)    =         3.106938	     178.014461
	 D(13,8,11,14)    =        -3.107570	    -178.050626
	 D(13,8,11,15)    =        -1.012060	     -57.986783
	 D(13,8,11,16)    =         1.083400	      62.074251

	Current energy   :      -383.9395816256

	Generating empirical Hessian (Schlegel '84) for each fragment.
	Taking RFO optimization step.
	Going to follow RFO solution 1.
	Using RFO vector 1.
	Norm of target step-size    0.18791
	Projected energy change by RFO approximation:        -0.0020300359

	Back-transformation to cartesian coordinates...
	Successfully converged to displaced geometry.

	Back-transformation to cartesian coordinates to adjust frozen coordinates...
	Successfully converged to displaced geometry.

	--- Internal Coordinate Step in ANG or DEG, aJ/ANG or AJ/DEG ---
	 ---------------------------------------------------------------------------
	   Coordinate                Previous        Force       Change         New 
	   ----------                --------       ------       ------       ------
	    1 R(1,2)          =      1.188714     0.006656     0.000386     1.189100
	    2 R(2,3)          =      1.509269     0.010744     0.002188     1.511457
	    3 R(2,4)          =      1.327018     0.000631     0.000067     1.327085
	    4 R(3,5)          =      1.525563     0.017595     0.003772     1.529335
	    5 R(3,6)          =      1.086625    -0.019394    -0.003526     1.083099
	    6 R(3,7)          =      1.086625     0.001285     0.000234     1.086859
	    7 R(4,17)         =      1.416029     0.000060     0.000009     1.416038
	    8 R(5,8)          =      1.529499    -0.004351    -0.000944     1.528554
	    9 R(5,9)          =      1.085590     0.012770     0.002314     1.087903
	   10 R(5,10)         =      1.085589     0.000501     0.000091     1.085680
	   11 R(8,11)         =      1.528072     0.000572     0.000124     1.528196
	   12 R(8,12)         =      1.088153    -0.001819    -0.000332     1.087820
	   13 R(8,13)         =      1.088150    -0.002216    -0.000405     1.087745
	   14 R(11,14)        =      1.086119     0.000647     0.000117     1.086236
	   15 R(11,15)        =      1.085484    -0.000810    -0.000147     1.085338
	   16 R(11,16)        =      1.086113    -0.000175    -0.000032     1.086081
	   17 R(17,18)        =      1.080504     0.000135     0.000024     1.080528
	   18 R(17,19)        =      1.078864     0.000206     0.000036     1.078901
	   19 R(17,20)        =      1.080513     0.000065     0.000012     1.080525
	   20 B(1,2,3)        =    125.579801    -0.000363    -1.117196   124.462604
	   21 B(1,2,4)        =    123.187391    -0.000085    -0.284122   122.903269
	   22 B(2,3,5)        =    113.416276    -0.000308    -1.476331   111.939945
	   23 B(2,3,6)        =    107.382889     0.000266     2.369988   109.752876
	   24 B(2,3,7)        =    107.386811     0.000068    -0.937106   106.449705
	   25 B(2,4,17)       =    116.989948    -0.000038    -0.114774   116.875174
	   26 B(3,2,4)        =    111.232807     0.000448     1.313069   112.545876
	   27 B(3,5,8)        =    112.340892     0.000045     0.052774   112.393666
	   28 B(3,5,9)        =    109.276433     0.000007    -0.014282   109.262151
	   29 B(3,5,10)       =    109.274701    -0.000042    -0.166564   109.108136
	   30 B(4,17,18)      =    110.591410    -0.000011    -0.058669   110.532741
	   31 B(4,17,19)      =    105.874775     0.000005     0.028622   105.903397
	   32 B(4,17,20)      =    110.591389     0.000001     0.001398   110.592787
	   33 B(5,3,6)        =    111.240475     0.000030     0.422129   111.662605
	   34 B(5,3,7)        =    111.243334    -0.000083    -1.888349   109.354985
	   35 B(5,8,11)       =    112.688289     0.000011     0.014901   112.703190
	   36 B(5,8,12)       =    109.512430    -0.000007    -0.026077   109.486353
	   37 B(5,8,13)       =    109.512432    -0.000035    -0.314881   109.197551
	   38 B(6,3,7)        =    105.773475     0.000064     1.672268   107.445743
	   39 B(8,5,9)        =    109.818836    -0.000061    -0.458951   109.359885
	   40 B(8,5,10)       =    109.816039     0.000009     0.123208   109.939247
	   41 B(8,11,14)      =    111.126003     0.000008     0.045432   111.171436
	   42 B(8,11,15)      =    111.198982    -0.000011    -0.071935   111.127046
	   43 B(8,11,16)      =    111.124842     0.000002     0.022901   111.147744
	   44 B(9,5,10)       =    106.119431     0.000042     0.488143   106.607574
	   45 B(11,8,12)      =    109.335107     0.000003     0.120139   109.455246
	   46 B(11,8,13)      =    109.335664     0.000017     0.094015   109.429679
	   47 B(12,8,13)      =    106.251483     0.000010     0.118023   106.369506
	   48 B(14,11,15)     =    107.778759    -0.000002    -0.036833   107.741926
	   49 B(14,11,16)     =    107.668712     0.000000     0.043264   107.711975
	   50 B(15,11,16)     =    107.777156     0.000003    -0.002492   107.774664
	   51 B(18,17,19)     =    110.280222     0.000005     0.026477   110.306699
	   52 B(18,17,20)     =    109.191332    -0.000001    -0.016480   109.174851
	   53 B(19,17,20)     =    110.280427     0.000002     0.020119   110.300546
	   54 D(1,2,3,5)      =     56.683233    -0.000006    -1.258958    55.424275
	   55 *D(1,2,3,6)     =    180.000000    -0.000000     0.000000   180.000000
	   56 D(1,2,3,7)      =    -66.640001     0.000053     2.626494   -64.013507
	   57 D(1,2,4,17)     =     -0.015644    -0.000006    -0.811616    -0.827261
	   58 D(2,3,5,8)      =   -179.985931     0.000024     3.498464  -176.487467
	   59 D(2,3,5,9)      =     57.869270     0.000033     4.056476    61.925747
	   60 D(2,3,5,10)     =    -57.845913     0.000026     3.573115   -54.272798
	   61 D(2,4,17,18)    =    -60.557155     0.000001     0.056207   -60.500948
	   62 D(2,4,17,19)    =    179.984412     0.000000     0.039214   180.023626
	   63 D(2,4,17,20)    =     60.525745    -0.000001    -0.002576    60.523169
	   64 D(3,2,4,17)     =    179.995032     0.000013     2.456431   182.451463
	   65 D(3,5,8,11)     =    179.947504    -0.000001     0.223818   180.171322
	   66 D(3,5,8,12)     =    -58.122946     0.000000     0.368962   -57.753984
	   67 D(3,5,8,13)     =     58.017239    -0.000002     0.317677    58.334917
	   68 D(4,2,3,5)      =   -123.327754    -0.000026    -4.586783  -127.914536
	   69 D(4,2,3,6)      =     -0.011001    -0.000020    -3.328276    -3.339277
	   70 D(4,2,3,7)      =    113.349013     0.000034    -0.701331   112.647682
	   71 D(5,8,11,14)    =     59.919278     0.000003     0.254966    60.174244
	   72 D(5,8,11,15)    =    179.983121     0.000002     0.190615   180.173737
	   73 D(5,8,11,16)    =    -59.955844     0.000001     0.154594   -59.801250
	   74 D(6,3,5,8)      =     58.840747    -0.000010     1.165241    60.005988
	   75 D(6,3,5,9)      =    -63.304052    -0.000001     1.723253   -61.580799
	   76 D(6,3,5,10)     =   -179.019235    -0.000008     1.239892  -177.779343
	   77 D(7,3,5,8)      =    -58.805374    -0.000021     0.032391   -58.772983
	   78 D(7,3,5,9)      =    179.049827    -0.000011     0.590403   179.640230
	   79 D(7,3,5,10)     =     63.334644    -0.000018     0.107042    63.441686
	   80 D(9,5,8,11)     =    -58.216007    -0.000002    -0.081641   -58.297649
	   81 D(9,5,8,12)     =     63.713543    -0.000000     0.063502    63.777045
	   82 D(9,5,8,13)     =    179.853728    -0.000003     0.012218   179.865946
	   83 D(10,5,8,11)    =     58.115206     0.000003     0.313460    58.428665
	   84 D(10,5,8,12)    =   -179.955244     0.000004     0.458604  -179.496641
	   85 D(10,5,8,13)    =    -63.815059     0.000002     0.407319   -63.407740
	   86 D(12,8,11,14)   =    -62.110417     0.000003     0.192424   -61.917993
	   87 D(12,8,11,15)   =     57.953426     0.000002     0.128073    58.081499
	   88 D(12,8,11,16)   =    178.014461     0.000001     0.092052   178.106513
	   89 D(13,8,11,14)   =   -178.050626    -0.000003    -0.070081  -178.120707
	   90 D(13,8,11,15)   =    -57.986783    -0.000004    -0.134432   -58.121215
	   91 D(13,8,11,16)   =     62.074251    -0.000004    -0.170453    61.903799
	 ---------------------------------------------------------------------------

  ==> Convergence Check <==

  Measures of convergence in internal coordinates in au.
  Criteria marked as inactive (o), active & met (*), and active & unmet ( ).
  --------------------------------------------------------------------------------------------- ~
   Step     Total Energy     Delta E     MAX Force     RMS Force      MAX Disp      RMS Disp    ~
  --------------------------------------------------------------------------------------------- ~
    Convergence Criteria    1.00e-06 *    3.00e-04 *             o    1.20e-03 *             o  ~
  --------------------------------------------------------------------------------------------- ~
      1    -383.93958163   -3.84e+02      5.89e-03      1.23e-03 o    8.01e-02      1.97e-02 o  ~
  ---------------------------------------------------------------------------------------------

	Writing optimization data to binary file.
	Structure for next step:
	Cartesian Geometry (in Angstrom)
	    O     1.4257248305   0.8521439616   0.9359945021
	    C     1.1480457857   0.0464549121   0.1067065548
	    C    -0.1298809442  -0.7605124084   0.0922340434
	    O     1.9734032637  -0.2899078650  -0.8765535620
	    C    -1.3704358875   0.1331580810   0.1274794512
	    H    -0.1365714894  -1.4201225288  -0.7668196460
	    H    -0.1099944529  -1.3844172301   0.9819586614
	    C    -2.6670618747  -0.6730741304   0.1997909685
	    H    -1.3854826448   0.7614586230  -0.7605213913
	    H    -1.3024140488   0.8021610162   0.9798341401
	    C    -3.9116674529   0.2131290190   0.2311429137
	    H    -2.7234137017  -1.3468653691  -0.6523727390
	    H    -2.6482051716  -1.3019478038   1.0871197646
	    H    -3.9760272195   0.8307725771  -0.6600830152
	    H    -4.8160875572  -0.3843922235   0.2854608365
	    H    -3.8995876772   0.8753252827   1.0919109360
	    C     3.2239378652   0.3731459518  -0.9176200749
	    H     3.0844216395   1.4386556805  -1.0305997292
	    H     3.7439270390  -0.0291773644  -1.7730580732
	    H     3.7850280212   0.1825161538  -0.0140872841
			--------------------------
			 OPTKING Finished Execution 
			--------------------------

    Structure for next step:
    Molecular point group: c1
    Full point group: C1

    Geometry (in Angstrom), charge = 0, multiplicity = 1:

    O            1.430735346279     0.852170904703     0.955061124650
    C            1.153056322680     0.046481916783     0.125773240757
    C           -0.124870309704    -0.760485342070     0.111300730380
    O            1.978413737601    -0.289880834607    -0.857486800996
    C           -1.365425158262     0.133185079087     0.146546135502
    H           -0.131560854331    -1.420095412161    -0.747752893339
    H           -0.104983819891    -1.384390116164     1.001025280442
    C           -2.662051046442    -0.673047070798     0.218857647314
    H           -1.380471914342     0.761485573027    -0.741454639200
    H           -1.297403324726     0.802187963199     0.998900759381
    C           -3.906656529615     0.213156010904     0.250209590111
    H           -2.718402869106    -1.346838258036    -0.633305995129
    H           -2.643194344773    -1.301920696200     1.106186375643
    H           -3.971016291236     0.830799521825    -0.641016270762
    H           -4.811076564762    -0.384365185970     0.304527508758
    H           -3.894576754803     0.875352224102     1.110977546682
    C            3.228948243592     0.373172931517    -0.898553310744
    H            3.089432028543     1.438682578870    -1.011532956425
    H            3.748937377717    -0.029150353933    -1.753991243760
    H            3.790038356785     0.182543148082     0.004979411050

gradient() will perform analytic gradient computation.

*** tstart() called on cx1-1-2-3.cx1.hpc.ic.ac.uk
*** at Fri Sep  2 12:53:09 2016


         ---------------------------------------------------------
                                   SCF
            by Justin Turney, Rob Parrish, and Andy Simmonett
                              RHF Reference
                        4 Threads,   2000 MiB Core
         ---------------------------------------------------------

  ==> Geometry <==

    Molecular point group: c1
    Full point group: C1

    Geometry (in Angstrom), charge = 0, multiplicity = 1:

       Center              X                  Y                   Z               Mass       
    ------------   -----------------  -----------------  -----------------  -----------------
           O          1.430735346279     0.852170904703     0.955061124650    15.994914619560
           C          1.153056322680     0.046481916783     0.125773240757    12.000000000000
           C         -0.124870309704    -0.760485342070     0.111300730380    12.000000000000
           O          1.978413737601    -0.289880834607    -0.857486800996    15.994914619560
           C         -1.365425158262     0.133185079087     0.146546135502    12.000000000000
           H         -0.131560854331    -1.420095412161    -0.747752893339     1.007825032070
           H         -0.104983819891    -1.384390116164     1.001025280442     1.007825032070
           C         -2.662051046442    -0.673047070798     0.218857647314    12.000000000000
           H         -1.380471914342     0.761485573027    -0.741454639200     1.007825032070
           H         -1.297403324726     0.802187963199     0.998900759381     1.007825032070
           C         -3.906656529615     0.213156010904     0.250209590111    12.000000000000
           H         -2.718402869106    -1.346838258036    -0.633305995129     1.007825032070
           H         -2.643194344773    -1.301920696200     1.106186375643     1.007825032070
           H         -3.971016291236     0.830799521825    -0.641016270762     1.007825032070
           H         -4.811076564762    -0.384365185970     0.304527508758     1.007825032070
           H         -3.894576754803     0.875352224102     1.110977546682     1.007825032070
           C          3.228948243592     0.373172931517    -0.898553310744    12.000000000000
           H          3.089432028543     1.438682578870    -1.011532956425     1.007825032070
           H          3.748937377717    -0.029150353933    -1.753991243760     1.007825032070
           H          3.790038356785     0.182543148082     0.004979411050     1.007825032070

  Running in c1 symmetry.

  Rotational constants: A =      0.21875  B =      0.02501  C =      0.02399 [cm^-1]
  Rotational constants: A =   6557.94452  B =    749.80044  C =    719.10653 [MHz]
  Nuclear repulsion =  381.401927557596139

  Charge       = 0
  Multiplicity = 1
  Electrons    = 64
  Nalpha       = 32
  Nbeta        = 32

  ==> Algorithm <==

  SCF Algorithm Type is DF.
  DIIS enabled.
  MOM disabled.
  Fractional occupation disabled.
  Guess Type is READ.
  Energy threshold   = 1.00e-08
  Density threshold  = 1.00e-08
  Integral threshold = 0.00e+00

  ==> Primary Basis <==

  Basis Set: 6-31G*
    Number of shells: 72
    Number of basis function: 144
    Number of Cartesian functions: 144
    Spherical Harmonics?: false
    Max angular momentum: 2

  ==> Pre-Iterations <==

   -------------------------------------------------------
    Irrep   Nso     Nmo     Nalpha   Nbeta   Ndocc  Nsocc
   -------------------------------------------------------
     A        144     144       0       0       0       0
   -------------------------------------------------------
    Total     144     144      32      32      32       0
   -------------------------------------------------------

 OEINTS: Overlap, kinetic, potential, dipole, and quadrupole integrals
         stored in file 35.

  ==> Integral Setup <==

  ==> DFJK: Density-Fitted J/K Matrices <==

    J tasked:                  Yes
    K tasked:                  Yes
    wK tasked:                  No
    OpenMP threads:              4
    Integrals threads:           4
    Memory (MB):              1430
    Algorithm:                Core
    Integral Cache:           NONE
    Schwarz Cutoff:          1E-12
    Fitting Condition:       1E-12

   => Auxiliary Basis Set <=

  Basis Set: 
    Number of shells: 300
    Number of basis function: 948
    Number of Cartesian functions: 948
    Spherical Harmonics?: false
    Max angular momentum: 3

  Minimum eigenvalue in the overlap matrix is 2.6987606805E-03.
  Using Symmetric Orthogonalization.
  SCF Guess: Reading in previously saved MOs, projecting if necessary.

  Using orbitals from previous SCF, no projection.
  Recomputing DOCC and SOCC from number of alpha and beta electrons from previous calculation.
              A 
    DOCC [    32 ]

  ==> Iterations <==

                           Total Energy        Delta E     RMS |[F,P]|

   @DF-RHF iter   0:  -383.92927882625412   -3.83929e+02   1.15788e-03 
   @DF-RHF iter   1:  -383.93937944777832   -1.01006e-02   1.74920e-04 
   @DF-RHF iter   2:  -383.93994288808943   -5.63440e-04   5.96915e-05 DIIS
   @DF-RHF iter   3:  -383.94001870233359   -7.58142e-05   2.37904e-05 DIIS
   @DF-RHF iter   4:  -383.94002570146955   -6.99914e-06   6.02805e-06 DIIS
   @DF-RHF iter   5:  -383.94002645623408   -7.54765e-07   2.96799e-06 DIIS
   @DF-RHF iter   6:  -383.94002673316101   -2.76927e-07   1.09212e-06 DIIS
   @DF-RHF iter   7:  -383.94002679709791   -6.39369e-08   4.09937e-07 DIIS
   @DF-RHF iter   8:  -383.94002680533544   -8.23752e-09   1.23343e-07 DIIS
   @DF-RHF iter   9:  -383.94002680580064   -4.65207e-10   3.84460e-08 DIIS
   @DF-RHF iter  10:  -383.94002680583657   -3.59250e-11   1.30688e-08 DIIS
   @DF-RHF iter  11:  -383.94002680583975   -3.18323e-12   4.20284e-09 DIIS

  ==> Post-Iterations <==

    Orbital Energies (a.u.)
    -----------------------

    Doubly Occupied:                                                      

       1A    -20.605362     2A    -20.542871     3A    -11.372002  
       4A    -11.280425     5A    -11.234618     6A    -11.225372  
       7A    -11.222300     8A    -11.212600     9A     -1.469265  
      10A     -1.361580    11A     -1.090870    12A     -1.023980  
      13A     -0.969292    14A     -0.887525    15A     -0.805534  
      16A     -0.771157    17A     -0.695665    18A     -0.680638  
      19A     -0.672288    20A     -0.647068    21A     -0.598479  
      22A     -0.592197    23A     -0.575181    24A     -0.550588  
      25A     -0.534104    26A     -0.522890    27A     -0.503901  
      28A     -0.479605    29A     -0.477145    30A     -0.472921  
      31A     -0.454007    32A     -0.433113  

    Virtual:                                                              

      33A      0.192588    34A      0.234195    35A      0.258152  
      36A      0.268605    37A      0.274942    38A      0.290616  
      39A      0.310184    40A      0.321076    41A      0.326372  
      42A      0.329801    43A      0.333365    44A      0.338858  
      45A      0.345134    46A      0.360262    47A      0.390348  
      48A      0.412030    49A      0.449329    50A      0.477395  
      51A      0.531383    52A      0.578933    53A      0.704090  
      54A      0.723983    55A      0.734518    56A      0.746565  
      57A      0.749944    58A      0.754609    59A      0.780524  
      60A      0.806154    61A      0.842390    62A      0.853173  
      63A      0.902211    64A      0.948099    65A      0.954578  
      66A      0.978027    67A      1.007404    68A      1.017762  
      69A      1.075163    70A      1.099289    71A      1.111488  
      72A      1.118086    73A      1.130570    74A      1.133996  
      75A      1.137752    76A      1.175919    77A      1.184505  
      78A      1.199752    79A      1.202885    80A      1.212328  
      81A      1.215612    82A      1.223702    83A      1.233798  
      84A      1.263444    85A      1.286059    86A      1.331445  
      87A      1.371961    88A      1.401092    89A      1.412354  
      90A      1.512145    91A      1.539766    92A      1.636844  
      93A      1.643867    94A      1.690770    95A      1.743547  
      96A      1.753954    97A      1.809163    98A      1.833139  
      99A      1.917490   100A      1.959707   101A      1.990609  
     102A      2.020252   103A      2.099432   104A      2.116739  
     105A      2.144234   106A      2.182456   107A      2.214524  
     108A      2.238914   109A      2.245519   110A      2.281749  
     111A      2.294619   112A      2.327271   113A      2.361460  
     114A      2.380714   115A      2.405189   116A      2.447674  
     117A      2.472638   118A      2.551182   119A      2.597247  
     120A      2.628235   121A      2.656310   122A      2.676768  
     123A      2.696167   124A      2.731209   125A      2.750714  
     126A      2.784545   127A      2.856707   128A      2.903939  
     129A      2.936219   130A      3.042613   131A      3.061781  
     132A      3.140818   133A      3.162983   134A      3.351376  
     135A      3.417201   136A      3.557896   137A      4.435055  
     138A      4.544045   139A      4.632176   140A      4.675522  
     141A      4.710350   142A      4.772954   143A      4.898226  
     144A      5.022740  

    Final Occupation by Irrep:
              A 
    DOCC [    32 ]

  Energy converged.

  @DF-RHF Final Energy:  -383.94002680583975

   => Energetics <=

    Nuclear Repulsion Energy =            381.4019275575961387
    One-Electron Energy =               -1278.7548181578172262
    Two-Electron Energy =                 513.4128637943813374
    DFT Exchange-Correlation Energy =       0.0000000000000000
    Empirical Dispersion Energy =           0.0000000000000000
    PCM Polarization Energy =               0.0000000000000000
    EFP Energy =                            0.0000000000000000
    Total Energy =                       -383.9400268058398069

    Alert: EFP and PCM quantities not currently incorporated into SCF psivars.

Properties will be evaluated at   0.000000,   0.000000,   0.000000 Bohr
  ==> Properties <==


Properties computed using the SCF density matrix

  Nuclear Dipole Moment: (a.u.)
     X:    -9.6623      Y:    -0.9120      Z:    -0.9393

  Electronic Dipole Moment: (a.u.)
     X:     9.6238      Y:     0.4828      Z:     0.3813

  Dipole Moment: (a.u.)
     X:    -0.0385      Y:    -0.4292      Z:    -0.5580     Total:     0.7050

  Dipole Moment: (Debye)
     X:    -0.0978      Y:    -1.0909      Z:    -1.4182     Total:     1.7920


  Saving occupied orbitals to File 180.

*** tstop() called on cx1-1-2-3.cx1.hpc.ic.ac.uk at Fri Sep  2 12:53:15 2016
Module time:
	user time   =      18.76 seconds =       0.31 minutes
	system time =       0.26 seconds =       0.00 minutes
	total time  =          6 seconds =       0.10 minutes
Total time:
	user time   =      68.73 seconds =       1.15 minutes
	system time =       0.92 seconds =       0.02 minutes
	total time  =         22 seconds =       0.37 minutes

*** tstart() called on cx1-1-2-3.cx1.hpc.ic.ac.uk
*** at Fri Sep  2 12:53:15 2016


         ------------------------------------------------------------
                                   SCF GRAD                          
                          Rob Parrish, Justin Turney,                
                       Andy Simmonett, and Alex Sokolov              
         ------------------------------------------------------------

  ==> Geometry <==

    Molecular point group: c1
    Full point group: C1

    Geometry (in Angstrom), charge = 0, multiplicity = 1:

       Center              X                  Y                   Z               Mass       
    ------------   -----------------  -----------------  -----------------  -----------------
           O          1.430735346279     0.852170904703     0.955061124650    15.994914619560
           C          1.153056322680     0.046481916783     0.125773240757    12.000000000000
           C         -0.124870309704    -0.760485342070     0.111300730380    12.000000000000
           O          1.978413737601    -0.289880834607    -0.857486800996    15.994914619560
           C         -1.365425158262     0.133185079087     0.146546135502    12.000000000000
           H         -0.131560854331    -1.420095412161    -0.747752893339     1.007825032070
           H         -0.104983819891    -1.384390116164     1.001025280442     1.007825032070
           C         -2.662051046442    -0.673047070798     0.218857647314    12.000000000000
           H         -1.380471914342     0.761485573027    -0.741454639200     1.007825032070
           H         -1.297403324726     0.802187963199     0.998900759381     1.007825032070
           C         -3.906656529615     0.213156010904     0.250209590111    12.000000000000
           H         -2.718402869106    -1.346838258036    -0.633305995129     1.007825032070
           H         -2.643194344773    -1.301920696200     1.106186375643     1.007825032070
           H         -3.971016291236     0.830799521825    -0.641016270762     1.007825032070
           H         -4.811076564762    -0.384365185970     0.304527508758     1.007825032070
           H         -3.894576754803     0.875352224102     1.110977546682     1.007825032070
           C          3.228948243592     0.373172931517    -0.898553310744    12.000000000000
           H          3.089432028543     1.438682578870    -1.011532956425     1.007825032070
           H          3.748937377717    -0.029150353933    -1.753991243760     1.007825032070
           H          3.790038356785     0.182543148082     0.004979411050     1.007825032070

  Nuclear repulsion =  381.401927557596139

  ==> Basis Set <==

  Basis Set: 6-31G*
    Number of shells: 72
    Number of basis function: 144
    Number of Cartesian functions: 144
    Spherical Harmonics?: false
    Max angular momentum: 2

  ==> DFJKGrad: Density-Fitted SCF Gradients <==

    Gradient:                    1
    J tasked:                  Yes
    K tasked:                  Yes
    wK tasked:                  No
    OpenMP threads:              4
    Integrals threads:           4
    Memory (MB):              1430
    Schwarz Cutoff:          0E+00
    Fitting Condition:       1E-12

   => Auxiliary Basis Set <=

  Basis Set: 
    Number of shells: 300
    Number of basis function: 948
    Number of Cartesian functions: 948
    Spherical Harmonics?: false
    Max angular momentum: 3


  -Total Gradient:
     Atom            X                  Y                   Z
    ------   -----------------  -----------------  -----------------
       1        0.002549154865    -0.003304155187     0.000796343845
       2       -0.005322917858     0.007683974209    -0.002310418210
       3       -0.000702400244    -0.000733704665    -0.000130656879
       4        0.002134117764    -0.001299580689     0.000442302987
       5        0.001465069715    -0.001310278233     0.000389916533
       6        0.000279796590    -0.001312133894     0.000299000547
       7       -0.000659851435    -0.000155260837     0.000081689380
       8        0.000170919575    -0.000143074737    -0.000066063102
       9        0.000163965657    -0.000155940866     0.000063120284
      10       -0.000406075912     0.000634993623     0.000366995727
      11        0.000006738830     0.000172529259     0.000010903225
      12        0.000112764710     0.000004010395     0.000004551184
      13        0.000200885228     0.000115681660    -0.000080741201
      14       -0.000030353328     0.000021097892    -0.000005890731
      15        0.000076735127    -0.000007697336     0.000002611459
      16       -0.000058697283     0.000030321955     0.000020141404
      17       -0.000066865665    -0.000336562000     0.000084295239
      18       -0.000144910587     0.000025789907     0.000015664290
      19        0.000101623476     0.000027594620     0.000014960955
      20        0.000130300775     0.000042394923     0.000001273064


*** tstop() called on cx1-1-2-3.cx1.hpc.ic.ac.uk at Fri Sep  2 12:53:22 2016
Module time:
	user time   =      25.74 seconds =       0.43 minutes
	system time =       0.29 seconds =       0.00 minutes
	total time  =          7 seconds =       0.12 minutes
Total time:
	user time   =      94.49 seconds =       1.57 minutes
	system time =       1.21 seconds =       0.02 minutes
	total time  =         29 seconds =       0.48 minutes
CURRENT ENERGY: -383.9400268058

			-----------------------------------------
			 OPTKING 2.0: for geometry optimizations 
			  - R.A. King,  Bethel University        
			-----------------------------------------

	Previous internal coordinate definitions found.
	---Fragment 1 Geometry and Gradient---
	 O           2.7036979731        1.6103696283        1.8048039658
	 C           2.1789606657        0.0878380929        0.2376769799
	 C          -0.2359706875       -1.4371090246        0.2103278988
	 O           3.7386601416       -0.5477953886       -1.6204152164
	 C          -2.5802796041        0.2516833245        0.2769320619
	 H          -0.2486139845       -2.6835914116       -1.4130481835
	 H          -0.1983906680       -2.6161181806        1.8916636321
	 C          -5.0305474295       -1.2718746383        0.4135810155
	 H          -2.6087138522        1.4389991872       -1.4011462080
	 H          -2.4517369676        1.5159155575        1.8876488692
	 C          -7.3825109362        0.4028064842        0.4728276011
	 H          -5.1370369415       -2.5451554530       -1.1967748891
	 H          -4.9949134276       -2.4602735626        2.0903893019
	 H          -7.5041332597        1.5699835676       -1.2113451985
	 H          -9.0916171117       -0.7263449365        0.5754735915
	 H          -7.3596834701        1.6541759734        2.0994433030
	 C           6.1018278777        0.7051946408       -1.6980196731
	 H           5.8381804401        2.7187160662       -1.9115202620
	 H           7.0844649332       -0.0550861856       -3.3145630902
	 H           7.1621345275        0.3449565573        0.0094097232
	             0.0025491549       -0.0033041552        0.0007963438
	            -0.0053229179        0.0076839742       -0.0023104182
	            -0.0007024002       -0.0007337047       -0.0001306569
	             0.0021341178       -0.0012995807        0.0004423030
	             0.0014650697       -0.0013102782        0.0003899165
	             0.0002797966       -0.0013121339        0.0002990005
	            -0.0006598514       -0.0001552608        0.0000816894
	             0.0001709196       -0.0001430747       -0.0000660631
	             0.0001639657       -0.0001559409        0.0000631203
	            -0.0004060759        0.0006349936        0.0003669957
	             0.0000067388        0.0001725293        0.0000109032
	             0.0001127647        0.0000040104        0.0000045512
	             0.0002008852        0.0001156817       -0.0000807412
	            -0.0000303533        0.0000210979       -0.0000058907
	             0.0000767351       -0.0000076973        0.0000026115
	            -0.0000586973        0.0000303220        0.0000201414
	            -0.0000668657       -0.0003365620        0.0000842952
	            -0.0001449106        0.0000257899        0.0000156643
	             0.0001016235        0.0000275946        0.0000149610
	             0.0001303008        0.0000423949        0.0000012731

	---Fragment 1 Intrafragment Coordinates---
	 - Coordinate -           - BOHR/RAD -       - ANG/DEG -
	 R(1,2)           =         2.247073	       1.189100
	 R(2,3)           =         2.856240	       1.511457
	 R(2,4)           =         2.507828	       1.327085
	 R(3,5)           =         2.890024	       1.529335
	 R(3,6)           =         2.046760	       1.083099
	 R(3,7)           =         2.053866	       1.086859
	 R(4,17)          =         2.675924	       1.416038
	 R(5,8)           =         2.888549	       1.528554
	 R(5,9)           =         2.055839	       1.087903
	 R(5,10)          =         2.051637	       1.085680
	 R(8,11)          =         2.887871	       1.528196
	 R(8,12)          =         2.055682	       1.087820
	 R(8,13)          =         2.055541	       1.087745
	 R(11,14)         =         2.052689	       1.086236
	 R(11,15)         =         2.050991	       1.085338
	 R(11,16)         =         2.052395	       1.086081
	 R(17,18)         =         2.041901	       1.080528
	 R(17,19)         =         2.038827	       1.078901
	 R(17,20)         =         2.041895	       1.080525
	 B(1,2,3)         =         2.172282	     124.462604
	 B(1,2,4)         =         2.145067	     122.903269
	 B(2,3,5)         =         1.953721	     111.939945
	 B(2,3,6)         =         1.915549	     109.752876
	 B(2,3,7)         =         1.857898	     106.449705
	 B(2,4,17)        =         2.039857	     116.875174
	 B(3,2,4)         =         1.964296	     112.545876
	 B(3,5,8)         =         1.961640	     112.393666
	 B(3,5,9)         =         1.906984	     109.262151
	 B(3,5,10)        =         1.904296	     109.108136
	 B(4,17,18)       =         1.929160	     110.532741
	 B(4,17,19)       =         1.848363	     105.903397
	 B(4,17,20)       =         1.930208	     110.592787
	 B(5,3,6)         =         1.948880	     111.662605
	 B(5,3,7)         =         1.908605	     109.354985
	 B(5,8,11)        =         1.967042	     112.703190
	 B(5,8,12)        =         1.910897	     109.486353
	 B(5,8,13)        =         1.905857	     109.197551
	 B(6,3,7)         =         1.875282	     107.445743
	 B(8,5,9)         =         1.908690	     109.359885
	 B(8,5,10)        =         1.918802	     109.939247
	 B(8,11,14)       =         1.940308	     111.171436
	 B(8,11,15)       =         1.939533	     111.127046
	 B(8,11,16)       =         1.939894	     111.147744
	 B(9,5,10)        =         1.860653	     106.607574
	 B(11,8,12)       =         1.910354	     109.455246
	 B(11,8,13)       =         1.909908	     109.429679
	 B(12,8,13)       =         1.856498	     106.369506
	 B(14,11,15)      =         1.880451	     107.741926
	 B(14,11,16)      =         1.879929	     107.711975
	 B(15,11,16)      =         1.881023	     107.774664
	 B(18,17,19)      =         1.925215	     110.306699
	 B(18,17,20)      =         1.905461	     109.174851
	 B(19,17,20)      =         1.925108	     110.300546
	 D(1,2,3,5)       =         0.967336	      55.424275
	*D(1,2,3,6)       =         3.141593	     180.000000
	 D(1,2,3,7)       =        -1.117246	     -64.013507
	 D(1,2,4,17)      =        -0.014438	      -0.827261
	 D(2,3,5,8)       =        -3.080287	    -176.487467
	 D(2,3,5,9)       =         1.080808	      61.925747
	 D(2,3,5,10)      =        -0.947239	     -54.272798
	 D(2,4,17,18)     =        -1.055941	     -60.500948
	 D(2,4,17,19)     =        -3.141180	    -179.976374
	 D(2,4,17,20)     =         1.056329	      60.523169
	 D(3,2,4,17)      =        -3.098807	    -177.548537
	 D(3,5,8,11)      =        -3.138603	    -179.828678
	 D(3,5,8,12)      =        -1.007997	     -57.753984
	 D(3,5,8,13)      =         1.018136	      58.334917
	 D(4,2,3,5)       =        -2.232530	    -127.914536
	 D(4,2,3,6)       =        -0.058281	      -3.339277
	 D(4,2,3,7)       =         1.966073	     112.647682
	 D(5,8,11,14)     =         1.050239	      60.174244
	 D(5,8,11,15)     =        -3.138560	    -179.826263
	 D(5,8,11,16)     =        -1.043729	     -59.801250
	 D(6,3,5,8)       =         1.047302	      60.005988
	 D(6,3,5,9)       =        -1.074788	     -61.580799
	 D(6,3,5,10)      =        -3.102835	    -177.779343
	 D(7,3,5,8)       =        -1.025782	     -58.772983
	 D(7,3,5,9)       =         3.135313	     179.640230
	 D(7,3,5,10)      =         1.107266	      63.441686
	 D(9,5,8,11)      =        -1.017486	     -58.297649
	 D(9,5,8,12)      =         1.113119	      63.777045
	 D(9,5,8,13)      =         3.139253	     179.865946
	 D(10,5,8,11)     =         1.019773	      58.428665
	 D(10,5,8,12)     =        -3.132807	    -179.496641
	 D(10,5,8,13)     =        -1.106674	     -63.407740
	 D(12,8,11,14)    =        -1.080673	     -61.917993
	 D(12,8,11,15)    =         1.013713	      58.081499
	 D(12,8,11,16)    =         3.108545	     178.106513
	 D(13,8,11,14)    =        -3.108793	    -178.120707
	 D(13,8,11,15)    =        -1.014407	     -58.121215
	 D(13,8,11,16)    =         1.080425	      61.903799

	Current energy   :      -383.9400268058

	Energy change for the previous step:
		Projected    :        -0.0020300359
		Actual       :        -0.0004451802
	Energy ratio indicates iffy step: Trust radius decreased to 1.250e-01.


	Performing BFGS update.
	Previous computed or guess Hessian on step 1.
	Steps to be used in Hessian update: 1
	Taking RFO optimization step.
	Going to follow RFO solution 1.
	Using RFO vector 1.

	Determining step-restricting scale parameter for RS-RFO.
	Maximum step size allowed    0.12500

	 Iter      |step|        alpha        rfo_root  
	------------------------------------------------
	    0     0.32497       1.00000           1
	    1     0.22626       6.33420           1
	    2     0.16607      16.31514           1
	    3     0.13614      27.31386           1
	    4     0.12623      32.85732           1
	    5     0.12502      33.63096           1
	    6     0.12500      33.64270           1
	------------------------------------------------
	Norm of target step-size    0.12500
	Projected energy change by RFO approximation:        -0.0000429776

	Back-transformation to cartesian coordinates...
	Successfully converged to displaced geometry.

	Back-transformation to cartesian coordinates to adjust frozen coordinates...
	Successfully converged to displaced geometry.

	--- Internal Coordinate Step in ANG or DEG, aJ/ANG or AJ/DEG ---
	 ---------------------------------------------------------------------------
	   Coordinate                Previous        Force       Change         New 
	   ----------                --------       ------       ------       ------
	    1 R(1,2)          =      1.189100     0.008965     0.000550     1.189650
	    2 R(2,3)          =      1.511457    -0.008099    -0.000714     1.510743
	    3 R(2,4)          =      1.327085    -0.010846    -0.000939     1.326146
	    4 R(3,5)          =      1.529335     0.014314     0.003583     1.532918
	    5 R(3,6)          =      1.083099    -0.004615    -0.001708     1.081391
	    6 R(3,7)          =      1.086859    -0.001186    -0.000109     1.086750
	    7 R(4,17)         =      1.416038     0.000810     0.000102     1.416140
	    8 R(5,8)          =      1.528554     0.004230     0.000475     1.529030
	    9 R(5,9)          =      1.087903     0.001185     0.000846     1.088749
	   10 R(5,10)         =      1.085680    -0.005388    -0.000773     1.084907
	   11 R(8,11)         =      1.528196    -0.001075    -0.000153     1.528042
	   12 R(8,12)         =      1.087820     0.000098    -0.000082     1.087739
	   13 R(8,13)         =      1.087745     0.001065     0.000042     1.087787
	   14 R(11,14)        =      1.086236    -0.000153     0.000011     1.086248
	   15 R(11,15)        =      1.085338     0.000491     0.000030     1.085368
	   16 R(11,16)        =      1.086081    -0.000278    -0.000051     1.086030
	   17 R(17,18)        =      1.080528    -0.000350    -0.000044     1.080484
	   18 R(17,19)        =      1.078901    -0.000221    -0.000022     1.078879
	   19 R(17,20)        =      1.080525    -0.000505    -0.000070     1.080454
	   20 B(1,2,3)        =    124.462604    -0.000103    -0.536930   123.925674
	   21 B(1,2,4)        =    122.903269     0.000113     0.222889   123.126159
	   22 B(2,3,5)        =    111.939945     0.000078    -0.130909   111.809036
	   23 B(2,3,6)        =    109.752876    -0.000045     0.443697   110.196573
	   24 B(2,3,7)        =    106.449705    -0.000068    -0.559554   105.890151
	   25 B(2,4,17)       =    116.875174     0.000010    -0.009547   116.865627
	   26 B(3,2,4)        =    112.545876    -0.000002     0.400056   112.945932
	   27 B(3,5,8)        =    112.393666     0.000029     0.100110   112.493776
	   28 B(3,5,9)        =    109.262151     0.000010     0.109815   109.371965
	   29 B(3,5,10)       =    109.108136    -0.000042    -0.294934   108.813203
	   30 B(4,17,18)      =    110.532741     0.000021     0.065900   110.598642
	   31 B(4,17,19)      =    105.903397    -0.000012    -0.041027   105.862371
	   32 B(4,17,20)      =    110.592787    -0.000015    -0.056200   110.536588
	   33 B(5,3,6)        =    111.662605     0.000016     0.358930   112.021535
	   34 B(5,3,7)        =    109.354985     0.000030    -0.260821   109.094164
	   35 B(5,8,11)       =    112.703190     0.000005     0.021813   112.725003
	   36 B(5,8,12)       =    109.486353     0.000002     0.009219   109.495572
	   37 B(5,8,13)       =    109.197551     0.000010    -0.005798   109.191753
	   38 B(6,3,7)        =    107.445743    -0.000018     0.100868   107.546611
	   39 B(8,5,9)        =    109.359885    -0.000017    -0.117000   109.242884
	   40 B(8,5,10)       =    109.939247     0.000011     0.059902   109.999149
	   41 B(8,11,14)      =    111.171436    -0.000004    -0.004228   111.167208
	   42 B(8,11,15)      =    111.127046     0.000008     0.014280   111.141327
	   43 B(8,11,16)      =    111.147744    -0.000007    -0.022158   111.125586
	   44 B(9,5,10)       =    106.607574     0.000008     0.145574   106.753148
	   45 B(11,8,12)      =    109.455246    -0.000007    -0.023725   109.431520
	   46 B(11,8,13)      =    109.429679    -0.000010    -0.016906   109.412773
	   47 B(12,8,13)      =    106.369506    -0.000000     0.015064   106.384570
	   48 B(14,11,15)     =    107.741926    -0.000001    -0.006899   107.735027
	   49 B(14,11,16)     =    107.711975     0.000003     0.011825   107.723800
	   50 B(15,11,16)     =    107.774664     0.000001     0.007900   107.782564
	   51 B(18,17,19)     =    110.306699    -0.000002     0.003164   110.309863
	   52 B(18,17,20)     =    109.174851     0.000000     0.003070   109.177921
	   53 B(19,17,20)     =    110.300546     0.000008     0.024457   110.325003
	   54 D(1,2,3,5)      =     55.424275    -0.000010    -0.699784    54.724491
	   55 *D(1,2,3,6)     =    180.000000    -0.000000     0.000000   180.000000
	   56 D(1,2,3,7)      =    -64.013507    -0.000019     0.036230   -63.977277
	   57 D(1,2,4,17)     =     -0.827261     0.000015     1.853102     1.025841
	   58 D(2,3,5,8)      =   -176.487467     0.000002     0.670909  -175.816558
	   59 D(2,3,5,9)      =     61.925747     0.000001     0.675992    62.601739
	   60 D(2,3,5,10)     =    -54.272798     0.000003     0.605964   -53.666834
	   61 D(2,4,17,18)    =    -60.500948    -0.000000    -0.016115   -60.517063
	   62 D(2,4,17,19)    =   -179.976374    -0.000001    -0.031137  -180.007511
	   63 D(2,4,17,20)    =     60.523169     0.000001    -0.005819    60.517350
	   64 D(3,2,4,17)     =   -177.548537    -0.000018    -1.950623  -179.499160
	   65 D(3,5,8,11)     =   -179.828678    -0.000003    -0.106765  -179.935443
	   66 D(3,5,8,12)     =    -57.753984    -0.000004    -0.115696   -57.869680
	   67 D(3,5,8,13)     =     58.334917    -0.000003    -0.095720    58.239197
	   68 D(4,2,3,5)      =   -127.914536     0.000026     3.168905  -124.745632
	   69 D(4,2,3,6)      =     -3.339277     0.000035     3.869960     0.530683
	   70 D(4,2,3,7)      =    112.647682     0.000017     3.904919   116.552601
	   71 D(5,8,11,14)    =     60.174244    -0.000001     0.013361    60.187605
	   72 D(5,8,11,15)    =   -179.826263    -0.000001     0.011378  -179.814886
	   73 D(5,8,11,16)    =    -59.801250    -0.000000     0.016088   -59.785162
	   74 D(6,3,5,8)      =     60.005988    -0.000000    -0.083945    59.922043
	   75 D(6,3,5,9)      =    -61.580799    -0.000001    -0.078862   -61.659661
	   76 D(6,3,5,10)     =   -177.779343     0.000001    -0.148890  -177.928233
	   77 D(7,3,5,8)      =    -58.772983    -0.000002    -0.262005   -59.034988
	   78 D(7,3,5,9)      =    179.640230    -0.000003    -0.256922   179.383308
	   79 D(7,3,5,10)     =     63.441686    -0.000001    -0.326950    63.114736
	   80 D(9,5,8,11)     =    -58.297649     0.000001     0.017364   -58.280284
	   81 D(9,5,8,12)     =     63.777045     0.000000     0.008434    63.785479
	   82 D(9,5,8,13)     =    179.865946     0.000002     0.028409   179.894355
	   83 D(10,5,8,11)    =     58.428665     0.000003     0.159655    58.588321
	   84 D(10,5,8,12)    =   -179.496641     0.000002     0.150725  -179.345916
	   85 D(10,5,8,13)    =    -63.407740     0.000003     0.170700   -63.237040
	   86 D(12,8,11,14)   =    -61.917993    -0.000001     0.003727   -61.914265
	   87 D(12,8,11,15)   =     58.081499    -0.000001     0.001744    58.083243
	   88 D(12,8,11,16)   =    178.106513    -0.000000     0.006455   178.112968
	   89 D(13,8,11,14)   =   -178.120707     0.000001     0.008643  -178.112065
	   90 D(13,8,11,15)   =    -58.121215     0.000001     0.006659   -58.114556
	   91 D(13,8,11,16)   =     61.903799     0.000002     0.011370    61.915168
	 ---------------------------------------------------------------------------

  ==> Convergence Check <==

  Measures of convergence in internal coordinates in au.
  Criteria marked as inactive (o), active & met (*), and active & unmet ( ).
  ---------------------------------------------------------------------------------------------
   Step     Total Energy     Delta E     MAX Force     RMS Force      MAX Disp      RMS Disp   
  ---------------------------------------------------------------------------------------------
    Convergence Criteria    1.00e-06 *    3.00e-04 *             o    1.20e-03 *             o
  ---------------------------------------------------------------------------------------------
      2    -383.94002681   -4.45e-04      2.02e-03      5.34e-04 o    6.82e-02      1.31e-02 o  ~
  ---------------------------------------------------------------------------------------------

	Writing optimization data to binary file.
	Structure for next step:
	Cartesian Geometry (in Angstrom)
	    O     1.4249016861   0.8154238835   0.9789296697
	    C     1.1637204584   0.0025657996   0.1504895107
	    C    -0.1208231345  -0.7921763225   0.1244555001
	    O     1.9737913848  -0.2909254219  -0.8576335540
	    C    -1.3541231254   0.1180213185   0.1431128467
	    H    -0.1263546681  -1.4652026754  -0.7219553401
	    H    -0.1133997596  -1.3993107246   1.0257649213
	    C    -2.6619294497  -0.6704108343   0.2202400453
	    H    -1.3602175807   0.7363452758  -0.7529970971
	    H    -1.2776751461   0.7935033658   0.9886316957
	    C    -3.8950130220   0.2318740428   0.2375575288
	    H    -2.7247363149  -1.3528664122  -0.6244405636
	    H    -2.6541655602  -1.2892629156   1.1148032830
	    H    -3.9486955579   0.8400125839  -0.6608963966
	    H    -4.8073657474  -0.3531404931   0.2958158933
	    H    -3.8766181965   0.9035159926   1.0907985657
	    C     3.2091641564   0.3995730610  -0.9078130254
	    H     3.0463287562   1.4645084528  -0.9905296488
	    H     3.7184863095   0.0294576284  -1.7839328935
	    H     3.7925953338   0.1975388945  -0.0211497734
			--------------------------
			 OPTKING Finished Execution 
			--------------------------

    Structure for next step:
    Molecular point group: c1
    Full point group: C1

    Geometry (in Angstrom), charge = 0, multiplicity = 1:

    O            1.424547598838     0.824376244546     0.974549964969
    C            1.163366391048     0.011518222701     0.146109869247
    C           -0.121177103747    -0.783223838749     0.120075860624
    O            1.973437255545    -0.281972976407    -0.862013118454
    C           -1.354477000447     0.126973732774     0.138733205813
    H           -0.126708636892    -1.456250140258    -0.726334914858
    H           -0.113753729430    -1.390358194419     1.021385213059
    C           -2.662283224894    -0.661458359832     0.215860398521
    H           -1.360571455353     0.745297642909    -0.757376669491
    H           -1.278029027063     0.802455728551     0.984251990274
    C           -3.895366703082     0.240826448408     0.233177880770
    H           -2.725090085273    -1.343913885601    -0.628820145900
    H           -2.654519335985    -1.280310393840     1.110423567897
    H           -3.949049234828     0.848964943069    -0.665275976047
    H           -4.807719358747    -0.344188042807     0.291436240735
    H           -3.876971878909     0.912468346897     1.086418852439
    C            3.208809932872     0.408525453742    -0.912192586008
    H            3.045974545123     1.473460764237    -0.994909203105
    H            3.718132047017     0.038410049424    -1.788312387223
    H            3.792241065689     0.206491302760    -0.025529401726

gradient() will perform analytic gradient computation.

*** tstart() called on cx1-1-2-3.cx1.hpc.ic.ac.uk
*** at Fri Sep  2 12:53:22 2016


         ---------------------------------------------------------
                                   SCF
            by Justin Turney, Rob Parrish, and Andy Simmonett
                              RHF Reference
                        4 Threads,   2000 MiB Core
         ---------------------------------------------------------

  ==> Geometry <==

    Molecular point group: c1
    Full point group: C1

    Geometry (in Angstrom), charge = 0, multiplicity = 1:

       Center              X                  Y                   Z               Mass       
    ------------   -----------------  -----------------  -----------------  -----------------
           O          1.424547598838     0.824376244546     0.974549964969    15.994914619560
           C          1.163366391048     0.011518222701     0.146109869247    12.000000000000
           C         -0.121177103747    -0.783223838749     0.120075860624    12.000000000000
           O          1.973437255545    -0.281972976407    -0.862013118454    15.994914619560
           C         -1.354477000447     0.126973732774     0.138733205813    12.000000000000
           H         -0.126708636892    -1.456250140258    -0.726334914858     1.007825032070
           H         -0.113753729430    -1.390358194419     1.021385213059     1.007825032070
           C         -2.662283224894    -0.661458359832     0.215860398521    12.000000000000
           H         -1.360571455353     0.745297642909    -0.757376669491     1.007825032070
           H         -1.278029027063     0.802455728551     0.984251990274     1.007825032070
           C         -3.895366703082     0.240826448408     0.233177880770    12.000000000000
           H         -2.725090085273    -1.343913885601    -0.628820145900     1.007825032070
           H         -2.654519335985    -1.280310393840     1.110423567897     1.007825032070
           H         -3.949049234828     0.848964943069    -0.665275976047     1.007825032070
           H         -4.807719358747    -0.344188042807     0.291436240735     1.007825032070
           H         -3.876971878909     0.912468346897     1.086418852439     1.007825032070
           C          3.208809932872     0.408525453742    -0.912192586008    12.000000000000
           H          3.045974545123     1.473460764237    -0.994909203105     1.007825032070
           H          3.718132047017     0.038410049424    -1.788312387223     1.007825032070
           H          3.792241065689     0.206491302760    -0.025529401726     1.007825032070

  Running in c1 symmetry.

  Rotational constants: A =      0.21456  B =      0.02511  C =      0.02415 [cm^-1]
  Rotational constants: A =   6432.35601  B =    752.76294  C =    724.11469 [MHz]
  Nuclear repulsion =  381.559194475938909

  Charge       = 0
  Multiplicity = 1
  Electrons    = 64
  Nalpha       = 32
  Nbeta        = 32

  ==> Algorithm <==

  SCF Algorithm Type is DF.
  DIIS enabled.
  MOM disabled.
  Fractional occupation disabled.
  Guess Type is READ.
  Energy threshold   = 1.00e-08
  Density threshold  = 1.00e-08
  Integral threshold = 0.00e+00

  ==> Primary Basis <==

  Basis Set: 6-31G*
    Number of shells: 72
    Number of basis function: 144
[...]
	 R(5,8)           =         2.889494	       1.529055
	 R(5,9)           =         2.055849	       1.087909
	 R(5,10)          =         2.049823	       1.084720
	 R(8,11)          =         2.887695	       1.528103
	 R(8,12)          =         2.055701	       1.087830
	 R(8,13)          =         2.055783	       1.087873
	 R(11,14)         =         2.052666	       1.086224
	 R(11,15)         =         2.051127	       1.085410
	 R(11,16)         =         2.052319	       1.086040
	 R(17,18)         =         2.041687	       1.080414
	 R(17,19)         =         2.038677	       1.078821
	 R(17,20)         =         2.041663	       1.080402
	 B(1,2,3)         =         2.166942	     124.156614
	 B(1,2,4)         =         2.149616	     123.163929
	 B(2,3,5)         =         1.950026	     111.728256
	 B(2,3,6)         =         1.913524	     109.636837
	 B(2,3,7)         =         1.861804	     106.673518
	 B(2,4,17)        =         2.040474	     116.910575
	 B(3,2,4)         =         1.966609	     112.678418
	 B(3,5,8)         =         1.962058	     112.417660
	 B(3,5,9)         =         1.907788	     109.308223
	 B(3,5,10)        =         1.899485	     108.832498
	 B(4,17,18)       =         1.929399	     110.546393
	 B(4,17,19)       =         1.847581	     105.858606
	 B(4,17,20)       =         1.929390	     110.545911
	 B(5,3,6)         =         1.944345	     111.402772
	 B(5,3,7)         =         1.911043	     109.494713
	 B(5,8,11)        =         1.966754	     112.686692
	 B(5,8,12)        =         1.911167	     109.501811
	 B(5,8,13)        =         1.907504	     109.291904
	 B(6,3,7)         =         1.879955	     107.713513
	 B(8,5,9)         =         1.909199	     109.389031
	 B(8,5,10)        =         1.920106	     110.013965
	 B(8,11,14)       =         1.940121	     111.160734
	 B(8,11,15)       =         1.940012	     111.154476
	 B(8,11,16)       =         1.939474	     111.123663
	 B(9,5,10)        =         1.862497	     106.713192
	 B(11,8,12)       =         1.909524	     109.407676
	 B(11,8,13)       =         1.909307	     109.395248
	 B(12,8,13)       =         1.856309	     106.358694
	 B(14,11,15)      =         1.880453	     107.742023
	 B(14,11,16)      =         1.879895	     107.710063
	 B(15,11,16)      =         1.881190	     107.784257
	 B(18,17,19)      =         1.925635	     110.330783
	 B(18,17,20)      =         1.905858	     109.197597
	 B(19,17,20)      =         1.925626	     110.330251
	 D(1,2,3,5)       =         0.977284	      55.994243
	*D(1,2,3,6)       =         3.141593	     180.000000
	 D(1,2,3,7)       =        -1.110625	     -63.634125
	 D(1,2,4,17)      =         0.003260	       0.186770
	 D(2,3,5,8)       =        -3.088548	    -176.960752
	 D(2,3,5,9)       =         1.071061	      61.367264
	 D(2,3,5,10)      =        -0.956948	     -54.829088
	 D(2,4,17,18)     =        -1.058594	     -60.652944
	 D(2,4,17,19)     =         3.139183	     179.861953
	 D(2,4,17,20)     =         1.053790	      60.377746
	 D(3,2,4,17)      =        -3.132097	    -179.455912
	 D(3,5,8,11)      =        -3.134969	    -179.620499
	 D(3,5,8,12)      =        -1.005429	     -57.606815
	 D(3,5,8,13)      =         1.021561	      58.531141
	 D(4,2,3,5)       =        -2.170618	    -124.367222
	 D(4,2,3,6)       =        -0.006298	      -0.360852
	 D(4,2,3,7)       =         2.024659	     116.004411
	 D(5,8,11,14)     =         1.048939	      60.099753
	 D(5,8,11,15)     =        -3.139663	    -179.889415
	 D(5,8,11,16)     =        -1.044580	     -59.850031
	 D(6,3,5,8)       =         1.047743	      60.031249
	 D(6,3,5,9)       =        -1.075834	     -61.640735
	 D(6,3,5,10)      =        -3.103843	    -177.837088
	 D(7,3,5,8)       =        -1.029902	     -59.009028
	 D(7,3,5,9)       =         3.129707	     179.318988
	 D(7,3,5,10)      =         1.101698	      63.122635
	 D(9,5,8,11)      =        -1.012196	     -57.994551
	 D(9,5,8,12)      =         1.117345	      64.019132
	 D(9,5,8,13)      =        -3.138851	    -179.842911
	 D(10,5,8,11)     =         1.028346	      58.919873
	 D(10,5,8,12)     =        -3.125299	    -179.066443
	 D(10,5,8,13)     =        -1.098309	     -62.928487
	 D(12,8,11,14)    =        -1.081529	     -61.967061
	 D(12,8,11,15)    =         1.013055	      58.043771
	 D(12,8,11,16)    =         3.108137	     178.083155
	 D(13,8,11,14)    =        -3.108612	    -178.110355
	 D(13,8,11,15)    =        -1.014028	     -58.099523
	 D(13,8,11,16)    =         1.081055	      61.939861

	Current energy   :      -383.9401883413

	Energy change for the previous step:
		Projected    :        -0.0000044625
		Actual       :        -0.0000000409
	Energy ratio indicates iffy step: Trust radius decreased to 9.375e-02.


	Performing BFGS update.
	Previous computed or guess Hessian on step 1.
	Steps to be used in Hessian update: 5 4
	Taking RFO optimization step.
	Going to follow RFO solution 1.
	Using RFO vector 1.
	Norm of target step-size    0.01350
	Projected energy change by RFO approximation:        -0.0000011052

	Back-transformation to cartesian coordinates...
	Successfully converged to displaced geometry.

	Back-transformation to cartesian coordinates to adjust frozen coordinates...
	Successfully converged to displaced geometry.

	--- Internal Coordinate Step in ANG or DEG, aJ/ANG or AJ/DEG ---
	 ---------------------------------------------------------------------------
	   Coordinate                Previous        Force       Change         New 
	   ----------                --------       ------       ------       ------
	    1 R(1,2)          =      1.189979    -0.000292    -0.000015     1.189964
	    2 R(2,3)          =      1.510073     0.000144     0.000020     1.510093
	    3 R(2,4)          =      1.324813     0.000693     0.000075     1.324887
	    4 R(3,5)          =      1.532881    -0.000411    -0.000063     1.532818
	    5 R(3,6)          =      1.082456    -0.000303    -0.000051     1.082406
	    6 R(3,7)          =      1.086331     0.000458     0.000063     1.086393
	    7 R(4,17)         =      1.416511    -0.000026    -0.000007     1.416503
	    8 R(5,8)          =      1.529055     0.000035     0.000014     1.529068
	    9 R(5,9)          =      1.087909     0.000218     0.000040     1.087948
	   10 R(5,10)         =      1.084720    -0.000069    -0.000012     1.084708
	   11 R(8,11)         =      1.528103    -0.000115    -0.000022     1.528080
	   12 R(8,12)         =      1.087830     0.000031    -0.000001     1.087829
	   13 R(8,13)         =      1.087873    -0.000006     0.000004     1.087877
	   14 R(11,14)        =      1.086224    -0.000030    -0.000001     1.086223
	   15 R(11,15)        =      1.085410    -0.000031    -0.000004     1.085406
	   16 R(11,16)        =      1.086040     0.000046     0.000003     1.086043
	   17 R(17,18)        =      1.080414    -0.000028    -0.000007     1.080408
	   18 R(17,19)        =      1.078821    -0.000008    -0.000000     1.078821
	   19 R(17,20)        =      1.080402     0.000030     0.000007     1.080408
	   20 B(1,2,3)        =    124.156614    -0.000002    -0.006700   124.149914
	   21 B(1,2,4)        =    123.163929     0.000000     0.003295   123.167224
	   22 B(2,3,5)        =    111.728256     0.000003     0.011162   111.739418
	   23 B(2,3,6)        =    109.636837    -0.000000     0.000366   109.637203
	   24 B(2,3,7)        =    106.673518    -0.000001    -0.007906   106.665612
	   25 B(2,4,17)       =    116.910575    -0.000001    -0.000390   116.910185
	   26 B(3,2,4)        =    112.678418     0.000001     0.003278   112.681695
	   27 B(3,5,8)        =    112.417660    -0.000000     0.000272   112.417932
	   28 B(3,5,9)        =    109.308223     0.000002     0.016150   109.324373
	   29 B(3,5,10)       =    108.832498    -0.000002    -0.020066   108.812432
	   30 B(4,17,18)      =    110.546393    -0.000001     0.001479   110.547872
	   31 B(4,17,19)      =    105.858606    -0.000000    -0.002327   105.856279
	   32 B(4,17,20)      =    110.545911     0.000001     0.000801   110.546711
	   33 B(5,3,6)        =    111.402772    -0.000002    -0.002680   111.400092
	   34 B(5,3,7)        =    109.494713     0.000001     0.006287   109.501000
	   35 B(5,8,11)       =    112.686692    -0.000000    -0.000386   112.686306
	   36 B(5,8,12)       =    109.501811     0.000001     0.005171   109.506983
	   37 B(5,8,13)       =    109.291904    -0.000001    -0.002488   109.289416
	   38 B(6,3,7)        =    107.713513     0.000000    -0.008114   107.705399
	   39 B(8,5,9)        =    109.389031    -0.000000     0.006160   109.395191
	   40 B(8,5,10)       =    110.013965     0.000001    -0.002237   110.011729
	   41 B(8,11,14)      =    111.160734    -0.000001    -0.001138   111.159596
	   42 B(8,11,15)      =    111.154476    -0.000001    -0.002005   111.152471
	   43 B(8,11,16)      =    111.123663     0.000001     0.001083   111.124745
	   44 B(9,5,10)       =    106.713192    -0.000000    -0.000270   106.712922
	   45 B(11,8,12)      =    109.407676     0.000000     0.001586   109.409262
	   46 B(11,8,13)      =    109.395248    -0.000000    -0.004158   109.391090
	   47 B(12,8,13)      =    106.358694    -0.000000     0.000300   106.358994
	   48 B(14,11,15)     =    107.742023     0.000001     0.001084   107.743107
	   49 B(14,11,16)     =    107.710063     0.000000     0.000950   107.711013
	   50 B(15,11,16)     =    107.784257    -0.000000     0.000151   107.784407
	   51 B(18,17,19)     =    110.330783     0.000000     0.000651   110.331434
	   52 B(18,17,20)     =    109.197597    -0.000000    -0.000094   109.197504
	   53 B(19,17,20)     =    110.330251    -0.000000    -0.000542   110.329709
	   54 D(1,2,3,5)      =     55.994243     0.000000    -0.004628    55.989614
	   55 *D(1,2,3,6)     =    180.000000    -0.000000     0.000000   180.000000
	   56 D(1,2,3,7)      =    -63.634125    -0.000000    -0.013694   -63.647819
	   57 D(1,2,4,17)     =      0.186770     0.000000    -0.004357     0.182413
	   58 D(2,3,5,8)      =   -176.960752     0.000000     0.105035  -176.855717
	   59 D(2,3,5,9)      =     61.367264    -0.000000     0.085705    61.452969
	   60 D(2,3,5,10)     =    -54.829088     0.000000     0.088310   -54.740778
	   61 D(2,4,17,18)    =    -60.652944    -0.000000    -0.022335   -60.675278
	   62 D(2,4,17,19)    =    179.861953     0.000000    -0.022534   179.839419
	   63 D(2,4,17,20)    =     60.377746    -0.000000    -0.020942    60.356804
	   64 D(3,2,4,17)     =   -179.455912     0.000000     0.016911  -179.439001
	   65 D(3,5,8,11)     =   -179.620499    -0.000001    -0.237975  -179.858475
	   66 D(3,5,8,12)     =    -57.606815    -0.000000    -0.232514   -57.839330
	   67 D(3,5,8,13)     =     58.531141    -0.000000    -0.230648    58.300493
	   68 D(4,2,3,5)      =   -124.367222     0.000000    -0.026098  -124.393320
	   69 D(4,2,3,6)      =     -0.360852    -0.000000    -0.021468    -0.382320
	   70 D(4,2,3,7)      =    116.004411    -0.000000    -0.035164   115.969247
	   71 D(5,8,11,14)    =     60.099753     0.000000     0.107632    60.207385
	   72 D(5,8,11,15)    =   -179.889415     0.000000     0.106896  -179.782519
	   73 D(5,8,11,16)    =    -59.850031     0.000000     0.106468   -59.743562
	   74 D(6,3,5,8)      =     60.031249     0.000000     0.098409    60.129658
	   75 D(6,3,5,9)      =    -61.640735    -0.000000     0.079079   -61.561656
	   76 D(6,3,5,10)     =   -177.837088    -0.000000     0.081684  -177.755403
	   77 D(7,3,5,8)      =    -59.009028     0.000000     0.106098   -58.902931
	   78 D(7,3,5,9)      =    179.318988     0.000000     0.086767   179.405755
	   79 D(7,3,5,10)     =     63.122635     0.000000     0.089372    63.212007
	   80 D(9,5,8,11)     =    -57.994551    -0.000000    -0.212943   -58.207495
	   81 D(9,5,8,12)     =     64.019132    -0.000000    -0.207482    63.811650
	   82 D(9,5,8,13)     =   -179.842911    -0.000000    -0.205616  -180.048527
	   83 D(10,5,8,11)    =     58.919873    -0.000000    -0.210950    58.708923
	   84 D(10,5,8,12)    =   -179.066443     0.000000    -0.205489  -179.271932
	   85 D(10,5,8,13)    =    -62.928487     0.000000    -0.203622   -63.132109
	   86 D(12,8,11,14)   =    -61.967061     0.000000     0.100151   -61.866910
	   87 D(12,8,11,15)   =     58.043771    -0.000000     0.099414    58.143186
	   88 D(12,8,11,16)   =    178.083155    -0.000000     0.098987   178.182142
	   89 D(13,8,11,14)   =   -178.110355     0.000000     0.101245  -178.009111
	   90 D(13,8,11,15)   =    -58.099523     0.000000     0.100508   -57.999015
	   91 D(13,8,11,16)   =     61.939861     0.000000     0.100081    62.039942
	 ---------------------------------------------------------------------------

  ==> Convergence Check <==

  Measures of convergence in internal coordinates in au.
  Criteria marked as inactive (o), active & met (*), and active & unmet ( ).
  ---------------------------------------------------------------------------------------------
   Step     Total Energy     Delta E     MAX Force     RMS Force      MAX Disp      RMS Disp   
  ---------------------------------------------------------------------------------------------
    Convergence Criteria    1.00e-06 *    3.00e-04 *             o    1.20e-03 *             o
  ---------------------------------------------------------------------------------------------
      6    -383.94018834   -4.09e-08 *    8.41e-05 *    1.72e-05 o    4.15e-03      1.42e-03 o  ~
  ---------------------------------------------------------------------------------------------


  **** Optimization is complete! (in 6 steps) ****

  ==> Optimization Summary <==

  Measures of convergence in internal coordinates in au.
  --------------------------------------------------------------------------------------------------------------- ~
   Step         Total Energy             Delta E       MAX Force       RMS Force        MAX Disp        RMS Disp  ~
  --------------------------------------------------------------------------------------------------------------- ~
      1    -383.939581625631   -383.939581625631      0.00588635      0.00122588      0.08005446      0.01969403  ~
      2    -383.940026805840     -0.000445180208      0.00202024      0.00053441      0.06815370      0.01310157  ~
      3    -383.940115184996     -0.000088379157      0.00130325      0.00037591      0.01889789      0.00542570  ~
      4    -383.940186408766     -0.000071223770      0.00056744      0.00009475      0.00706267      0.00254052  ~
      5    -383.940188300392     -0.000001891626      0.00010284      0.00002441      0.00732230      0.00233938  ~
      6    -383.940188341292     -0.000000040900      0.00008408      0.00001725      0.00415345      0.00141537  ~
  --------------------------------------------------------------------------------------------------------------- ~

	Writing optimization data to binary file.
	Final energy is   -383.9401883412920
	Final (previous) structure:
	Cartesian Geometry (in Angstrom)
	    O     1.4393532581   0.8214336349   0.9829993689
	    C     1.1633426720   0.0160389229   0.1516110693
	    C    -0.1192706591  -0.7808140497   0.1358344005
	    O     1.9623805917  -0.2820433484  -0.8622004366
	    C    -1.3528351565   0.1290246132   0.1511954179
	    H    -0.1264692010  -1.4416088067  -0.7214927434
	    H    -0.1133634067  -1.3986745690   1.0293261196
	    C    -2.6600806107  -0.6619276363   0.2104583729
	    H    -1.3493616674   0.7548033314  -0.7387114195
	    H    -1.2843833563   0.7973815875   1.0028001545
	    C    -3.8943087913   0.2390379865   0.2167115447
	    H    -2.7124894993  -1.3409177876  -0.6378339709
	    H    -2.6630820580  -1.2849587875   1.1022496095
	    H    -3.9373582605   0.8513333496  -0.6794600725
	    H    -4.8068453609  -0.3469863265   0.2610582858
	    H    -3.8870281950   0.9068925905   1.0730998235
	    C     3.1986547070   0.4062880149  -0.9279941282
	    H     3.0357870780   1.4707378571  -1.0158304086
	    H     3.6992274316   0.0299454229  -1.8064296437
	    H     3.7899296991   0.2089821393  -0.0455362787
	Saving final (previous) structure.
			--------------------------
			 OPTKING Finished Execution 
			--------------------------

    Final optimized geometry and variables:
    Molecular point group: c1
    Full point group: C1

    Geometry (in Angstrom), charge = 0, multiplicity = 1:

    O            1.439353148191     0.821433572165     0.982999293865
    C            1.163342583121     0.016038921636     0.151611057698
    C           -0.119270650036    -0.780813990062     0.135834390142
    O            1.962380441815    -0.282043326907    -0.862200370805
    C           -1.352835053175     0.129024603380     0.151195406334
    H           -0.126469191305    -1.441608696566    -0.721492688303
    H           -0.113363398015    -1.398674462185     1.029326041046
    C           -2.660080407576    -0.661927585732     0.210458356806
    H           -1.349361564382     0.754803273800    -0.738711363065
    H           -1.284383258225     0.797381526605     1.002800077936
    C           -3.894308493879     0.239037968233     0.216711528164
    H           -2.712489292156    -1.340917685211    -0.637833922151
    H           -2.663081854660    -1.284958689331     1.102249525358
    H           -3.937357959855     0.851333284572    -0.679460020634
    H           -4.806844993832    -0.346986299954     0.261058265872
    H           -3.887027898137     0.906892521256     1.073099741592
    C            3.198654462700     0.406287983915    -0.927994057296
    H            3.035786846189     1.470737744791    -1.015830331070
    H            3.699227149079     0.029945420648    -1.806429505751
    H            3.789929409657     0.208982123311    -0.045536275201

	Cleaning optimization helper files.


Properties will be evaluated at   0.000000,   0.000000,   0.000000 Bohr

Properties computed using the  density matrix

  Nuclear Dipole Moment: (a.u.)
     X:    -9.6916      Y:    -0.7409      Z:    -1.1026

  Electronic Dipole Moment: (a.u.)
     X:     9.6538      Y:     0.3250      Z:     0.5257

  Dipole Moment: (a.u.)
     X:    -0.0377      Y:    -0.4158      Z:    -0.5769     Total:     0.7122

  Dipole Moment: (Debye)
     X:    -0.0959      Y:    -1.0570      Z:    -1.4664     Total:     1.8102

  Quadrupole Moment: (Debye Ang)
    XX:   -44.1952     YY:   -51.2021     ZZ:   -51.9116
    XY:     0.0384     XZ:    -3.9419     YZ:    -3.5708

  Traceless Quadrupole Moment: (Debye Ang)
    XX:     4.9078     YY:    -2.0991     ZZ:    -2.8086
    XY:     0.0384     XZ:    -3.9419     YZ:    -3.5708

  Mulliken Charges: (a.u.)
   Center  Symbol    Alpha    Beta     Spin     Total
       1     O     4.28727  4.28727  0.00000 -0.57454
       2     C     2.60860  2.60860  0.00000  0.78281
       3     C     3.20403  3.20403  0.00000 -0.40806
       4     O     4.30355  4.30355  0.00000 -0.60709
       5     C     3.16078  3.16078  0.00000 -0.32155
       6     H     0.40067  0.40067  0.00000  0.19866
       7     H     0.40121  0.40121  0.00000  0.19758
       8     C     3.15340  3.15340  0.00000 -0.30679
       9     H     0.41740  0.41740  0.00000  0.16520
      10     H     0.40370  0.40370  0.00000  0.19260
      11     C     3.24000  3.24000  0.00000 -0.48000
      12     H     0.42179  0.42179  0.00000  0.15643
      13     H     0.42088  0.42088  0.00000  0.15825
      14     H     0.42061  0.42061  0.00000  0.15878
      15     H     0.41799  0.41799  0.00000  0.16401
      16     H     0.41912  0.41912  0.00000  0.16177
      17     C     3.09365  3.09365  0.00000 -0.18729
      18     H     0.40851  0.40851  0.00000  0.18299
      19     H     0.40839  0.40839  0.00000  0.18321
      20     H     0.40848  0.40848  0.00000  0.18305

   Total alpha = 32.00000, Total beta = 32.00000, Total charge =  0.00000


*** PSI4 exiting successfully. Buy a developer a beer!
