    -----------------------------------------------------------------------
          Psi4: An Open-Source Ab Initio Electronic Structure Package
                              Psi4 (no tag) Driver

                          Git: Rev {detached?}  

    J. M. Turney, A. C. Simmonett, R. M. Parrish, E. G. Hohenstein,
    F. A. Evangelista, J. T. Fermann, B. J. Mintz, L. A. Burns, J. J. Wilke,
    M. L. Abrams, N. J. Russ, M. L. Leininger, C. L. Janssen, E. T. Seidl,
    W. D. Allen, H. F. Schaefer, R. A. King, E. F. Valeev, C. D. Sherrill,
    and T. D. Crawford, WIREs Comput. Mol. Sci. 2, 556-565 (2012)
    (doi: 10.1002/wcms.93)

                         Additional Contributions by
    A. E. DePrince, M. Saitow, U. Bozkaya, A. Yu. Sokolov
    -----------------------------------------------------------------------


    Psi4 started on: Thu Sep  1 22:16:40 2016

    Process ID:  27877
    PSI4DATADIR: /export131/home/mjharvey/miniconda3/share
    Memory level set to 256.000 MB

  ==> Input File <==

--------------------------------------------------------------------------
set {
	reference rhf
	basis 6-31G*
}


set_num_threads( 1 )
memory 2 gb

molecule MOL {
0 1

H	 -0.109086	 3.903528	 1.304428
O	 -0.185914	 3.766627	 0.370756
C	 -0.167573	 2.392200	 0.092188
C	 1.231991	 1.820088	 0.232100
H	 -0.852396	 1.843794	 0.732990
H	 -0.505424	 2.273951	 -0.927775
O	 1.171513	 0.459272	 -0.058250
H	 1.602206	 1.979652	 1.246723
H	 1.907662	 2.337476	 -0.446400
C	 2.397842	 -0.198080	 -0.002151
H	 2.508049	 -0.905315	 -0.822092
H	 3.173794	 0.550865	 -0.078850
H	 2.517602	 -0.735921	 0.936026

	symmetry c1
}
set optking {
	frozen_dihedral = ("
		8 4 3 5,
		1 2 3 5,
		10 7 4 8
	")
}

ee = energy('scf')
oeprop('DIPOLE', 'QUADRUPOLE', 'MULLIKEN_CHARGES')
f=open( 'psi4out.xyz', 'w' )
f.write( "13  " )
f.write( str(ee) + "\n" )
f.write( MOL.save_string_xyz() )
f.close()
--------------------------------------------------------------------------

  Memory set to   2.000 GiB by Python script.

*** tstart() called on cx1-3-16-4.cx1.hpc.ic.ac.uk
*** at Thu Sep  1 22:16:41 2016


         ---------------------------------------------------------
                                   SCF
            by Justin Turney, Rob Parrish, and Andy Simmonett
                              RHF Reference
                        1 Threads,   2000 MiB Core
         ---------------------------------------------------------

  ==> Geometry <==

    Molecular point group: c1
    Full point group: C1

    Geometry (in Angstrom), charge = 0, multiplicity = 1:

       Center              X                  Y                   Z               Mass       
    ------------   -----------------  -----------------  -----------------  -----------------
           H         -0.998396788174     2.232319904030     1.162099596575     1.007825032070
           O         -1.075224788174     2.095418904030     0.228427596575    15.994914619560
           C         -1.056883788174     0.720991904030    -0.050140403425    12.000000000000
           C          0.342680211826     0.148879904030     0.089771596575    12.000000000000
           H         -1.741706788174     0.172585904030     0.590661596575     1.007825032070
           H         -1.394734788174     0.602742904030    -1.070103403425     1.007825032070
           O          0.282202211826    -1.211936095970    -0.200578403425    15.994914619560
           H          0.712895211826     0.308443904030     1.104394596575     1.007825032070
           H          1.018351211826     0.666267904030    -0.588728403425     1.007825032070
           C          1.508531211826    -1.869288095970    -0.144479403425    12.000000000000
           H          1.618738211826    -2.576523095970    -0.964420403425     1.007825032070
           H          2.284483211826    -1.120343095970    -0.221178403425     1.007825032070
           H          1.628291211826    -2.407129095970     0.793697596575     1.007825032070

  Running in c1 symmetry.

  Rotational constants: A =      0.76891  B =      0.07225  C =      0.06894 [cm^-1]
  Rotational constants: A =  23051.20277  B =   2166.07202  C =   2066.88379 [MHz]
  Nuclear repulsion =  190.334647804546563

  Charge       = 0
  Multiplicity = 1
  Electrons    = 42
  Nalpha       = 21
  Nbeta        = 21

  ==> Algorithm <==

  SCF Algorithm Type is DF.
  DIIS enabled.
  MOM disabled.
  Fractional occupation disabled.
  Guess Type is CORE.
  Energy threshold   = 1.00e-06
  Density threshold  = 1.00e-06
  Integral threshold = 0.00e+00

  ==> Primary Basis <==

  Basis Set: 6-31G*
    Number of shells: 46
    Number of basis function: 91
    Number of Cartesian functions: 91
    Spherical Harmonics?: false
    Max angular momentum: 2

  ==> Pre-Iterations <==

   -------------------------------------------------------
    Irrep   Nso     Nmo     Nalpha   Nbeta   Ndocc  Nsocc
   -------------------------------------------------------
     A         91      91       0       0       0       0
   -------------------------------------------------------
    Total      91      91      21      21      21       0
   -------------------------------------------------------

 OEINTS: Overlap, kinetic, potential, dipole, and quadrupole integrals
         stored in file 35.

  ==> Integral Setup <==

  ==> DFJK: Density-Fitted J/K Matrices <==

    J tasked:                  Yes
    K tasked:                  Yes
    wK tasked:                  No
    OpenMP threads:              1
    Integrals threads:           1
    Memory (MB):              1430
    Algorithm:                Core
    Integral Cache:           NONE
    Schwarz Cutoff:          1E-12
    Fitting Condition:       1E-12

   => Auxiliary Basis Set <=

  Basis Set: 
    Number of shells: 192
    Number of basis function: 605
    Number of Cartesian functions: 605
    Spherical Harmonics?: false
    Max angular momentum: 3

  Minimum eigenvalue in the overlap matrix is 3.9669803677E-03.
  Using Symmetric Orthogonalization.
  SCF Guess: Core (One-Electron) Hamiltonian.

  ==> Iterations <==

                           Total Energy        Delta E     RMS |[F,P]|

   @DF-RHF iter   1:  -225.33067733210507   -2.25331e+02   7.72217e-02 
   @DF-RHF iter   2:  -169.58402412845268    5.57467e+01   6.99933e-02 DIIS
   @DF-RHF iter   3:  -228.00528167230127   -5.84213e+01   6.72765e-02 DIIS
   @DF-RHF iter   4:  -257.60214263145929   -2.95969e+01   3.73400e-02 DIIS
   @DF-RHF iter   5:  -267.44922194354774   -9.84708e+00   1.10297e-02 DIIS
   @DF-RHF iter   6:  -267.90497394940110   -4.55752e-01   3.50613e-03 DIIS
   @DF-RHF iter   7:  -267.94201271053191   -3.70388e-02   9.62007e-04 DIIS
   @DF-RHF iter   8:  -267.94521633103614   -3.20362e-03   5.01872e-04 DIIS
   @DF-RHF iter   9:  -267.94622720760594   -1.01088e-03   2.11269e-04 DIIS
   @DF-RHF iter  10:  -267.94647377447370   -2.46567e-04   4.98570e-05 DIIS
   @DF-RHF iter  11:  -267.94648945758001   -1.56831e-05   1.57347e-05 DIIS
   @DF-RHF iter  12:  -267.94649117885376   -1.72127e-06   3.92174e-06 DIIS
   @DF-RHF iter  13:  -267.94649131607844   -1.37225e-07   8.41965e-07 DIIS

  ==> Post-Iterations <==

    Orbital Energies (a.u.)
    -----------------------

    Doubly Occupied:                                                      

       1A    -20.560239     2A    -20.559641     3A    -11.271877  
       4A    -11.269877     5A    -11.268955     6A     -1.388116  
       7A     -1.365215     8A     -1.017883     9A     -0.913138  
      10A     -0.843624    11A     -0.709790    12A     -0.672166  
      13A     -0.658091    14A     -0.640676    15A     -0.595512  
      16A     -0.569859    17A     -0.547138    18A     -0.490064  
      19A     -0.480941    20A     -0.438725    21A     -0.418252  

    Virtual:                                                              

      22A      0.219078    23A      0.240215    24A      0.284733  
      25A      0.295560    26A      0.299932    27A      0.326719  
      28A      0.328547    29A      0.345800    30A      0.368549  
      31A      0.420016    32A      0.444412    33A      0.479145  
      34A      0.727699    35A      0.756461    36A      0.769617  
      37A      0.789217    38A      0.810557    39A      0.841878  
      40A      0.898477    41A      0.941155    42A      0.985247  
      43A      1.064031    44A      1.091872    45A      1.110938  
      46A      1.128538    47A      1.151697    48A      1.161818  
      49A      1.178614    50A      1.193647    51A      1.214006  
      52A      1.242054    53A      1.282247    54A      1.308372  
      55A      1.367293    56A      1.399519    57A      1.478902  
      58A      1.580293    59A      1.630494    60A      1.726683  
      61A      1.762171    62A      1.804842    63A      1.829537  
      64A      1.889688    65A      1.979725    66A      2.075527  
      67A      2.126628    68A      2.189035    69A      2.281303  
      70A      2.373876    71A      2.401268    72A      2.423655  
      73A      2.469439    74A      2.504127    75A      2.560929  
      76A      2.571681    77A      2.610210    78A      2.677538  
      79A      2.776886    80A      2.816208    81A      2.883231  
      82A      2.939925    83A      3.006048    84A      3.133652  
      85A      3.263610    86A      3.361821    87A      4.157986  
      88A      4.433468    89A      4.627312    90A      4.671553  
      91A      4.875612  

    Final Occupation by Irrep:
              A 
    DOCC [    21 ]

  Energy converged.

  @DF-RHF Final Energy:  -267.94649131607844

   => Energetics <=

    Nuclear Repulsion Energy =            190.3346478045465631
    One-Electron Energy =                -743.2027215201256922
    Two-Electron Energy =                 284.9215823995016308
    DFT Exchange-Correlation Energy =       0.0000000000000000
    Empirical Dispersion Energy =           0.0000000000000000
    PCM Polarization Energy =               0.0000000000000000
    EFP Energy =                            0.0000000000000000
    Total Energy =                       -267.9464913160775268

    Alert: EFP and PCM quantities not currently incorporated into SCF psivars.

Properties will be evaluated at   0.000000,   0.000000,   0.000000 Bohr
  ==> Properties <==


Properties computed using the SCF density matrix

  Nuclear Dipole Moment: (a.u.)
     X:     2.9285      Y:    -1.9847      Z:     0.7561

  Electronic Dipole Moment: (a.u.)
     X:    -2.3535      Y:     1.7300      Z:    -0.1592

  Dipole Moment: (a.u.)
     X:     0.5750      Y:    -0.2548      Z:     0.5969     Total:     0.8671

  Dipole Moment: (Debye)
     X:     1.4616      Y:    -0.6475      Z:     1.5172     Total:     2.2040


  Saving occupied orbitals to File 180.

*** tstop() called on cx1-3-16-4.cx1.hpc.ic.ac.uk at Thu Sep  1 22:16:45 2016
Module time:
	user time   =       3.80 seconds =       0.06 minutes
	system time =       0.02 seconds =       0.00 minutes
	total time  =          4 seconds =       0.07 minutes
Total time:
	user time   =       3.80 seconds =       0.06 minutes
	system time =       0.02 seconds =       0.00 minutes
	total time  =          4 seconds =       0.07 minutes


Properties will be evaluated at   0.000000,   0.000000,   0.000000 Bohr

Properties computed using the  density matrix

  Nuclear Dipole Moment: (a.u.)
     X:     2.9285      Y:    -1.9847      Z:     0.7561

  Electronic Dipole Moment: (a.u.)
     X:    -2.3535      Y:     1.7300      Z:    -0.1592

  Dipole Moment: (a.u.)
     X:     0.5750      Y:    -0.2548      Z:     0.5969     Total:     0.8671

  Dipole Moment: (Debye)
     X:     1.4616      Y:    -0.6475      Z:     1.5172     Total:     2.2040

  Quadrupole Moment: (Debye Ang)
    XX:   -30.0957     YY:   -35.1252     ZZ:   -28.6631
    XY:    -0.6934     XZ:    -1.5445     YZ:     3.1505

  Traceless Quadrupole Moment: (Debye Ang)
    XX:     1.1989     YY:    -3.8305     ZZ:     2.6316
    XY:    -0.6934     XZ:    -1.5445     YZ:     3.1505

  Mulliken Charges: (a.u.)
   Center  Symbol    Alpha    Beta     Spin     Total
       1     H     0.28125  0.28125  0.00000  0.43749
       2     O     4.37085  4.37085  0.00000 -0.74170
       3     C     3.00477  3.00477  0.00000 -0.00955
       4     C     2.99866  2.99866  0.00000  0.00268
       5     H     0.42209  0.42209  0.00000  0.15582
       6     H     0.40836  0.40836  0.00000  0.18329
       7     O     4.30953  4.30953  0.00000 -0.61906
       8     H     0.43722  0.43722  0.00000  0.12556
       9     H     0.42221  0.42221  0.00000  0.15557
      10     C     3.07626  3.07626  0.00000 -0.15251
      11     H     0.41552  0.41552  0.00000  0.16896
      12     H     0.42918  0.42918  0.00000  0.14165
      13     H     0.42411  0.42411  0.00000  0.15179

   Total alpha = 21.00000, Total beta = 21.00000, Total charge = -0.00000


*** PSI4 exiting successfully. Buy a developer a beer!
