    -----------------------------------------------------------------------
          Psi4: An Open-Source Ab Initio Electronic Structure Package
                              Psi4 1.0.54 Driver

                          Git: Rev {master} 8d4cec3 dirty

    J. M. Turney, A. C. Simmonett, R. M. Parrish, E. G. Hohenstein,
    F. A. Evangelista, J. T. Fermann, B. J. Mintz, L. A. Burns, J. J. Wilke,
    M. L. Abrams, N. J. Russ, M. L. Leininger, C. L. Janssen, E. T. Seidl,
    W. D. Allen, H. F. Schaefer, R. A. King, E. F. Valeev, C. D. Sherrill,
    and T. D. Crawford, WIREs Comput. Mol. Sci. 2, 556-565 (2012)
    (doi: 10.1002/wcms.93)

                         Additional Contributions by
    A. E. DePrince, U. Bozkaya, A. Yu. Sokolov, D. G. A. Smith, R. Di Remigio,
    R. M. Richard, J. F. Gonthier, H. R. McAlexander, M. Saitow, and
    B. P. Pritchard
    -----------------------------------------------------------------------


    Psi4 started on: Sat Sep 10 16:27:03 2016

    Process ID:  31056
    PSI4DATADIR: /export131/home/mjharvey/miniconda3/share/psi4
    Memory level set to 256.000 MB

  ==> Input File <==

--------------------------------------------------------------------------
set {
	reference rhf
	basis cc-pvtz
}


set_num_threads( 4 )
memory 2 gb

molecule MOL {
0 1

H	 3.083659	 -1.378387	 0.000000
O	 2.179005	 -1.633391	 0.000000
C	 1.366950	 -0.558201	 0.000000
C	 -0.014834	 -0.673767	 0.000000
C	 1.954113	 0.690502	 -0.000000
H	 -0.470564	 -1.647286	 0.000000
C	 -0.805206	 0.457722	 0.000000
H	 3.021012	 0.783076	 -0.000000
C	 1.154528	 1.819231	 -0.000000
H	 -1.873143	 0.356068	 0.000000
C	 -0.225694	 1.710553	 -0.000000
C	 1.774552	 3.170138	 -0.000000
H	 -0.837710	 2.592214	 -0.000000
O	 2.939226	 3.377391	 -0.000000
H	 1.061656	 4.000426	 -0.000000

	symmetry c1
}
set optking {
	frozen_dihedral = ("
		4 3 2 1
	")
}

ee,wfn = optimize('scf', return_wfn=True)
oeprop( wfn, 'DIPOLE', 'QUADRUPOLE', 'MULLIKEN_CHARGES')
f=open( 'psi4out.xyz', 'w' )
f.write( "15  " )
f.write( str(ee) + "\n" )
f.write( MOL.save_string_xyz() )
f.close()
--------------------------------------------------------------------------

  Memory set to   2.000 GiB by Python script.
gradient() will perform analytic gradient computation.

*** tstart() called on cx1-27-2-4
*** at Sat Sep 10 16:27:04 2016


         ---------------------------------------------------------
                                   SCF
            by Justin Turney, Rob Parrish, and Andy Simmonett
                              RHF Reference
                        4 Threads,   2000 MiB Core
         ---------------------------------------------------------

  ==> Geometry <==

    Molecular point group: c1
    Full point group: Cs

    Geometry (in Angstrom), charge = 0, multiplicity = 1:

       Center              X                  Y                   Z               Mass       
    ------------   -----------------  -----------------  -----------------  -----------------
           H          1.868167501554    -2.296406994365     0.000000000000     1.007825032070
           O          0.963513501554    -2.551410994365     0.000000000000    15.994914619560
           C          0.151458501554    -1.476220994365     0.000000000000    12.000000000000
           C         -1.230325498446    -1.591786994365     0.000000000000    12.000000000000
           C          0.738621501554    -0.227517994365     0.000000000000    12.000000000000
           H         -1.686055498446    -2.565305994365     0.000000000000     1.007825032070
           C         -2.020697498446    -0.460297994365     0.000000000000    12.000000000000
           H          1.805520501554    -0.134943994365     0.000000000000     1.007825032070
           C         -0.060963498446     0.901211005635     0.000000000000    12.000000000000
           H         -3.088634498446    -0.561951994365     0.000000000000     1.007825032070
           C         -1.441185498446     0.792533005635     0.000000000000    12.000000000000
           C          0.559060501554     2.252118005635     0.000000000000    12.000000000000
           H         -2.053201498446     1.674194005635     0.000000000000     1.007825032070
           O          1.723734501554     2.459371005635     0.000000000000    15.994914619560
           H         -0.153835498446     3.082406005635     0.000000000000     1.007825032070

  Running in c1 symmetry.

  Rotational constants: A =      0.09812  B =      0.04433  C =      0.03054 [cm^-1]
  Rotational constants: A =   2941.63213  B =   1329.07018  C =    915.45494 [MHz]
  Nuclear repulsion =  404.450919060166484

  Charge       = 0
  Multiplicity = 1
  Electrons    = 64
  Nalpha       = 32
  Nbeta        = 32

  ==> Algorithm <==

  SCF Algorithm Type is DF.
  DIIS enabled.
  MOM disabled.
  Fractional occupation disabled.
  Guess Type is SAD.
  Energy threshold   = 1.00e-08
  Density threshold  = 1.00e-08
  Integral threshold = 0.00e+00

  ==> Primary Basis <==

  Basis Set: CC-PVTZ
    Number of shells: 126
    Number of basis function: 354
    Number of Cartesian functions: 405
    Spherical Harmonics?: true
    Max angular momentum: 3

  ==> Pre-Iterations <==

   -------------------------------------------------------
    Irrep   Nso     Nmo     Nalpha   Nbeta   Ndocc  Nsocc
   -------------------------------------------------------
     A        354     354       0       0       0       0
   -------------------------------------------------------
    Total     354     354      32      32      32       0
   -------------------------------------------------------

  ==> Integral Setup <==

  ==> DFJK: Density-Fitted J/K Matrices <==

    J tasked:                  Yes
    K tasked:                  Yes
    wK tasked:                  No
    OpenMP threads:              4
    Integrals threads:           4
    Memory (MB):              1430
    Algorithm:                Core
    Integral Cache:           NONE
    Schwarz Cutoff:          1E-12
    Fitting Condition:       1E-12

   => Auxiliary Basis Set <=

  Basis Set: 
    Number of shells: 285
    Number of basis function: 891
    Number of Cartesian functions: 1074
    Spherical Harmonics?: true
    Max angular momentum: 4

  Minimum eigenvalue in the overlap matrix is 3.4116520481E-05.
  Using Symmetric Orthogonalization.
  SCF Guess: Superposition of Atomic Densities via on-the-fly atomic UHF.

  ==> Iterations <==

                           Total Energy        Delta E     RMS |[F,P]|

   @DF-RHF iter   0:  -424.89425710036983   -4.24894e+02   1.75005e-02 
   @DF-RHF iter   1:  -418.20651218125965    6.68774e+00   1.61359e-03 
   @DF-RHF iter   2:  -418.37149512573217   -1.64983e-01   1.11046e-03 DIIS
   @DF-RHF iter   3:  -418.42678947022011   -5.52943e-02   2.51489e-04 DIIS
   @DF-RHF iter   4:  -418.43567794693365   -8.88848e-03   1.14617e-04 DIIS
   @DF-RHF iter   5:  -418.43758640848603   -1.90846e-03   5.28205e-05 DIIS
   @DF-RHF iter   6:  -418.43806795942157   -4.81551e-04   2.31715e-05 DIIS
   @DF-RHF iter   7:  -418.43815313308221   -8.51737e-05   6.85205e-06 DIIS
   @DF-RHF iter   8:  -418.43816304329710   -9.91021e-06   2.71564e-06 DIIS
   @DF-RHF iter   9:  -418.43816527793535   -2.23464e-06   1.41431e-06 DIIS
   @DF-RHF iter  10:  -418.43816595788417   -6.79949e-07   5.61414e-07 DIIS
   @DF-RHF iter  11:  -418.43816604337042   -8.54862e-08   1.98938e-07 DIIS
   @DF-RHF iter  12:  -418.43816605483096   -1.14605e-08   7.57683e-08 DIIS
   @DF-RHF iter  13:  -418.43816605590098   -1.07002e-09   2.19584e-08 DIIS
   @DF-RHF iter  14:  -418.43816605596714   -6.61657e-11   5.77810e-09 DIIS

  ==> Post-Iterations <==

    Orbital Energies (a.u.)
    -----------------------

    Doubly Occupied:                                                      

       1A    -20.593832     2A    -20.557205     3A    -11.330219  
       4A    -11.312902     5A    -11.252653     6A    -11.250683  
       7A    -11.245471     8A    -11.244156     9A    -11.241338  
      10A     -1.426811    11A     -1.413220    12A     -1.175057  
      13A     -1.053664    14A     -1.030005    15A     -0.904215  
      16A     -0.857849    17A     -0.800927    18A     -0.759400  
      19A     -0.707062    20A     -0.674511    21A     -0.664789  
      22A     -0.635771    23A     -0.618092    24A     -0.608486  
      25A     -0.579072    26A     -0.559729    27A     -0.536667  
      28A     -0.523702    29A     -0.493211    30A     -0.428975  
      31A     -0.359103    32A     -0.331726  

    Virtual:                                                              

      33A      0.070656    34A      0.129651    35A      0.138595  
      36A      0.144075    37A      0.164465    38A      0.191343  
      39A      0.204633    40A      0.218210    41A      0.223441  
      42A      0.311991    43A      0.322786    44A      0.332505  
      45A      0.345422    46A      0.377379    47A      0.391551  
      48A      0.424182    49A      0.424795    50A      0.452920  
      51A      0.455066    52A      0.463946    53A      0.466186  
      54A      0.491700    55A      0.503937    56A      0.514996  
      57A      0.517966    58A      0.530152    59A      0.542966  
      60A      0.552978    61A      0.560501    62A      0.576894  
      63A      0.586158    64A      0.592814    65A      0.598433  
      66A      0.610529    67A      0.622807    68A      0.632673  
      69A      0.636371    70A      0.662121    71A      0.674763  
      72A      0.699003    73A      0.708324    74A      0.723179  
      75A      0.738591    76A      0.754921    77A      0.766022  
      78A      0.782462    79A      0.789439    80A      0.805465  
      81A      0.819609    82A      0.855441    83A      0.869827  
      84A      0.872670    85A      0.904856    86A      0.906185  
      87A      0.906550    88A      0.912499    89A      0.940823  
      90A      0.949638    91A      0.967811    92A      0.992329  
      93A      1.003029    94A      1.011651    95A      1.013097  
      96A      1.034794    97A      1.054290    98A      1.058820  
      99A      1.071893   100A      1.088246   101A      1.113448  
     102A      1.148425   103A      1.163213   104A      1.181635  
     105A      1.189147   106A      1.210054   107A      1.218076  
     108A      1.252780   109A      1.280197   110A      1.306374  
     111A      1.321463   112A      1.333880   113A      1.349620  
     114A      1.367236   115A      1.408436   116A      1.430770  
     117A      1.453071   118A      1.455150   119A      1.479706  
     120A      1.494621   121A      1.506142   122A      1.523170  
     123A      1.536555   124A      1.545313   125A      1.566287  
     126A      1.576605   127A      1.592672   128A      1.597619  
     129A      1.627066   130A      1.638032   131A      1.678127  
     132A      1.685652   133A      1.708531   134A      1.720970  
     135A      1.758451   136A      1.789725   137A      1.803405  
     138A      1.915204   139A      1.971363   140A      1.984196  
     141A      2.014852   142A      2.048353   143A      2.065733  
     144A      2.155116   145A      2.163181   146A      2.186338  
     147A      2.210134   148A      2.217027   149A      2.256026  
     150A      2.308041   151A      2.324079   152A      2.358578  
     153A      2.368973   154A      2.373194   155A      2.407053  
     156A      2.422101   157A      2.453485   158A      2.458160  
     159A      2.500302   160A      2.513863   161A      2.553516  
     162A      2.567171   163A      2.576492   164A      2.595636  
     165A      2.659535   166A      2.660407   167A      2.679556  
     168A      2.716444   169A      2.734434   170A      2.751861  
     171A      2.769133   172A      2.783937   173A      2.818362  
     174A      2.847279   175A      2.848039   176A      2.863246  
     177A      2.908902   178A      2.944306   179A      2.953790  
     180A      2.959351   181A      2.965437   182A      2.993096  
     183A      3.013889   184A      3.021290   185A      3.045742  
     186A      3.063816   187A      3.070675   188A      3.110540  
     189A      3.111439   190A      3.135005   191A      3.156668  
     192A      3.156753   193A      3.194590   194A      3.221753  
     195A      3.224255   196A      3.229276   197A      3.249894  
     198A      3.279907   199A      3.300114   200A      3.308727  
     201A      3.316030   202A      3.345347   203A      3.362861  
     204A      3.374859   205A      3.380866   206A      3.399378  
     207A      3.405184   208A      3.417060   209A      3.425978  
     210A      3.434756   211A      3.438721   212A      3.448553  
     213A      3.463129   214A      3.485541   215A      3.500125  
     216A      3.501646   217A      3.536831   218A      3.563331  
     219A      3.563723   220A      3.587425   221A      3.604966  
     222A      3.622287   223A      3.635942   224A      3.659837  
     225A      3.682685   226A      3.690897   227A      3.694775  
     228A      3.717608   229A      3.738280   230A      3.745185  
     231A      3.745582   232A      3.780120   233A      3.808789  
     234A      3.826556   235A      3.839287   236A      3.896906  
     237A      3.905563   238A      3.936481   239A      3.956928  
     240A      3.971449   241A      4.002884   242A      4.029313  
     243A      4.040105   244A      4.049777   245A      4.060958  
     246A      4.090206   247A      4.106191   248A      4.113167  
     249A      4.145633   250A      4.167875   251A      4.169737  
     252A      4.175316   253A      4.194189   254A      4.201991  
     255A      4.214997   256A      4.224435   257A      4.236321  
     258A      4.262494   259A      4.279385   260A      4.298430  
     261A      4.342448   262A      4.362275   263A      4.385696  
     264A      4.419259   265A      4.436774   266A      4.442583  
     267A      4.485412   268A      4.521557   269A      4.527665  
     270A      4.552562   271A      4.557788   272A      4.564019  
     273A      4.600284   274A      4.602838   275A      4.627156  
     276A      4.648735   277A      4.673173   278A      4.684371  
     279A      4.705579   280A      4.714095   281A      4.733349  
     282A      4.755755   283A      4.772813   284A      4.776654  
     285A      4.832176   286A      4.860342   287A      4.962865  
     288A      5.005024   289A      5.010699   290A      5.024631  
     291A      5.079403   292A      5.089500   293A      5.110247  
     294A      5.143197   295A      5.163388   296A      5.163674  
     297A      5.241324   298A      5.260714   299A      5.290539  
     300A      5.314260   301A      5.338301   302A      5.366133  
     303A      5.398022   304A      5.467201   305A      5.484877  
     306A      5.548078   307A      5.554348   308A      5.578406  
     309A      5.635991   310A      5.692212   311A      5.708813  
     312A      5.767249   313A      5.826406   314A      5.852344  
     315A      5.951397   316A      5.992419   317A      5.997098  
     318A      6.050089   319A      6.124399   320A      6.147458  
     321A      6.261296   322A      6.337365   323A      6.413753  
     324A      6.432518   325A      6.488770   326A      6.511791  
     327A      6.644206   328A      6.735364   329A      6.817317  
     330A      6.898763   331A      6.980060   332A      7.002150  
     333A      7.005484   334A      7.121242   335A      7.123061  
     336A      7.288720   337A      7.325874   338A      7.341709  
     339A      7.367913   340A      7.529343   341A      7.579477  
     342A      7.597251   343A      7.707518   344A      7.888818  
     345A      8.036454   346A      9.381139   347A     11.775038  
     348A     12.764632   349A     13.306107   350A     13.453696  
     351A     13.923926   352A     14.490383   353A     14.782560  
     354A     16.516110  

    Final Occupation by Irrep:
              A 
    DOCC [    32 ]

  Energy converged.

  @DF-RHF Final Energy:  -418.43816605596714

   => Energetics <=

    Nuclear Repulsion Energy =            404.4509190601664841
    One-Electron Energy =               -1371.4371663628712668
    Two-Electron Energy =                 548.5480812467372971
    DFT Exchange-Correlation Energy =       0.0000000000000000
    Empirical Dispersion Energy =           0.0000000000000000
    PCM Polarization Energy =               0.0000000000000000
    EFP Energy =                            0.0000000000000000
    Total Energy =                       -418.4381660559674856


  Saving occupied orbitals to File 180.

*** tstop() called on cx1-27-2-4 at Sat Sep 10 16:27:14 2016
Module time:
	user time   =      35.49 seconds =       0.59 minutes
	system time =       0.84 seconds =       0.01 minutes
	total time  =         10 seconds =       0.17 minutes
Total time:
	user time   =      35.49 seconds =       0.59 minutes
	system time =       0.84 seconds =       0.01 minutes
	total time  =         10 seconds =       0.17 minutes


Properties will be evaluated at   0.000000,   0.000000,   0.000000 Bohr

Properties computed using the SCF density matrix

  Nuclear Dipole Moment: (a.u.)
     X:    -3.0883      Y:    -0.7523      Z:     0.0000

  Electronic Dipole Moment: (a.u.)
     X:     2.2957      Y:     0.4440      Z:    -0.0000

  Dipole Moment: (a.u.)
     X:    -0.7926      Y:    -0.3083      Z:    -0.0000     Total:     0.8504

  Dipole Moment: (Debye)
     X:    -2.0145      Y:    -0.7837      Z:    -0.0000     Total:     2.1616


*** tstart() called on cx1-27-2-4
*** at Sat Sep 10 16:27:14 2016


         ------------------------------------------------------------
                                   SCF GRAD                          
                          Rob Parrish, Justin Turney,                
                       Andy Simmonett, and Alex Sokolov              
         ------------------------------------------------------------

  ==> Geometry <==

    Molecular point group: c1
    Full point group: Cs

    Geometry (in Angstrom), charge = 0, multiplicity = 1:

       Center              X                  Y                   Z               Mass       
    ------------   -----------------  -----------------  -----------------  -----------------
           H          1.868167501554    -2.296406994365     0.000000000000     1.007825032070
           O          0.963513501554    -2.551410994365     0.000000000000    15.994914619560
           C          0.151458501554    -1.476220994365     0.000000000000    12.000000000000
           C         -1.230325498446    -1.591786994365     0.000000000000    12.000000000000
           C          0.738621501554    -0.227517994365     0.000000000000    12.000000000000
           H         -1.686055498446    -2.565305994365     0.000000000000     1.007825032070
           C         -2.020697498446    -0.460297994365     0.000000000000    12.000000000000
           H          1.805520501554    -0.134943994365     0.000000000000     1.007825032070
           C         -0.060963498446     0.901211005635     0.000000000000    12.000000000000
           H         -3.088634498446    -0.561951994365     0.000000000000     1.007825032070
           C         -1.441185498446     0.792533005635     0.000000000000    12.000000000000
           C          0.559060501554     2.252118005635     0.000000000000    12.000000000000
           H         -2.053201498446     1.674194005635     0.000000000000     1.007825032070
           O          1.723734501554     2.459371005635     0.000000000000    15.994914619560
           H         -0.153835498446     3.082406005635     0.000000000000     1.007825032070

  Nuclear repulsion =  404.450919060166484

  ==> Basis Set <==

  Basis Set: CC-PVTZ
    Number of shells: 126
    Number of basis function: 354
    Number of Cartesian functions: 405
    Spherical Harmonics?: true
    Max angular momentum: 3

  ==> DFJKGrad: Density-Fitted SCF Gradients <==

    Gradient:                    1
    J tasked:                  Yes
    K tasked:                  Yes
    wK tasked:                  No
    OpenMP threads:              4
    Integrals threads:           4
    Memory (MB):              1430
    Schwarz Cutoff:          0E+00
    Fitting Condition:       1E-12

   => Auxiliary Basis Set <=

  Basis Set: 
    Number of shells: 285
    Number of basis function: 891
    Number of Cartesian functions: 1074
    Spherical Harmonics?: true
    Max angular momentum: 4


  -Total Gradient:
     Atom            X                  Y                   Z
    ------   -----------------  -----------------  -----------------
       1        0.001362288277    -0.001285382196     0.000000007712
       2        0.014217582322     0.012677318497    -0.000000003475
       3       -0.018137183687    -0.010686454503     0.000000001463
       4        0.001161006605     0.009570600119    -0.000000003267
       5        0.010497958859    -0.003475780148     0.000000020030
       6       -0.002356875707    -0.000666911541    -0.000000004145
       7       -0.003115392998     0.001620114421    -0.000000012373
       8       -0.001325727190    -0.002666177458     0.000000014708
       9        0.000029593722    -0.004000974760     0.000000044912
      10       -0.000260876454     0.000368802269    -0.000000013941
      11       -0.002227164362    -0.001670211636    -0.000000011774
      12        0.001618837101     0.000073775389     0.000000002570
      13       -0.000249495147    -0.000205140278    -0.000000010533
      14       -0.001228406991     0.000341378952     0.000000022739
      15        0.000013855648     0.000005042872    -0.000000054626


*** tstop() called on cx1-27-2-4 at Sat Sep 10 16:27:23 2016
Module time:
	user time   =      33.70 seconds =       0.56 minutes
	system time =       0.69 seconds =       0.01 minutes
	total time  =          9 seconds =       0.15 minutes
Total time:
	user time   =      69.37 seconds =       1.16 minutes
	system time =       1.53 seconds =       0.03 minutes
	total time  =         19 seconds =       0.32 minutes

			-----------------------------------------
			 OPTKING 2.0: for geometry optimizations 
			  - R.A. King,  Bethel University        
			-----------------------------------------

	Internal coordinates to be generated automatically.
	Detected frag 1 with atoms:  1 2 3 4 5 6 7 8 9 10 11 12 13 14 15
	---Fragment 1 Bond Connectivity---
	 1 : 2
	 2 : 1 3
	 3 : 2 4 5
	 4 : 3 6 7
	 5 : 3 8 9
	 6 : 4
	 7 : 4 10 11
	 8 : 5
	 9 : 5 11 12
	 10 : 7
	 11 : 7 9 13
	 12 : 9 14 15
	 13 : 11
	 14 : 12
	 15 : 12

	Assuming in current code that numbering for constraints corresponds to unified fragment.
	Frozen dihedral atom list: 
	     4     3     2     1
	---Fragment 1 Geometry and Gradient---
	 H           3.5303249483       -4.3395803090        0.0000000000
	 O           1.8207766433       -4.8214680318        0.0000000000
	 C           0.2862150884       -2.7896533910        0.0000000000
	 C          -2.3249782464       -3.0080414812        0.0000000000
	 C           1.3957923538       -0.4299466997        0.0000000000
	 H          -3.1861831369       -4.8477257764        0.0000000000
	 C          -3.8185648695       -0.8698371489        0.0000000000
	 H           3.4119392752       -0.2550071926        0.0000000000
	 C          -0.1152043162        1.7030419886        0.0000000000
	 H          -5.8366733266       -1.0619353692        0.0000000000
	 C          -2.7234458987        1.4976703319        0.0000000000
	 C           1.0564712397        4.2558862496        0.0000000000
	 H          -3.8799885277        3.1637681640        0.0000000000
	 O           3.2573861337        4.6475376598        0.0000000000
	 H          -0.2907069616        5.8249031810        0.0000000000
	             0.0013622883       -0.0012853822        0.0000000077
	             0.0142175823        0.0126773185       -0.0000000035
	            -0.0181371837       -0.0106864545        0.0000000015
	             0.0011610066        0.0095706001       -0.0000000033
	             0.0104979589       -0.0034757801        0.0000000200
	            -0.0023568757       -0.0006669115       -0.0000000041
	            -0.0031153930        0.0016201144       -0.0000000124
	            -0.0013257272       -0.0026661775        0.0000000147
	             0.0000295937       -0.0040009748        0.0000000449
	            -0.0002608765        0.0003688023       -0.0000000139
	            -0.0022271644       -0.0016702116       -0.0000000118
	             0.0016188371        0.0000737754        0.0000000026
	            -0.0002494951       -0.0002051403       -0.0000000105
	            -0.0012284070        0.0003413790        0.0000000227
	             0.0000138556        0.0000050429       -0.0000000546

	Previous optimization step data not found.  Starting new optimization.

	---Fragment 1 Intrafragment Coordinates---
	 - Coordinate -           - BOHR/RAD -       - ANG/DEG -
	 R(1,2)           =         1.776168	       0.939907
	 R(2,3)           =         2.546203	       1.347393
	 R(3,4)           =         2.620310	       1.386608
	 R(3,5)           =         2.607562	       1.379862
	 R(4,6)           =         2.031283	       1.074909
	 R(4,7)           =         2.608202	       1.380201
	 R(5,8)           =         2.023722	       1.070908
	 R(5,9)           =         2.613953	       1.383244
	 R(7,10)          =         2.027230	       1.072764
	 R(7,11)          =         2.608520	       1.380369
	 R(9,11)          =         2.616315	       1.384494
	 R(9,12)          =         2.808885	       1.486398
	 R(11,13)         =         2.028170	       1.073261
	 R(12,14)         =         2.235490	       1.182971
	 R(12,15)         =         2.068019	       1.094349
	 B(1,2,3)         =         1.942908	     111.320439
	 B(2,3,4)         =         2.134218	     122.281703
	 B(2,3,5)         =         2.055190	     117.753703
	 B(3,4,6)         =         2.092063	     119.866364
	 B(3,4,7)         =         2.097090	     120.154389
	 B(3,5,8)         =         2.096888	     120.142858
	 B(3,5,9)         =         2.085716	     119.502699
	 B(4,3,5)         =         2.093777	     119.964595
	 B(4,7,10)        =         2.085630	     119.497770
	 B(4,7,11)        =         2.098607	     120.241317
	 B(5,9,11)        =         2.108556	     120.811381
	 B(5,9,12)        =         2.094968	     120.032826
	 B(6,4,7)         =         2.094033	     119.979247
	 B(7,11,9)        =         2.082625	     119.325620
	 B(7,11,13)       =         2.101544	     120.409602
	 B(8,5,9)         =         2.100581	     120.354443
	 B(9,11,13)       =         2.099016	     120.264779
	 B(9,12,14)       =         2.177189	     124.743768
	 B(9,12,15)       =         2.001832	     114.696545
	 B(10,7,11)       =         2.098949	     120.260913
	 B(11,9,12)       =         2.079661	     119.155793
	 B(14,12,15)      =         2.104163	     120.559687
	*D(1,2,3,4)       =         3.141593	     180.000000
	 D(1,2,3,5)       =         0.000000	       0.000000
	 D(2,3,4,6)       =         0.000000	       0.000000
	 D(2,3,4,7)       =         3.141593	     180.000000
	 D(2,3,5,8)       =         0.000000	       0.000000
	 D(2,3,5,9)       =         3.141593	     180.000000
	 D(3,4,7,10)      =         3.141593	     180.000000
	 D(3,4,7,11)      =         0.000000	       0.000000
	 D(3,5,9,11)      =         0.000000	       0.000000
	 D(3,5,9,12)      =         3.141593	     180.000000
	 D(4,3,5,8)       =         3.141593	     180.000000
	 D(4,3,5,9)       =         0.000000	       0.000000
	 D(4,7,11,9)      =         0.000000	       0.000000
	 D(4,7,11,13)     =         3.141593	     180.000000
	 D(5,3,4,6)       =         3.141593	     180.000000
	 D(5,3,4,7)       =         0.000000	       0.000000
	 D(5,9,11,7)      =         0.000000	       0.000000
	 D(5,9,11,13)     =         3.141593	     180.000000
	 D(5,9,12,14)     =         0.000000	       0.000000
	 D(5,9,12,15)     =         3.141593	     180.000000
	 D(6,4,7,10)      =         0.000000	       0.000000
	 D(6,4,7,11)      =         3.141593	     180.000000
	 D(7,11,9,12)     =         3.141593	     180.000000
	 D(8,5,9,11)      =         3.141593	     180.000000
	 D(8,5,9,12)      =         0.000000	       0.000000
	 D(9,11,7,10)     =         3.141593	     180.000000
	 D(10,7,11,13)    =         0.000000	       0.000000
	 D(11,9,12,14)    =         3.141593	     180.000000
	 D(11,9,12,15)    =         0.000000	       0.000000
	 D(12,9,11,13)    =         0.000000	       0.000000

	Current energy   :      -418.4381660560

	Generating empirical Hessian (Schlegel '84) for each fragment.
	Taking RFO optimization step.
	Going to follow RFO solution 1.
	Using RFO vector 1.
	Norm of target step-size    0.13560
	Projected energy change by RFO approximation:        -0.0045477810

	Back-transformation to cartesian coordinates...
	Successfully converged to displaced geometry.

	Back-transformation to cartesian coordinates to adjust frozen coordinates...
	Successfully converged to displaced geometry.

	--- Internal Coordinate Step in ANG or DEG, aJ/ANG or AJ/DEG ---
	 ---------------------------------------------------------------------------
	   Coordinate                Previous        Force       Change         New 
	   ----------                --------       ------       ------       ------
	    1 R(1,2)          =      0.939907    -0.007929    -0.000842     0.939065
	    2 R(2,3)          =      1.347393    -0.002465    -0.000283     1.347110
	    3 R(3,4)          =      1.386608    -0.029101    -0.003855     1.382753
	    4 R(3,5)          =      1.379862     0.040289     0.005300     1.385162
	    5 R(4,6)          =      1.074909    -0.013209    -0.002288     1.072621
	    6 R(4,7)          =      1.380201    -0.007257    -0.001014     1.379187
	    7 R(5,8)          =      1.070908     0.012780     0.002184     1.073092
	    8 R(5,9)          =      1.383244     0.004925     0.000720     1.383964
	    9 R(7,10)         =      1.072764    -0.001852    -0.000318     1.072446
	   10 R(7,11)         =      1.380369     0.021271     0.002678     1.383048
	   11 R(9,11)         =      1.384494    -0.022633    -0.002990     1.381504
	   12 R(9,12)         =      1.486398    -0.004536    -0.000849     1.485549
	   13 R(11,13)        =      1.073261     0.000216     0.000037     1.073298
	   14 R(12,14)        =      1.182971     0.009471     0.000532     1.183503
	   15 R(12,15)        =      1.094349     0.000043     0.000008     1.094357
	   16 B(1,2,3)        =    111.320439    -0.000217    -0.993225   110.327214
	   17 B(2,3,4)        =    122.281703    -0.001720    -5.088847   117.192856
	   18 B(2,3,5)        =    117.753703     0.001802     5.325540   123.079243
	   19 B(3,4,6)        =    119.866364    -0.000097    -0.482350   119.384014
	   20 B(3,4,7)        =    120.154389    -0.000093    -0.344416   119.809974
	   21 B(3,5,8)        =    120.142858     0.000112     0.604158   120.747016
	   22 B(3,5,9)        =    119.502699     0.000167     0.581744   120.084442
	   23 B(4,3,5)        =    119.964595    -0.000082    -0.236694   119.727901
	   24 B(4,7,10)       =    119.497770    -0.000128    -0.438507   119.059264
	   25 B(4,7,11)       =    120.241317     0.000195     0.600544   120.841862
	   26 B(5,9,11)       =    120.811381    -0.000167    -0.495204   120.316176
	   27 B(5,9,12)       =    120.032826     0.000058     0.172876   120.205702
	   28 B(6,4,7)        =    119.979247     0.000190     0.826765   120.806012
	   29 B(7,11,9)       =    119.325620    -0.000020    -0.105974   119.219645
	   30 B(7,11,13)      =    120.409602     0.000035     0.166607   120.576208
	   31 B(8,5,9)        =    120.354443    -0.000279    -1.185901   119.168542
	   32 B(9,11,13)      =    120.264779    -0.000015    -0.060632   120.204147
	   33 B(9,12,14)      =    124.743768    -0.000062    -0.207146   124.536623
	   34 B(9,12,15)      =    114.696545     0.000030     0.098608   114.795153
	   35 B(10,7,11)      =    120.260913    -0.000067    -0.162038   120.098875
	   36 B(11,9,12)      =    119.155793     0.000109     0.322329   119.478122
	   37 B(14,12,15)     =    120.559687     0.000032     0.108538   120.668224
	   38 *D(1,2,3,4)     =    180.000000    -0.000000     0.000000   180.000000
	   39 D(1,2,3,5)      =      0.000000    -0.000000     0.000000     0.000000
	   40 D(2,3,4,6)      =      0.000000    -0.000000     0.000000     0.000000
	   41 D(2,3,4,7)      =    180.000000    -0.000000     0.000000   180.000000
	   42 D(2,3,5,8)      =      0.000000     0.000000     0.000000     0.000000
	   43 D(2,3,5,9)      =    180.000000     0.000000     0.000000   180.000000
	   44 D(3,4,7,10)     =    180.000000     0.000000     0.000000   180.000000
	   45 D(3,4,7,11)     =      0.000000    -0.000000     0.000000     0.000000
	   46 D(3,5,9,11)     =      0.000000    -0.000000     0.000000     0.000000
	   47 D(3,5,9,12)     =    180.000000    -0.000000     0.000000   180.000000
	   48 D(4,3,5,8)      =    180.000000    -0.000000     0.000000   180.000000
	   49 D(4,3,5,9)      =      0.000000     0.000000     0.000000     0.000000
	   50 D(4,7,11,9)     =      0.000000     0.000000     0.000000     0.000000
	   51 D(4,7,11,13)    =    180.000000     0.000000     0.000000   180.000000
	   52 D(5,3,4,6)      =    180.000000    -0.000000     0.000000   180.000000
	   53 D(5,3,4,7)      =      0.000000    -0.000000     0.000000     0.000000
	   54 D(5,9,11,7)     =      0.000000    -0.000000     0.000000     0.000000
	   55 D(5,9,11,13)    =    180.000000    -0.000000     0.000000   180.000000
	   56 D(5,9,12,14)    =      0.000000     0.000000     0.000000     0.000000
	   57 D(5,9,12,15)    =    180.000000     0.000000     0.000872   180.000872
	   58 D(6,4,7,10)     =      0.000000    -0.000000     0.000000     0.000000
	   59 D(6,4,7,11)     =    180.000000    -0.000000     0.000000   180.000000
	   60 D(7,11,9,12)    =    180.000000     0.000000     0.000000   180.000000
	   61 D(8,5,9,11)     =    180.000000     0.000000     0.000000   180.000000
	   62 D(8,5,9,12)     =      0.000000    -0.000000     0.000000     0.000000
	   63 D(9,11,7,10)    =    180.000000     0.000000     0.000000   180.000000
	   64 D(10,7,11,13)   =      0.000000     0.000000     0.000000     0.000000
	   65 D(11,9,12,14)   =    180.000000     0.000000     0.000000   180.000000
	   66 D(11,9,12,15)   =      0.000000     0.000000     0.000000     0.000000
	   67 D(12,9,11,13)   =      0.000000     0.000000     0.000000     0.000000
	 ---------------------------------------------------------------------------
	Successfully symmetrized geometry.

  ==> Convergence Check <==

  Measures of convergence in internal coordinates in au.
  Criteria marked as inactive (o), active & met (*), and active & unmet ( ).
  --------------------------------------------------------------------------------------------- ~
   Step     Total Energy     Delta E     MAX Force     RMS Force      MAX Disp      RMS Disp    ~
  --------------------------------------------------------------------------------------------- ~
    Convergence Criteria    1.00e-06 *    3.00e-04 *             o    1.20e-03 *             o  ~
  --------------------------------------------------------------------------------------------- ~
      1    -418.43816606   -4.18e+02      2.37e-02      4.21e-03 o    9.29e-02      1.66e-02 o  ~
  ---------------------------------------------------------------------------------------------

	Writing optimization data to binary file.
	Structure for next step:
	Cartesian Geometry (in Angstrom)
	    H     1.8145263255  -2.4020490616   0.0000052335
	    O     0.8966823683  -2.6005594920   0.0000060734
	    C     0.1722636308  -1.4648117335  -0.0000006969
	    C    -1.2044920294  -1.5934569717  -0.0000005262
	    C     0.7442519862  -0.2032637922  -0.0000060595
	    H    -1.6415484685  -2.5729961848   0.0000024960
	    C    -1.9984813980  -0.4657438463  -0.0000021371
	    H     1.8107452547  -0.0844406199  -0.0000055362
	    C    -0.0599297752   0.9230791677  -0.0000051247
	    H    -3.0648767615  -0.5795011291  -0.0000011217
	    C    -1.4357269853   0.7976358243  -0.0000026777
	    C     0.5506475785   2.2773506666   0.0000010190
	    H    -2.0576807261   1.6723604731  -0.0000015788
	    O     1.7151952161   2.4883182200  -0.0000057874
	    H    -0.1663986929   3.1040675638   0.0000164242
			--------------------------
			 OPTKING Finished Execution 
			--------------------------

    Structure for next step:
    Molecular point group: c1
    Full point group: C1

    Geometry (in Angstrom), charge = 0, multiplicity = 1:

    H            1.817246338056    -2.406841663578     0.000006657832
    O            0.899402380876    -2.605352093913     0.000007497737
    C            0.174983643321    -1.469604335478     0.000000727446
    C           -1.201772016847    -1.598249573612     0.000000898074
    C            0.746971998743    -0.208056394176    -0.000004635163
    H           -1.638828455913    -2.577788786737     0.000003920302
    C           -1.995761385416    -0.470536448298    -0.000000712734
    H            1.813465267247    -0.089233221811    -0.000004111914
    C           -0.057209762603     0.918286565784    -0.000003700395
    H           -3.062156748953    -0.584293731078     0.000000302670
    C           -1.433006972735     0.792843222371    -0.000001253337
    C            0.553367591089     2.272558064696     0.000002443299
    H           -2.054960713520     1.667567871194    -0.000000154520
    O            1.717915228638     2.483525618027    -0.000004363029
    H           -0.163678680326     3.099274961882     0.000017848555

gradient() will perform analytic gradient computation.

*** tstart() called on cx1-27-2-4
*** at Sat Sep 10 16:27:24 2016


         ---------------------------------------------------------
                                   SCF
            by Justin Turney, Rob Parrish, and Andy Simmonett
                              RHF Reference
                        4 Threads,   2000 MiB Core
         ---------------------------------------------------------

  ==> Geometry <==

    Molecular point group: c1
    Full point group: C1

    Geometry (in Angstrom), charge = 0, multiplicity = 1:

       Center              X                  Y                   Z               Mass       
    ------------   -----------------  -----------------  -----------------  -----------------
           H          1.817246338056    -2.406841663578     0.000006657832     1.007825032070
           O          0.899402380876    -2.605352093913     0.000007497737    15.994914619560
           C          0.174983643321    -1.469604335478     0.000000727446    12.000000000000
           C         -1.201772016847    -1.598249573612     0.000000898074    12.000000000000
           C          0.746971998743    -0.208056394176    -0.000004635163    12.000000000000
           H         -1.638828455913    -2.577788786737     0.000003920302     1.007825032070
           C         -1.995761385416    -0.470536448298    -0.000000712734    12.000000000000
           H          1.813465267247    -0.089233221811    -0.000004111914     1.007825032070
           C         -0.057209762603     0.918286565784    -0.000003700395    12.000000000000
           H         -3.062156748953    -0.584293731078     0.000000302670     1.007825032070
           C         -1.433006972735     0.792843222371    -0.000001253337    12.000000000000
           C          0.553367591089     2.272558064696     0.000002443299    12.000000000000
           H         -2.054960713520     1.667567871194    -0.000000154520     1.007825032070
           O          1.717915228638     2.483525618027    -0.000004363029    15.994914619560
           H         -0.163678680326     3.099274961882     0.000017848555     1.007825032070

  Running in c1 symmetry.

  Rotational constants: A =      0.10089  B =      0.04337  C =      0.03033 [cm^-1]
  Rotational constants: A =   3024.73937  B =   1300.27765  C =    909.36081 [MHz]
  Nuclear repulsion =  404.131192379532024

  Charge       = 0
  Multiplicity = 1
  Electrons    = 64
  Nalpha       = 32
  Nbeta        = 32

  ==> Algorithm <==

  SCF Algorithm Type is DF.
  DIIS enabled.
  MOM disabled.
  Fractional occupation disabled.
  Guess Type is READ.
  Energy threshold   = 1.00e-08
  Density threshold  = 1.00e-08
  Integral threshold = 0.00e+00

  ==> Primary Basis <==

  Basis Set: CC-PVTZ
    Number of shells: 126
    Number of basis function: 354
    Number of Cartesian functions: 405
    Spherical Harmonics?: true
    Max angular momentum: 3

  ==> Pre-Iterations <==

   -------------------------------------------------------
    Irrep   Nso     Nmo     Nalpha   Nbeta   Ndocc  Nsocc
   -------------------------------------------------------
     A        354     354       0       0       0       0
   -------------------------------------------------------
    Total     354     354      32      32      32       0
   -------------------------------------------------------

  ==> Integral Setup <==

  ==> DFJK: Density-Fitted J/K Matrices <==

    J tasked:                  Yes
    K tasked:                  Yes
    wK tasked:                  No
    OpenMP threads:              4
    Integrals threads:           4
    Memory (MB):              1430
    Algorithm:                Core
    Integral Cache:           NONE
    Schwarz Cutoff:          1E-12
    Fitting Condition:       1E-12

   => Auxiliary Basis Set <=

  Basis Set: 
    Number of shells: 285
    Number of basis function: 891
    Number of Cartesian functions: 1074
    Spherical Harmonics?: true
    Max angular momentum: 4

  Minimum eigenvalue in the overlap matrix is 3.3723870070E-05.
  Using Symmetric Orthogonalization.
  SCF Guess: Reading in previously saved MOs, projecting if necessary.

  Using orbitals from previous SCF, no projection.
  Recomputing DOCC and SOCC from number of alpha and beta electrons from previous calculation.
              A 
    DOCC [    32 ]

  ==> Iterations <==

                           Total Energy        Delta E     RMS |[F,P]|

   @DF-RHF iter   0:  -418.43133166105684   -4.18431e+02   3.37797e-04 
   @DF-RHF iter   1:  -418.43980653447301   -8.47487e-03   5.50713e-05 
   @DF-RHF iter   2:  -418.44007078750377   -2.64253e-04   2.40256e-05 DIIS
   @DF-RHF iter   3:  -418.44010982540789   -3.90379e-05   1.30707e-05 DIIS
   @DF-RHF iter   4:  -418.44012315533411   -1.33299e-05   2.24687e-06 DIIS
   @DF-RHF iter   5:  -418.44012380476858   -6.49434e-07   1.13218e-06 DIIS
   @DF-RHF iter   6:  -418.44012401236927   -2.07601e-07   4.72634e-07 DIIS
   @DF-RHF iter   7:  -418.44012409152600   -7.91567e-08   2.18645e-07 DIIS
   @DF-RHF iter   8:  -418.44012411219222   -2.06662e-08   8.74883e-08 DIIS
   @DF-RHF iter   9:  -418.44012411495527   -2.76304e-09   3.03932e-08 DIIS
   @DF-RHF iter  10:  -418.44012411521743   -2.62162e-10   8.67797e-09 DIIS

  ==> Post-Iterations <==

    Orbital Energies (a.u.)
    -----------------------

    Doubly Occupied:                                                      

       1A    -20.596413     2A    -20.557225     3A    -11.330643  
       4A    -11.312112     5A    -11.252334     6A    -11.248920  
       7A    -11.243860     8A    -11.242942     9A    -11.241887  
      10A     -1.428546    11A     -1.412981    12A     -1.174513  
      13A     -1.053881    14A     -1.028621    15A     -0.904736  
      16A     -0.857504    17A     -0.799635    18A     -0.759451  
      19A     -0.704444    20A     -0.671785    21A     -0.667330  
      22A     -0.634362    23A     -0.614805    24A     -0.609296  
      25A     -0.581520    26A     -0.559955    27A     -0.539985  
      28A     -0.521066    29A     -0.492789    30A     -0.429757  
      31A     -0.358105    32A     -0.331485  

    Virtual:                                                              

      33A      0.071012    34A      0.130826    35A      0.138658  
      36A      0.144587    37A      0.164928    38A      0.192835  
      39A      0.204042    40A      0.214465    41A      0.223521  
      42A      0.312225    43A      0.324269    44A      0.333363  
      45A      0.346320    46A      0.374943    47A      0.393933  
      48A      0.424168    49A      0.426048    50A      0.455095  
      51A      0.457801    52A      0.462419    53A      0.463619  
      54A      0.494822    55A      0.503243    56A      0.511354  
      57A      0.515878    58A      0.533512    59A      0.547287  
      60A      0.554199    61A      0.560705    62A      0.578490  
      63A      0.585129    64A      0.593406    65A      0.602609  
      66A      0.611276    67A      0.622869    68A      0.632189  
      69A      0.637247    70A      0.664638    71A      0.672600  
      72A      0.700908    73A      0.710169    74A      0.723707  
      75A      0.735235    76A      0.753121    77A      0.766502  
      78A      0.780689    79A      0.789131    80A      0.805843  
      81A      0.820517    82A      0.853075    83A      0.865679  
      84A      0.873175    85A      0.898975    86A      0.901264  
      87A      0.905408    88A      0.913573    89A      0.940290  
      90A      0.954877    91A      0.974450    92A      0.992001  
      93A      1.004991    94A      1.011798    95A      1.014602  
      96A      1.034620    97A      1.053717    98A      1.053868  
      99A      1.074413   100A      1.089179   101A      1.114733  
     102A      1.148598   103A      1.174252   104A      1.182762  
     105A      1.188756   106A      1.211152   107A      1.221723  
     108A      1.252742   109A      1.274280   110A      1.308082  
     111A      1.320983   112A      1.333282   113A      1.340592  
     114A      1.373755   115A      1.406850   116A      1.426800  
     117A      1.448827   118A      1.450910   119A      1.479626  
     120A      1.489233   121A      1.506138   122A      1.526513  
     123A      1.541650   124A      1.548641   125A      1.566551  
     126A      1.573884   127A      1.600358   128A      1.604114  
     129A      1.630047   130A      1.638456   131A      1.678627  
     132A      1.691135   133A      1.706230   134A      1.720677  
     135A      1.760811   136A      1.783567   137A      1.809815  
     138A      1.927489   139A      1.948588   140A      1.992117  
     141A      2.014815   142A      2.037929   143A      2.070689  
     144A      2.146467   145A      2.160653   146A      2.186821  
     147A      2.209698   148A      2.220615   149A      2.256567  
     150A      2.303552   151A      2.324482   152A      2.356664  
     153A      2.368236   154A      2.388264   155A      2.409144  
     156A      2.411740   157A      2.458515   158A      2.459303  
     159A      2.501018   160A      2.514087   161A      2.552298  
     162A      2.565188   163A      2.577806   164A      2.605196  
     165A      2.655794   166A      2.675035   167A      2.681277  
     168A      2.715604   169A      2.739465   170A      2.748093  
     171A      2.770288   172A      2.781436   173A      2.822701  
     174A      2.847792   175A      2.852310   176A      2.854990  
     177A      2.906486   178A      2.937611   179A      2.941425  
     180A      2.952854   181A      2.964767   182A      2.975706  
     183A      3.016822   184A      3.021573   185A      3.048205  
     186A      3.068893   187A      3.077805   188A      3.105535  
     189A      3.115553   190A      3.136835   191A      3.155524  
     192A      3.156789   193A      3.198205   194A      3.222355  
     195A      3.226201   196A      3.232248   197A      3.251890  
     198A      3.283233   199A      3.297102   200A      3.307777  
     201A      3.313068   202A      3.339981   203A      3.355685  
     204A      3.377090   205A      3.379050   206A      3.400994  
     207A      3.405914   208A      3.417616   209A      3.426729  
     210A      3.438097   211A      3.443767   212A      3.453059  
     213A      3.459331   214A      3.480656   215A      3.501237  
     216A      3.517740   217A      3.540673   218A      3.560832  
     219A      3.566103   220A      3.579642   221A      3.610090  
     222A      3.615487   223A      3.638244   224A      3.668275  
     225A      3.686549   226A      3.686699   227A      3.704206  
     228A      3.721099   229A      3.737864   230A      3.743616  
     231A      3.750683   232A      3.774537   233A      3.808683  
     234A      3.822973   235A      3.838822   236A      3.904079  
     237A      3.914459   238A      3.934285   239A      3.949135  
     240A      3.961318   241A      4.004887   242A      4.028332  
     243A      4.033903   244A      4.060593   245A      4.061505  
     246A      4.086615   247A      4.106929   248A      4.129630  
     249A      4.147937   250A      4.168751   251A      4.170568  
     252A      4.177040   253A      4.194482   254A      4.204804  
     255A      4.211087   256A      4.225017   257A      4.243411  
     258A      4.261554   259A      4.279771   260A      4.289235  
     261A      4.306207   262A      4.351866   263A      4.382621  
     264A      4.424542   265A      4.439398   266A      4.449755  
     267A      4.488176   268A      4.524218   269A      4.533027  
     270A      4.554799   271A      4.560395   272A      4.573496  
     273A      4.596242   274A      4.599457   275A      4.620561  
     276A      4.642011   277A      4.670465   278A      4.687611  
     279A      4.703705   280A      4.713373   281A      4.723383  
     282A      4.759076   283A      4.768885   284A      4.773640  
     285A      4.830600   286A      4.862434   287A      4.980140  
     288A      5.006352   289A      5.007720   290A      5.030056  
     291A      5.084153   292A      5.084951   293A      5.116099  
     294A      5.128110   295A      5.164731   296A      5.174821  
     297A      5.243969   298A      5.262962   299A      5.295333  
     300A      5.309530   301A      5.326388   302A      5.366089  
     303A      5.417936   304A      5.463665   305A      5.483289  
     306A      5.545535   307A      5.563269   308A      5.568392  
     309A      5.633447   310A      5.692056   311A      5.701680  
     312A      5.758058   313A      5.829321   314A      5.849490  
     315A      5.943519   316A      5.990951   317A      5.996198  
     318A      6.047399   319A      6.134392   320A      6.148174  
     321A      6.252784   322A      6.332970   323A      6.413511  
     324A      6.429473   325A      6.487767   326A      6.514543  
     327A      6.650663   328A      6.733170   329A      6.814299  
     330A      6.898672   331A      6.970999   332A      6.998448  
     333A      7.005642   334A      7.119716   335A      7.208672  
     336A      7.288325   337A      7.301054   338A      7.341732  
     339A      7.354674   340A      7.515998   341A      7.566074  
     342A      7.596483   343A      7.694487   344A      7.865842  
     345A      8.040025   346A      9.352687   347A     11.771717  
     348A     12.681826   349A     13.233034   350A     13.633730  
     351A     13.974083   352A     14.478824   353A     14.797959  
     354A     16.516082  

    Final Occupation by Irrep:
              A 
    DOCC [    32 ]

  Energy converged.

  @DF-RHF Final Energy:  -418.44012411521743

   => Energetics <=

    Nuclear Repulsion Energy =            404.1311923795320240
    One-Electron Energy =               -1370.8168544194945753
    Two-Electron Energy =                 548.2455379247453493
    DFT Exchange-Correlation Energy =       0.0000000000000000
    Empirical Dispersion Energy =           0.0000000000000000
    PCM Polarization Energy =               0.0000000000000000
    EFP Energy =                            0.0000000000000000
    Total Energy =                       -418.4401241152172588


  Saving occupied orbitals to File 180.

*** tstop() called on cx1-27-2-4 at Sat Sep 10 16:27:32 2016
Module time:
	user time   =      28.78 seconds =       0.48 minutes
	system time =       0.68 seconds =       0.01 minutes
	total time  =          8 seconds =       0.13 minutes
Total time:
	user time   =     100.06 seconds =       1.67 minutes
	system time =       2.30 seconds =       0.04 minutes
	total time  =         28 seconds =       0.47 minutes


Properties will be evaluated at   0.000000,   0.000000,   0.000000 Bohr

Properties computed using the SCF density matrix

  Nuclear Dipole Moment: (a.u.)
     X:    -3.0707      Y:    -0.8362      Z:     0.0000

  Electronic Dipole Moment: (a.u.)
     X:     2.3210      Y:     0.4856      Z:    -0.0000

  Dipole Moment: (a.u.)
     X:    -0.7497      Y:    -0.3506      Z:     0.0000     Total:     0.8276

  Dipole Moment: (Debye)
     X:    -1.9055      Y:    -0.8911      Z:     0.0000     Total:     2.1036


*** tstart() called on cx1-27-2-4
*** at Sat Sep 10 16:27:33 2016


         ------------------------------------------------------------
                                   SCF GRAD                          
                          Rob Parrish, Justin Turney,                
                       Andy Simmonett, and Alex Sokolov              
         ------------------------------------------------------------

  ==> Geometry <==

    Molecular point group: c1
    Full point group: C1

    Geometry (in Angstrom), charge = 0, multiplicity = 1:

       Center              X                  Y                   Z               Mass       
    ------------   -----------------  -----------------  -----------------  -----------------
           H          1.817246338056    -2.406841663578     0.000006657832     1.007825032070
           O          0.899402380876    -2.605352093913     0.000007497737    15.994914619560
           C          0.174983643321    -1.469604335478     0.000000727446    12.000000000000
           C         -1.201772016847    -1.598249573612     0.000000898074    12.000000000000
           C          0.746971998743    -0.208056394176    -0.000004635163    12.000000000000
           H         -1.638828455913    -2.577788786737     0.000003920302     1.007825032070
           C         -1.995761385416    -0.470536448298    -0.000000712734    12.000000000000
           H          1.813465267247    -0.089233221811    -0.000004111914     1.007825032070
           C         -0.057209762603     0.918286565784    -0.000003700395    12.000000000000
           H         -3.062156748953    -0.584293731078     0.000000302670     1.007825032070
           C         -1.433006972735     0.792843222371    -0.000001253337    12.000000000000
           C          0.553367591089     2.272558064696     0.000002443299    12.000000000000
           H         -2.054960713520     1.667567871194    -0.000000154520     1.007825032070
           O          1.717915228638     2.483525618027    -0.000004363029    15.994914619560
           H         -0.163678680326     3.099274961882     0.000017848555     1.007825032070

  Nuclear repulsion =  404.131192379532024

  ==> Basis Set <==

  Basis Set: CC-PVTZ
    Number of shells: 126
    Number of basis function: 354
    Number of Cartesian functions: 405
    Spherical Harmonics?: true
    Max angular momentum: 3

  ==> DFJKGrad: Density-Fitted SCF Gradients <==

    Gradient:                    1
    J tasked:                  Yes
    K tasked:                  Yes
    wK tasked:                  No
    OpenMP threads:              4
    Integrals threads:           4
    Memory (MB):              1430
    Schwarz Cutoff:          0E+00
    Fitting Condition:       1E-12

   => Auxiliary Basis Set <=

  Basis Set: 
    Number of shells: 285
    Number of basis function: 891
    Number of Cartesian functions: 1074
    Spherical Harmonics?: true
    Max angular momentum: 4


  -Total Gradient:
     Atom            X                  Y                   Z
    ------   -----------------  -----------------  -----------------
       1       -0.002318737306     0.001223555123    -0.000000003323
       2       -0.000371181797    -0.002742967964     0.000000186059
       3       -0.003307615043    -0.005271790439     0.000000086910
       4        0.005967414590    -0.003013884328    -0.000000035983
       5       -0.001792994050     0.007887220222    -0.000000362462
       6       -0.000786093351    -0.000054879714     0.000000008227
       7        0.001061115264     0.002608299337    -0.000000040949
       8       -0.000484275484    -0.000263119205     0.000000060544
       9        0.002830017943    -0.000201117626    -0.000000174304
      10        0.000446637712    -0.000454391243     0.000000014018
      11       -0.001089155713    -0.000701386711     0.000000134907
      12       -0.000310036002     0.000837401036    -0.000000132195
      13        0.000332104665     0.000215680968    -0.000000027918
      14       -0.000119201329    -0.000282609042     0.000000075705
      15       -0.000058000098     0.000213989590     0.000000210764


*** tstop() called on cx1-27-2-4 at Sat Sep 10 16:27:41 2016
Module time:
	user time   =      33.27 seconds =       0.55 minutes
	system time =       0.62 seconds =       0.01 minutes
	total time  =          8 seconds =       0.13 minutes
Total time:
	user time   =     133.42 seconds =       2.22 minutes
	system time =       2.92 seconds =       0.05 minutes
	total time  =         37 seconds =       0.62 minutes

			-----------------------------------------
			 OPTKING 2.0: for geometry optimizations 
			  - R.A. King,  Bethel University        
			-----------------------------------------

	Previous internal coordinate definitions found.
	---Fragment 1 Geometry and Gradient---
	 H           3.4340978949       -4.5482715894        0.0000125815
	 O           1.6996241831       -4.9234019372        0.0000141687
	 C           0.3306711636       -2.7771497178        0.0000013747
	 C          -2.2710199860       -3.0202539861        0.0000016971
	 C           1.4115725066       -0.3931696052       -0.0000087592
	 H          -3.0969369605       -4.8713148354        0.0000074083
	 C          -3.7714424450       -0.8891850228       -0.0000013469
	 H           3.4269527066       -0.1686263512       -0.0000077704
	 C          -0.1081107834        1.7353101208       -0.0000069927
	 H          -5.7866376315       -1.1041551329        0.0000005720
	 C          -2.7079907250        1.4982565566       -0.0000023685
	 C           1.0457131980        4.2945123634        0.0000046172
	 H          -3.8833129624        3.1512465846       -0.0000002920
	 O           3.2463893016        4.6931832621       -0.0000082449
	 H          -0.3093078796        5.8567808885        0.0000337289
	            -0.0023187373        0.0012235551       -0.0000000033
	            -0.0003711818       -0.0027429680        0.0000001861
	            -0.0033076150       -0.0052717904        0.0000000869
	             0.0059674146       -0.0030138843       -0.0000000360
	            -0.0017929940        0.0078872202       -0.0000003625
	            -0.0007860934       -0.0000548797        0.0000000082
	             0.0010611153        0.0026082993       -0.0000000409
	            -0.0004842755       -0.0002631192        0.0000000605
	             0.0028300179       -0.0002011176       -0.0000001743
	             0.0004466377       -0.0004543912        0.0000000140
	            -0.0010891557       -0.0007013867        0.0000001349
	            -0.0003100360        0.0008374010       -0.0000001322
	             0.0003321047        0.0002156810       -0.0000000279
	            -0.0001192013       -0.0002826090        0.0000000757
	            -0.0000580001        0.0002139896        0.0000002108

	---Fragment 1 Intrafragment Coordinates---
	 - Coordinate -           - BOHR/RAD -       - ANG/DEG -
	 R(1,2)           =         1.774577	       0.939065
	 R(2,3)           =         2.545669	       1.347110
	 R(3,4)           =         2.613024	       1.382753
	 R(3,5)           =         2.617577	       1.385162
	 R(4,6)           =         2.026960	       1.072621
	 R(4,7)           =         2.606285	       1.379187
	 R(5,8)           =         2.027850	       1.073092
	 R(5,9)           =         2.615313	       1.383964
	 R(7,10)          =         2.026629	       1.072446
	 R(7,11)          =         2.613581	       1.383048
	 R(9,11)          =         2.610665	       1.381504
	 R(9,12)          =         2.807281	       1.485549
	 R(11,13)         =         2.028240	       1.073298
	 R(12,14)         =         2.236496	       1.183503
	 R(12,15)         =         2.068034	       1.094357
	 B(1,2,3)         =         1.925573	     110.327214
	 B(2,3,4)         =         2.045401	     117.192856
	 B(2,3,5)         =         2.148138	     123.079243
	 B(3,4,6)         =         2.083644	     119.384014
	 B(3,4,7)         =         2.091079	     119.809974
	 B(3,5,8)         =         2.107433	     120.747016
	 B(3,5,9)         =         2.095869	     120.084442
	 B(4,3,5)         =         2.089646	     119.727901
	 B(4,7,10)        =         2.077976	     119.059264
	 B(4,7,11)        =         2.109088	     120.841862
	 B(5,9,11)        =         2.099913	     120.316176
	 B(5,9,12)        =         2.097985	     120.205702
	 B(6,4,7)         =         2.108463	     120.806012
	 B(7,11,9)        =         2.080775	     119.219645
	 B(7,11,13)       =         2.104452	     120.576208
	 B(8,5,9)         =         2.079883	     119.168542
	 B(9,11,13)       =         2.097958	     120.204147
	 B(9,12,14)       =         2.173574	     124.536623
	 B(9,12,15)       =         2.003553	     114.795153
	 B(10,7,11)       =         2.096121	     120.098875
	 B(11,9,12)       =         2.085287	     119.478122
	 B(14,12,15)      =         2.106058	     120.668224
	*D(1,2,3,4)       =         3.141593	     180.000000
	 D(1,2,3,5)       =        -0.000000	      -0.000000
	 D(2,3,4,6)       =        -0.000000	      -0.000000
	 D(2,3,4,7)       =         3.141593	     180.000000
	 D(2,3,5,8)       =         0.000000	       0.000000
	 D(2,3,5,9)       =         3.141593	     180.000000
	 D(3,4,7,10)      =         3.141593	     180.000000
	 D(3,4,7,11)      =        -0.000000	      -0.000000
	 D(3,5,9,11)      =        -0.000000	      -0.000000
	 D(3,5,9,12)      =         3.141593	     180.000000
	 D(4,3,5,8)       =         3.141593	     180.000000
	 D(4,3,5,9)       =         0.000000	       0.000000
	 D(4,7,11,9)      =         0.000000	       0.000000
	 D(4,7,11,13)     =         3.141593	     180.000000
	 D(5,3,4,6)       =         3.141593	     180.000000
	 D(5,3,4,7)       =        -0.000000	      -0.000000
	 D(5,9,11,7)      =        -0.000000	      -0.000000
	 D(5,9,11,13)     =         3.141593	     180.000000
	 D(5,9,12,14)     =         0.000000	       0.000000
	 D(5,9,12,15)     =        -3.141577	    -179.999128
	 D(6,4,7,10)      =        -0.000000	      -0.000000
	 D(6,4,7,11)      =         3.141593	     180.000000
	 D(7,11,9,12)     =         3.141593	     180.000000
	 D(8,5,9,11)      =         3.141593	     180.000000
	 D(8,5,9,12)      =        -0.000000	      -0.000000
	 D(9,11,7,10)     =         3.141593	     180.000000
	 D(10,7,11,13)    =         0.000000	       0.000000
	 D(11,9,12,14)    =         3.141593	     180.000000
	 D(11,9,12,15)    =         0.000000	       0.000000
	 D(12,9,11,13)    =         0.000000	       0.000000

	Current energy   :      -418.4401241152

	Energy change for the previous step:
		Projected    :        -0.0045477810
		Actual       :        -0.0019580593

	Performing BFGS update.
	Previous computed or guess Hessian on step 1.
	Steps to be used in Hessian update: 1
	Taking RFO optimization step.
	Going to follow RFO solution 1.
	Using RFO vector 1.
	Norm of target step-size    0.02917
	Projected energy change by RFO approximation:        -0.0003003475

	Back-transformation to cartesian coordinates...
	Could not converge backtransformation.
	Using first guess instead.

	Back-transformation to cartesian coordinates to adjust frozen coordinates...
	Successfully converged to displaced geometry.

	--- Internal Coordinate Step in ANG or DEG, aJ/ANG or AJ/DEG ---
	 ---------------------------------------------------------------------------
	   Coordinate                Previous        Force       Change         New 
	   ----------                --------       ------       ------       ------
	    1 R(1,2)          =      0.939065     0.016541     0.001583     0.940649
	    2 R(2,3)          =      1.347110     0.001364     0.000128     1.347238
	    3 R(3,4)          =      1.382753     0.044516     0.004993     1.387746
	    4 R(3,5)          =      1.385162    -0.057401    -0.006373     1.378789
	    5 R(4,6)          =      1.072621    -0.003052    -0.000555     1.072066
	    6 R(4,7)          =      1.379187    -0.015011    -0.001697     1.377490
	    7 R(5,8)          =      1.073092     0.004205     0.000741     1.073834
	    8 R(5,9)          =      1.383964     0.014738     0.001689     1.385653
	    9 R(7,10)         =      1.072446     0.003262     0.000483     1.072929
	   10 R(7,11)         =      1.383048     0.001865     0.000432     1.383480
	   11 R(9,11)         =      1.381504     0.003086     0.000248     1.381752
	   12 R(9,12)         =      1.485549    -0.004124    -0.000721     1.484828
	   13 R(11,13)        =      1.073298     0.000137     0.000023     1.073321
	   14 R(12,14)        =      1.183503     0.001381     0.000093     1.183596
	   15 R(12,15)        =      1.094357    -0.001645    -0.000268     1.094088
	   16 B(1,2,3)        =    110.327214     0.000228     0.882747   111.209961
	   17 B(2,3,4)        =    117.192856     0.000145     0.140809   117.333665
	   18 B(2,3,5)        =    123.079243    -0.000225    -0.325743   122.753500
	   19 B(3,4,6)        =    119.384014    -0.000089    -0.359690   119.024325
	   20 B(3,4,7)        =    119.809974     0.000071     0.214190   120.024163
	   21 B(3,5,8)        =    120.747016     0.000082     0.303843   121.050859
	   22 B(3,5,9)        =    120.084442    -0.000131    -0.386026   119.698416
	   23 B(4,3,5)        =    119.727901     0.000080     0.184934   119.912835
	   24 B(4,7,10)       =    119.059264     0.000118     0.348843   119.408106
	   25 B(4,7,11)       =    120.841862    -0.000158    -0.395626   120.446236
	   26 B(5,9,11)       =    120.316176     0.000130     0.322275   120.638451
	   27 B(5,9,12)       =    120.205702    -0.000117    -0.300593   119.905109
	   28 B(6,4,7)        =    120.806012     0.000018     0.145500   120.951512
	   29 B(7,11,9)       =    119.219645     0.000009     0.060253   119.279899
	   30 B(7,11,13)      =    120.576208    -0.000035    -0.149606   120.426603
	   31 B(8,5,9)        =    119.168542     0.000050     0.082183   119.250725
	   32 B(9,11,13)      =    120.204147     0.000026     0.089352   120.293499
	   33 B(9,12,14)      =    124.536623     0.000034     0.091948   124.628570
	   34 B(9,12,15)      =    114.795153    -0.000025    -0.077337   114.717816
	   35 B(10,7,11)      =    120.098875     0.000041     0.046783   120.145658
	   36 B(11,9,12)      =    119.478122    -0.000013    -0.021682   119.456440
	   37 B(14,12,15)     =    120.668224    -0.000010    -0.014610   120.653614
	   38 *D(1,2,3,4)     =    180.000000    -0.000000     0.000000   180.000000
	   39 D(1,2,3,5)      =      0.000000     0.000000     0.000000     0.000000
	   40 D(2,3,4,6)      =      0.000000     0.000000     0.000000     0.000000
	   41 D(2,3,4,7)      =    180.000000     0.000000     0.000000   180.000000
	   42 D(2,3,5,8)      =      0.000000     0.000000     0.000000     0.000000
	   43 D(2,3,5,9)      =    180.000000    -0.000000     0.000000   180.000000
	   44 D(3,4,7,10)     =    180.000000    -0.000000     0.000000   180.000000
	   45 D(3,4,7,11)     =      0.000000     0.000000     0.000000     0.000000
	   46 D(3,5,9,11)     =      0.000000     0.000000     0.000000     0.000000
	   47 D(3,5,9,12)     =    180.000000     0.000000     0.000000   180.000000
	   48 D(4,3,5,8)      =    180.000000     0.000000     0.000000   180.000000
	   49 D(4,3,5,9)      =      0.000000    -0.000000     0.000000     0.000000
	   50 D(4,7,11,9)     =      0.000000    -0.000000     0.000000     0.000000
	   51 D(4,7,11,13)    =    180.000000    -0.000000     0.000000   180.000000
	   52 D(5,3,4,6)      =    180.000000     0.000000     0.000000   180.000000
	   53 D(5,3,4,7)      =      0.000000     0.000000     0.000000     0.000000
	   54 D(5,9,11,7)     =      0.000000     0.000000     0.000000     0.000000
	   55 D(5,9,11,13)    =    180.000000    -0.000000     0.000000   180.000000
	   56 D(5,9,12,14)    =      0.000000     0.000000     0.000994     0.000994
	   57 D(5,9,12,15)    =   -179.999128    -0.000000    -0.000872  -180.000000
	   58 D(6,4,7,10)     =      0.000000     0.000000     0.000000     0.000000
	   59 D(6,4,7,11)     =    180.000000     0.000000     0.000000   180.000000
	   60 D(7,11,9,12)    =    180.000000    -0.000000     0.000000   180.000000
	   61 D(8,5,9,11)     =    180.000000    -0.000000     0.000000   180.000000
	   62 D(8,5,9,12)     =      0.000000     0.000000     0.000000     0.000000
	   63 D(9,11,7,10)    =    180.000000    -0.000000     0.000000   180.000000
	   64 D(10,7,11,13)   =      0.000000    -0.000000     0.000000     0.000000
	   65 D(11,9,12,14)   =    180.000000     0.000000     0.001013   180.001013
	   66 D(11,9,12,15)   =      0.000000    -0.000000     0.000000     0.000000
	   67 D(12,9,11,13)   =      0.000000    -0.000000     0.000000     0.000000
	 ---------------------------------------------------------------------------
	Successfully symmetrized geometry.

  ==> Convergence Check <==

  Measures of convergence in internal coordinates in au.
  Criteria marked as inactive (o), active & met (*), and active & unmet ( ).
  ---------------------------------------------------------------------------------------------
   Step     Total Energy     Delta E     MAX Force     RMS Force      MAX Disp      RMS Disp   
  ---------------------------------------------------------------------------------------------
    Convergence Criteria    1.00e-06 *    3.00e-04 *             o    1.20e-03 *             o
  ---------------------------------------------------------------------------------------------
      2    -418.44012412   -1.96e-03      6.97e-03      1.40e-03 o    1.54e-02      3.57e-03 o  ~
  ---------------------------------------------------------------------------------------------

	Writing optimization data to binary file.
	Structure for next step:
	Cartesian Geometry (in Angstrom)
	    H     1.8256343375  -2.4110794355   0.0000015181
	    O     0.9037440101  -2.5979971325   0.0000001477
	    C     0.1764740334  -1.4639207809   0.0000019856
	    C    -1.2052541371  -1.5930221234   0.0000002901
	    C     0.7498886705  -0.2100247280   0.0000046257
	    H    -1.6359356458  -2.5747746702  -0.0000021700
	    C    -2.0024647917  -0.4696639378   0.0000013065
	    H     1.8168704829  -0.0889113635   0.0000045507
	    C    -0.0592204798   0.9148647228   0.0000054793
	    H    -3.0696058124  -0.5809583178  -0.0000007311
	    C    -1.4355277693   0.7923179400   0.0000038343
	    C     0.5534186074   2.2674133337   0.0000077520
	    H    -2.0570033384   1.6674104063   0.0000042744
	    O     1.7180867375   2.4782367801  -0.0000079562
	    H    -0.1631271931   3.0942093620  -0.0000035425
			--------------------------
			 OPTKING Finished Execution 
			--------------------------

    Structure for next step:
    Molecular point group: c1
    Full point group: C1

    Geometry (in Angstrom), charge = 0, multiplicity = 1:

    H            1.826004139937    -2.411398323752     0.000000024130
    O            0.904113812570    -2.598316020724    -0.000001346244
    C            0.176843835886    -1.464239669113     0.000000491660
    C           -1.204884334621    -1.593341011617    -0.000001203859
    C            0.750258472992    -0.210343616237     0.000003131774
    H           -1.635565843354    -2.575093558492    -0.000003663975
    C           -2.002094989263    -0.469982826048    -0.000000187435
    H            1.817240285413    -0.089230251738     0.000003056766
    C           -0.058850677354     0.914545834569     0.000003985354
    H           -3.069236009927    -0.581277206068    -0.000002225103
    C           -1.435157966861     0.791999051724     0.000002340350
    C            0.553788409896     2.267094445435     0.000006258045
    H           -2.056633535945     1.667091518025     0.000002780478
    O            1.718456539961     2.477917891843    -0.000009450118
    H           -0.162757390651     3.093890473757    -0.000005036441

gradient() will perform analytic gradient computation.

*** tstart() called on cx1-27-2-4
*** at Sat Sep 10 16:27:42 2016


         ---------------------------------------------------------
                                   SCF
            by Justin Turney, Rob Parrish, and Andy Simmonett
                              RHF Reference
                        4 Threads,   2000 MiB Core
         ---------------------------------------------------------

  ==> Geometry <==

    Molecular point group: c1
    Full point group: C1

    Geometry (in Angstrom), charge = 0, multiplicity = 1:

       Center              X                  Y                   Z               Mass       
    ------------   -----------------  -----------------  -----------------  -----------------
           H          1.826004139937    -2.411398323752     0.000000024130     1.007825032070
           O          0.904113812570    -2.598316020724    -0.000001346244    15.994914619560
           C          0.176843835886    -1.464239669113     0.000000491660    12.000000000000
           C         -1.204884334621    -1.593341011617    -0.000001203859    12.000000000000
           C          0.750258472992    -0.210343616237     0.000003131774    12.000000000000
           H         -1.635565843354    -2.575093558492    -0.000003663975     1.007825032070
           C         -2.002094989263    -0.469982826048    -0.000000187435    12.000000000000
           H          1.817240285413    -0.089230251738     0.000003056766     1.007825032070
           C         -0.058850677354     0.914545834569     0.000003985354    12.000000000000
           H         -3.069236009927    -0.581277206068    -0.000002225103     1.007825032070
           C         -1.435157966861     0.791999051724     0.000002340350    12.000000000000
           C          0.553788409896     2.267094445435     0.000006258045    12.000000000000
           H         -2.056633535945     1.667091518025     0.000002780478     1.007825032070
           O          1.718456539961     2.477917891843    -0.000009450118    15.994914619560
           H         -0.162757390651     3.093890473757    -0.000005036441     1.007825032070

  Running in c1 symmetry.

  Rotational constants: A =      0.10042  B =      0.04358  C =      0.03039 [cm^-1]
  Rotational constants: A =   3010.59811  B =   1306.39463  C =    911.05763 [MHz]
  Nuclear repulsion =  404.238418609970836

  Charge       = 0
  Multiplicity = 1
  Electrons    = 64
  Nalpha       = 32
  Nbeta        = 32

  ==> Algorithm <==

  SCF Algorithm Type is DF.
  DIIS enabled.
  MOM disabled.
  Fractional occupation disabled.
  Guess Type is READ.
  Energy threshold   = 1.00e-08
  Density threshold  = 1.00e-08
  Integral threshold = 0.00e+00

  ==> Primary Basis <==

  Basis Set: CC-PVTZ
    Number of shells: 126
    Number of basis function: 354
    Number of Cartesian functions: 405
    Spherical Harmonics?: true
    Max angular momentum: 3

  ==> Pre-Iterations <==

   -------------------------------------------------------
    Irrep   Nso     Nmo     Nalpha   Nbeta   Ndocc  Nsocc
   -------------------------------------------------------
     A        354     354       0       0       0       0
   -------------------------------------------------------
    Total     354     354      32      32      32       0
   -------------------------------------------------------

  ==> Integral Setup <==

  ==> DFJK: Density-Fitted J/K Matrices <==

    J tasked:                  Yes
    K tasked:                  Yes
    wK tasked:                  No
    OpenMP threads:              4
    Integrals threads:           4
    Memory (MB):              1430
    Algorithm:                Core
    Integral Cache:           NONE
    Schwarz Cutoff:          1E-12
    Fitting Condition:       1E-12

   => Auxiliary Basis Set <=

  Basis Set: 
    Number of shells: 285
    Number of basis function: 891
    Number of Cartesian functions: 1074
    Spherical Harmonics?: true
    Max angular momentum: 4

  Minimum eigenvalue in the overlap matrix is 3.3816766858E-05.
  Using Symmetric Orthogonalization.
  SCF Guess: Reading in previously saved MOs, projecting if necessary.

  Using orbitals from previous SCF, no projection.
  Recomputing DOCC and SOCC from number of alpha and beta electrons from previous calculation.
              A 
    DOCC [    32 ]

  ==> Iterations <==

                           Total Energy        Delta E     RMS |[F,P]|

   @DF-RHF iter   0:  -418.43929316608296   -4.18439e+02   8.45346e-05 
   @DF-RHF iter   1:  -418.44028476686492   -9.91601e-04   9.03877e-06 
   @DF-RHF iter   2:  -418.44029233409719   -7.56723e-06   5.07842e-06 DIIS
   @DF-RHF iter   3:  -418.44029435699247   -2.02290e-06   1.90611e-06 DIIS
   @DF-RHF iter   4:  -418.44029533960168   -9.82609e-07   8.20947e-07 DIIS
   @DF-RHF iter   5:  -418.44029562072797   -2.81126e-07   4.88073e-07 DIIS
   @DF-RHF iter   6:  -418.44029570269390   -8.19659e-08   1.80981e-07 DIIS
   @DF-RHF iter   7:  -418.44029571537442   -1.26805e-08   4.57022e-08 DIIS
   @DF-RHF iter   8:  -418.44029571573549   -3.61069e-10   1.90909e-08 DIIS
   @DF-RHF iter   9:  -418.44029571577892   -4.34284e-11   4.82016e-09 DIIS

  ==> Post-Iterations <==

    Orbital Energies (a.u.)
    -----------------------

    Doubly Occupied:                                                      

       1A    -20.595712     2A    -20.556805     3A    -11.330095  
       4A    -11.311903     5A    -11.252206     6A    -11.249138  
       7A    -11.244164     8A    -11.242567     9A    -11.242016  
      10A     -1.427224    11A     -1.412555    12A     -1.174544  
      13A     -1.053265    14A     -1.029558    15A     -0.904445  
      16A     -0.857653    17A     -0.799693    18A     -0.759499  
      19A     -0.704269    20A     -0.671959    21A     -0.666013  
      22A     -0.633958    23A     -0.616193    24A     -0.608898  
      25A     -0.580164    26A     -0.559624    27A     -0.539567  
      28A     -0.521286    29A     -0.492631    30A     -0.429329  
      31A     -0.358187    32A     -0.331492  

    Virtual:                                                              

      33A      0.071042    34A      0.131115    35A      0.138458  
      36A      0.144518    37A      0.165058    38A      0.192817  
      39A      0.204231    40A      0.214055    41A      0.223655  
      42A      0.312553    43A      0.324069    44A      0.333158  
      45A      0.346117    46A      0.375029    47A      0.393979  
      48A      0.424717    49A      0.425818    50A      0.455519  
      51A      0.458481    52A      0.461949    53A      0.463712  
      54A      0.495030    55A      0.503376    56A      0.512109  
      57A      0.516046    58A      0.533239    59A      0.546147  
      60A      0.554002    61A      0.560876    62A      0.578322  
      63A      0.585299    64A      0.593266    65A      0.601540  
[...]
       5        0.000028193752     0.000010490957    -0.000000388145
       6        0.000019923654    -0.000011098195    -0.000000287110
       7        0.000006147516     0.000009712696    -0.000001047100
       8       -0.000009855157     0.000010822960     0.000000087160
       9       -0.000011179832    -0.000001337323     0.000000116607
      10        0.000000966813    -0.000008078234     0.000000382791
      11       -0.000009685257    -0.000025300334     0.000000907674
      12       -0.000221496371    -0.000148873297    -0.000000915436
      13        0.000017632951     0.000014239458    -0.000000487298
      14        0.000278180817     0.000079161112     0.000000484034
      15       -0.000052536875     0.000099796041     0.000000302382


*** tstop() called on cx1-27-2-4 at Sat Sep 10 16:29:09 2016
Module time:
	user time   =      35.18 seconds =       0.59 minutes
	system time =       0.65 seconds =       0.01 minutes
	total time  =         10 seconds =       0.17 minutes
Total time:
	user time   =     447.10 seconds =       7.45 minutes
	system time =       9.28 seconds =       0.15 minutes
	total time  =        125 seconds =       2.08 minutes

			-----------------------------------------
			 OPTKING 2.0: for geometry optimizations 
			  - R.A. King,  Bethel University        
			-----------------------------------------

	Previous internal coordinate definitions found.
	---Fragment 1 Geometry and Gradient---
	 H           3.4481796531       -4.5572562273       -0.0000021399
	 O           1.7062887569       -4.9099093499        0.0000038528
	 C           0.3373144045       -2.7640289967        0.0000015507
	 C          -2.2801497014       -3.0092801866        0.0000084258
	 C           1.4210257110       -0.4018082474       -0.0000082936
	 H          -3.0855150208       -4.8686451223        0.0000094451
	 C          -3.7835242556       -0.8918499063       -0.0000033942
	 H           3.4360371677       -0.1687909899       -0.0000078844
	 C          -0.1129080067        1.7288656427       -0.0000092920
	 H          -5.8003158573       -1.0976315416        0.0000065528
	 C          -2.7073299621        1.4981902946       -0.0000068843
	 C           1.0446059206        4.2845403437        0.0000021119
	 H          -3.8813594911        3.1522055190       -0.0000239767
	 O           3.2460187655        4.6829394694        0.0000075845
	 H          -0.3087215530        5.8481744114        0.0000243213
	            -0.0000066185       -0.0000152517       -0.0000000080
	             0.0000392649       -0.0000174285       -0.0000000705
	            -0.0000254016       -0.0000256970        0.0000001532
	            -0.0000535368        0.0000288414        0.0000007697
	             0.0000281938        0.0000104910       -0.0000003881
	             0.0000199237       -0.0000110982       -0.0000002871
	             0.0000061475        0.0000097127       -0.0000010471
	            -0.0000098552        0.0000108230        0.0000000872
	            -0.0000111798       -0.0000013373        0.0000001166
	             0.0000009668       -0.0000080782        0.0000003828
	            -0.0000096853       -0.0000253003        0.0000009077
	            -0.0002214964       -0.0001488733       -0.0000009154
	             0.0000176330        0.0000142395       -0.0000004873
	             0.0002781808        0.0000791611        0.0000004840
	            -0.0000525369        0.0000997960        0.0000003024

	---Fragment 1 Intrafragment Coordinates---
	 - Coordinate -           - BOHR/RAD -       - ANG/DEG -
	 R(1,2)           =         1.777230	       0.940470
	 R(2,3)           =         2.545367	       1.346950
	 R(3,4)           =         2.628929	       1.391169
	 R(3,5)           =         2.598945	       1.375303
	 R(4,6)           =         2.026290	       1.072266
	 R(4,7)           =         2.596853	       1.374195
	 R(5,8)           =         2.028440	       1.073404
	 R(5,9)           =         2.625400	       1.389302
	 R(7,10)          =         2.027263	       1.072781
	 R(7,11)          =         2.621161	       1.387059
	 R(9,11)          =         2.604657	       1.378325
	 R(9,12)          =         2.805586	       1.484652
	 R(11,13)         =         2.028327	       1.073345
	 R(12,14)         =         2.237172	       1.183861
	 R(12,15)         =         2.067957	       1.094316
	 B(1,2,3)         =         1.938903	     111.090954
	 B(2,3,4)         =         2.045232	     117.183156
	 B(2,3,5)         =         2.143610	     122.819828
	 B(3,4,6)         =         2.072967	     118.772238
	 B(3,4,7)         =         2.094777	     120.021862
	 B(3,5,8)         =         2.116047	     121.240565
	 B(3,5,9)         =         2.087495	     119.604653
	 B(4,3,5)         =         2.094343	     119.997015
	 B(4,7,10)        =         2.086520	     119.548770
	 B(4,7,11)        =         2.101098	     120.384041
	 B(5,9,11)        =         2.106094	     120.670280
	 B(5,9,12)        =         2.092338	     119.882115
	 B(6,4,7)         =         2.115442	     121.205899
	 B(7,11,9)        =         2.082564	     119.322148
	 B(7,11,13)       =         2.101227	     120.391424
	 B(8,5,9)         =         2.079643	     119.154783
	 B(9,11,13)       =         2.099394	     120.286428
	 B(9,12,14)       =         2.175112	     124.624716
	 B(9,12,15)       =         2.002889	     114.757085
	 B(10,7,11)       =         2.095568	     120.067189
	 B(11,9,12)       =         2.084754	     119.447605
	 B(14,12,15)      =         2.105185	     120.618199
	*D(1,2,3,4)       =         3.141593	     180.000000
	 D(1,2,3,5)       =        -0.000000	      -0.000000
	 D(2,3,4,6)       =        -0.000000	      -0.000000
	 D(2,3,4,7)       =         3.141593	     180.000000
	 D(2,3,5,8)       =        -0.000000	      -0.000000
	 D(2,3,5,9)       =         3.141593	     180.000000
	 D(3,4,7,10)      =         3.141593	     180.000000
	 D(3,4,7,11)      =        -0.000000	      -0.000000
	 D(3,5,9,11)      =        -0.000000	      -0.000000
	 D(3,5,9,12)      =         3.141593	     180.000000
	 D(4,3,5,8)       =         3.141593	     180.000000
	 D(4,3,5,9)       =         0.000000	       0.000000
	 D(4,7,11,9)      =         0.000000	       0.000000
	 D(4,7,11,13)     =         3.141593	     180.000000
	 D(5,3,4,6)       =         3.141593	     180.000000
	 D(5,3,4,7)       =         0.000000	       0.000000
	 D(5,9,11,7)      =         0.000000	       0.000000
	 D(5,9,11,13)     =         3.141593	     180.000000
	 D(5,9,12,14)     =         0.000000	       0.000000
	 D(5,9,12,15)     =         3.141593	     180.000000
	 D(6,4,7,10)      =         0.000000	       0.000000
	 D(6,4,7,11)      =         3.141593	     180.000000
	 D(7,11,9,12)     =         3.141593	     180.000000
	 D(8,5,9,11)      =         3.141593	     180.000000
	 D(8,5,9,12)      =        -0.000000	      -0.000000
	 D(9,11,7,10)     =         3.141593	     180.000000
	 D(10,7,11,13)    =        -0.000000	      -0.000000
	 D(11,9,12,14)    =         3.141593	     180.000000
	 D(11,9,12,15)    =         0.000000	       0.000000
	 D(12,9,11,13)    =         0.000015	       0.000887

	Current energy   :      -418.4403284599

	Energy change for the previous step:
		Projected    :        -0.0002025082
		Actual       :        -0.0000888849

	Performing BFGS update.
	Previous computed or guess Hessian on step 1.
	Steps to be used in Hessian update: 6 5
	Taking RFO optimization step.
	Going to follow RFO solution 1.
	Using RFO vector 1.
	Norm of target step-size    0.00064
	Projected energy change by RFO approximation:        -0.0000001556

	Back-transformation to cartesian coordinates...
	Could not converge backtransformation.
	Using first guess instead.

	Back-transformation to cartesian coordinates to adjust frozen coordinates...
	Successfully converged to displaced geometry.

	--- Internal Coordinate Step in ANG or DEG, aJ/ANG or AJ/DEG ---
	 ---------------------------------------------------------------------------
	   Coordinate                Previous        Force       Change         New 
	   ----------                --------       ------       ------       ------
	    1 R(1,2)          =      0.940470     0.000078     0.000007     0.940477
	    2 R(2,3)          =      1.346950    -0.000372    -0.000041     1.346910
	    3 R(3,4)          =      1.391169    -0.000188    -0.000033     1.391137
	    4 R(3,5)          =      1.375303    -0.000359    -0.000039     1.375263
	    5 R(4,6)          =      1.072266    -0.000019    -0.000003     1.072264
	    6 R(4,7)          =      1.374195     0.000038     0.000010     1.374205
	    7 R(5,8)          =      1.073404     0.000070     0.000012     1.073416
	    8 R(5,9)          =      1.389302    -0.000129    -0.000023     1.389279
	    9 R(7,10)         =      1.072781     0.000001     0.000000     1.072781
	   10 R(7,11)         =      1.387059     0.000001    -0.000001     1.387057
	   11 R(9,11)         =      1.378325     0.000043     0.000011     1.378335
	   12 R(9,12)         =      1.484652    -0.000240    -0.000044     1.484608
	   13 R(11,13)        =      1.073345    -0.000012    -0.000002     1.073343
	   14 R(12,14)        =      1.183861    -0.002371    -0.000134     1.183726
	   15 R(12,15)        =      1.094316    -0.000905    -0.000169     1.094146
	   16 B(1,2,3)        =    111.090954    -0.000002    -0.008701   111.082253
	   17 B(2,3,4)        =    117.183156    -0.000001    -0.000425   117.182731
	   18 B(2,3,5)        =    122.819828    -0.000000    -0.001520   122.818308
	   19 B(3,4,6)        =    118.772238     0.000002     0.009763   118.782002
	   20 B(3,4,7)        =    120.021862    -0.000001    -0.001849   120.020014
	   21 B(3,5,8)        =    121.240565    -0.000001    -0.004995   121.235570
	   22 B(3,5,9)        =    119.604653     0.000000     0.000615   119.605268
	   23 B(4,3,5)        =    119.997015     0.000001     0.001946   119.998961
	   24 B(4,7,10)       =    119.548770     0.000001     0.002077   119.550847
	   25 B(4,7,11)       =    120.384041     0.000000     0.001357   120.385398
	   26 B(5,9,11)       =    120.670280     0.000000     0.000318   120.670599
	   27 B(5,9,12)       =    119.882115    -0.000001    -0.004005   119.878110
	   28 B(6,4,7)        =    121.205899    -0.000001    -0.007915   121.197985
	   29 B(7,11,9)       =    119.322148    -0.000001    -0.002387   119.319761
	   30 B(7,11,13)      =    120.391424    -0.000001    -0.006970   120.384454
	   31 B(8,5,9)        =    119.154783     0.000001     0.004380   119.159163
	   32 B(9,11,13)      =    120.286428     0.000002     0.009357   120.295785
	   33 B(9,12,14)      =    124.624716    -0.000002    -0.006400   124.618317
	   34 B(9,12,15)      =    114.757085    -0.000001    -0.006299   114.750786
	   35 B(10,7,11)      =    120.067189    -0.000001    -0.003434   120.063755
	   36 B(11,9,12)      =    119.447605     0.000001     0.003686   119.451291
	   37 B(14,12,15)     =    120.618199     0.000003     0.012698   120.630897
	   38 *D(1,2,3,4)     =    180.000000    -0.000000     0.000000   180.000000
	   39 D(1,2,3,5)      =      0.000000    -0.000000     0.000000     0.000000
	   40 D(2,3,4,6)      =      0.000000     0.000000     0.000000     0.000000
	   41 D(2,3,4,7)      =    180.000000    -0.000000     0.000000   180.000000
	   42 D(2,3,5,8)      =      0.000000     0.000000     0.000000     0.000000
	   43 D(2,3,5,9)      =    180.000000     0.000000     0.000000   180.000000
	   44 D(3,4,7,10)     =    180.000000    -0.000000     0.000000   180.000000
	   45 D(3,4,7,11)     =      0.000000     0.000000     0.000000     0.000000
	   46 D(3,5,9,11)     =      0.000000     0.000000     0.000000     0.000000
	   47 D(3,5,9,12)     =    180.000000     0.000000     0.000000   180.000000
	   48 D(4,3,5,8)      =    180.000000     0.000000     0.000000   180.000000
	   49 D(4,3,5,9)      =      0.000000    -0.000000     0.000000     0.000000
	   50 D(4,7,11,9)     =      0.000000    -0.000000     0.000000     0.000000
	   51 D(4,7,11,13)    =    180.000000     0.000000     0.000000   180.000000
	   52 D(5,3,4,6)      =    180.000000     0.000000     0.000000   180.000000
	   53 D(5,3,4,7)      =      0.000000    -0.000000     0.000000     0.000000
	   54 D(5,9,11,7)     =      0.000000     0.000000     0.000000     0.000000
	   55 D(5,9,11,13)    =    180.000000    -0.000000     0.000000   180.000000
	   56 D(5,9,12,14)    =      0.000000     0.000000     0.000000     0.000000
	   57 D(5,9,12,15)    =    180.000000    -0.000000     0.001318   180.001318
	   58 D(6,4,7,10)     =      0.000000    -0.000000     0.000000     0.000000
	   59 D(6,4,7,11)     =    180.000000    -0.000000     0.000000   180.000000
	   60 D(7,11,9,12)    =    180.000000    -0.000000     0.000000   180.000000
	   61 D(8,5,9,11)     =    180.000000    -0.000000     0.000000   180.000000
	   62 D(8,5,9,12)     =      0.000000     0.000000     0.000000     0.000000
	   63 D(9,11,7,10)    =    180.000000     0.000000     0.000000   180.000000
	   64 D(10,7,11,13)   =      0.000000     0.000000     0.000000     0.000000
	   65 D(11,9,12,14)   =    180.000000     0.000000     0.000000   180.000000
	   66 D(11,9,12,15)   =      0.000000    -0.000000     0.001118     0.001118
	   67 D(12,9,11,13)   =      0.000887    -0.000000    -0.000887     0.000000
	 ---------------------------------------------------------------------------
	Successfully symmetrized geometry.

  ==> Convergence Check <==

  Measures of convergence in internal coordinates in au.
  Criteria marked as inactive (o), active & met (*), and active & unmet ( ).
  ---------------------------------------------------------------------------------------------
   Step     Total Energy     Delta E     MAX Force     RMS Force      MAX Disp      RMS Disp   
  ---------------------------------------------------------------------------------------------
    Convergence Criteria    1.00e-06 *    3.00e-04 *             o    1.20e-03 *             o
  ---------------------------------------------------------------------------------------------
      7    -418.44032846   -8.89e-05      2.88e-04 *    4.00e-05 o    3.20e-04 *    7.85e-05 o  ~
  ---------------------------------------------------------------------------------------------


  **** Optimization is complete! (in 7 steps) ****

  ==> Optimization Summary <==

  Measures of convergence in internal coordinates in au.
  --------------------------------------------------------------------------------------------------------------- ~
   Step         Total Energy             Delta E       MAX Force       RMS Force        MAX Disp        RMS Disp  ~
  --------------------------------------------------------------------------------------------------------------- ~
      1    -418.438166055967   -418.438166055967      0.02367867      0.00421281      0.09294821      0.01656592  ~
      2    -418.440124115217     -0.001958059250      0.00696720      0.00140147      0.01540684      0.00356512  ~
      3    -418.440295715779     -0.000171600561      0.00164606      0.00046502      0.00533876      0.00160552  ~
      4    -418.440324099826     -0.000028384047      0.00074237      0.00018636      0.00395783      0.00119926  ~
      5    -418.440325936772     -0.000001836946      0.00034752      0.00008633      0.02404463      0.00593016  ~
      6    -418.440239575083      0.000086361689      0.00188448      0.00060639      0.02030583      0.00504183  ~
      7    -418.440328459949     -0.000088884866      0.00028783      0.00004003      0.00032022      0.00007849  ~
  --------------------------------------------------------------------------------------------------------------- ~

	Writing optimization data to binary file.
	Final energy is   -418.4403284599485
	Final (previous) structure:
	Cartesian Geometry (in Angstrom)
	    H     1.8246980835  -2.4115961292  -0.0000011324
	    O     0.9029291214  -2.5982121242   0.0000020388
	    C     0.1784990950  -1.4626611489   0.0000008206
	    C    -1.2066032542  -1.5924424890   0.0000044588
	    C     0.7519744191  -0.2126277667  -0.0000043888
	    H    -1.6327842258  -2.5763760354   0.0000049981
	    C    -2.0021548042  -0.4719466439  -0.0000017961
	    H     1.8182725570  -0.0893203449  -0.0000041723
	    C    -0.0597483438   0.9148762948  -0.0000049171
	    H    -3.0693949543  -0.5808415952   0.0000034676
	    C    -1.4326573121   0.7928081580  -0.0000036430
	    C     0.5527816451   2.2672810992   0.0000011176
	    H    -2.0539269810   1.6680753175  -0.0000126879
	    O     1.7177191494   2.4781048364   0.0000040135
	    H    -0.1633684096   3.0947206104   0.0000128703
	Saving final (previous) structure.
			--------------------------
			 OPTKING Finished Execution 
			--------------------------

    Final optimized geometry and variables:
    Molecular point group: c1
    Full point group: C1

    Geometry (in Angstrom), charge = 0, multiplicity = 1:

    H            1.824698083528    -2.411596129198    -0.000001132402
    O            0.902929121435    -2.598212124236     0.000002038805
    C            0.178499094999    -1.462661148930     0.000000820619
    C           -1.206603254168    -1.592442489019     0.000004458763
    C            0.751974419092    -0.212627766735    -0.000004388763
    H           -1.632784225768    -2.576376035430     0.000004998113
    C           -2.002154804217    -0.471946643908    -0.000001796116
    H            1.818272557015    -0.089320344858    -0.000004172262
    C           -0.059748343811     0.914876294824    -0.000004917092
    H           -3.069394954309    -0.580841595241     0.000003467600
    C           -1.432657312086     0.792808158030    -0.000003643030
    C            0.552781645138     2.267281099158     0.000001117583
    H           -2.053926981033     1.668075317466    -0.000012687932
    O            1.717719149354     2.478104836394     0.000004013548
    H           -0.163368409632     3.094720610395     0.000012870272

	Cleaning optimization helper files.


Properties will be evaluated at   0.000000,   0.000000,   0.000000 Bohr

Properties computed using the  density matrix

  Nuclear Dipole Moment: (a.u.)
     X:    -3.0590      Y:    -0.8399      Z:     0.0000

  Electronic Dipole Moment: (a.u.)
     X:     2.3026      Y:     0.4783      Z:    -0.0000

  Dipole Moment: (a.u.)
     X:    -0.7564      Y:    -0.3616      Z:    -0.0000     Total:     0.8384

  Dipole Moment: (Debye)
     X:    -1.9226      Y:    -0.9191      Z:    -0.0000     Total:     2.1310

  Quadrupole Moment: (Debye Ang)
    XX:   -47.7820     YY:   -55.2151     ZZ:   -54.6802
    XY:    -9.0914     XZ:    -0.0000     YZ:    -0.0000

  Traceless Quadrupole Moment: (Debye Ang)
    XX:     4.7771     YY:    -2.6560     ZZ:    -2.1211
    XY:    -9.0914     XZ:    -0.0000     YZ:    -0.0000

  Mulliken Charges: (a.u.)
   Center  Symbol    Alpha    Beta     Spin     Total
       1     H     0.38475  0.38475  0.00000  0.23051
       2     O     4.17248  4.17248  0.00000 -0.34497
       3     C     2.83991  2.83991  0.00000  0.32019
       4     C     3.10193  3.10193  0.00000 -0.20386
       5     C     3.14381  3.14381  0.00000 -0.28762
       6     H     0.41551  0.41551  0.00000  0.16898
       7     C     3.05611  3.05611  0.00000 -0.11221
       8     H     0.41785  0.41785  0.00000  0.16430
       9     C     2.97998  2.97998  0.00000  0.04005
      10     H     0.41938  0.41938  0.00000  0.16124
      11     C     3.10858  3.10858  0.00000 -0.21716
      12     C     2.90932  2.90932  0.00000  0.18136
      13     H     0.42312  0.42312  0.00000  0.15376
      14     O     4.17233  4.17233  0.00000 -0.34466
      15     H     0.45495  0.45495  0.00000  0.09010

   Total alpha = 32.00000, Total beta = 32.00000, Total charge =  0.00000


*** Psi4 exiting successfully. Buy a developer a beer!
