    -----------------------------------------------------------------------
          Psi4: An Open-Source Ab Initio Electronic Structure Package
                              Psi4 (no tag) Driver

                          Git: Rev {detached?}  

    J. M. Turney, A. C. Simmonett, R. M. Parrish, E. G. Hohenstein,
    F. A. Evangelista, J. T. Fermann, B. J. Mintz, L. A. Burns, J. J. Wilke,
    M. L. Abrams, N. J. Russ, M. L. Leininger, C. L. Janssen, E. T. Seidl,
    W. D. Allen, H. F. Schaefer, R. A. King, E. F. Valeev, C. D. Sherrill,
    and T. D. Crawford, WIREs Comput. Mol. Sci. 2, 556-565 (2012)
    (doi: 10.1002/wcms.93)

                         Additional Contributions by
    A. E. DePrince, M. Saitow, U. Bozkaya, A. Yu. Sokolov
    -----------------------------------------------------------------------


    Psi4 started on: Fri Sep  2 11:50:08 2016

    Process ID:   7701
    PSI4DATADIR: /export131/home/mjharvey/miniconda3/share
    Memory level set to 256.000 MB

  ==> Input File <==

--------------------------------------------------------------------------
set {
	reference rhf
	basis 6-31G*
}


set_num_threads( 4 )
memory 2 gb

molecule MOL {
0 1

H	 2.176868	 -0.646004	 -0.217325
O	 1.337496	 -0.537251	 0.205931
C	 0.702312	 0.627605	 -0.264544
C	 -0.714990	 0.596302	 0.266387
H	 0.682322	 0.642550	 -1.350929
H	 1.215941	 1.520383	 0.085680
O	 -1.405996	 -0.526611	 -0.195820
H	 -1.257453	 1.468809	 -0.075599
H	 -0.688972	 0.618407	 1.353696
H	 -2.290948	 -0.255547	 -0.404143

	symmetry c1
}
set optking {
	frozen_dihedral = ("
		10 7 4 3
	")
}

ee = optimize('scf')
oeprop('DIPOLE', 'QUADRUPOLE', 'MULLIKEN_CHARGES')
f=open( 'psi4out.xyz', 'w' )
f.write( "10  " )
f.write( str(ee) + "\n" )
f.write( MOL.save_string_xyz() )
f.close()
--------------------------------------------------------------------------

  Memory set to   2.000 GiB by Python script.
gradient() will perform analytic gradient computation.

*** tstart() called on cx1-1-1-2.cx1.hpc.ic.ac.uk
*** at Fri Sep  2 11:50:08 2016


         ---------------------------------------------------------
                                   SCF
            by Justin Turney, Rob Parrish, and Andy Simmonett
                              RHF Reference
                        4 Threads,   2000 MiB Core
         ---------------------------------------------------------

  ==> Geometry <==

    Molecular point group: c1
    Full point group: C1

    Geometry (in Angstrom), charge = 0, multiplicity = 1:

       Center              X                  Y                   Z               Mass       
    ------------   -----------------  -----------------  -----------------  -----------------
           H          2.199617395008    -0.662853730746    -0.210401012436     1.007825032070
           O          1.360245395008    -0.554100730746     0.212854987564    15.994914619560
           C          0.725061395008     0.610755269254    -0.257620012436    12.000000000000
           C         -0.692240604992     0.579452269254     0.273310987564    12.000000000000
           H          0.705071395008     0.625700269254    -1.344005012436     1.007825032070
           H          1.238690395008     1.503533269254     0.092603987564     1.007825032070
           O         -1.383246604992    -0.543460730746    -0.188896012436    15.994914619560
           H         -1.234703604992     1.451959269254    -0.068675012436     1.007825032070
           H         -0.666222604992     0.601557269254     1.360619987564     1.007825032070
           H         -2.268198604992    -0.272396730746    -0.397219012436     1.007825032070

  Running in c1 symmetry.

  Rotational constants: A =      0.55105  B =      0.18079  C =      0.15285 [cm^-1]
  Rotational constants: A =  16519.97308  B =   5420.03241  C =   4582.30264 [MHz]
  Nuclear repulsion =  133.696440762653992

  Charge       = 0
  Multiplicity = 1
  Electrons    = 34
  Nalpha       = 17
  Nbeta        = 17

  ==> Algorithm <==

  SCF Algorithm Type is DF.
  DIIS enabled.
  MOM disabled.
  Fractional occupation disabled.
  Guess Type is CORE.
  Energy threshold   = 1.00e-08
  Density threshold  = 1.00e-08
  Integral threshold = 0.00e+00

  ==> Primary Basis <==

  Basis Set: 6-31G*
    Number of shells: 36
    Number of basis function: 72
    Number of Cartesian functions: 72
    Spherical Harmonics?: false
    Max angular momentum: 2

  ==> Pre-Iterations <==

   -------------------------------------------------------
    Irrep   Nso     Nmo     Nalpha   Nbeta   Ndocc  Nsocc
   -------------------------------------------------------
     A         72      72       0       0       0       0
   -------------------------------------------------------
    Total      72      72      17      17      17       0
   -------------------------------------------------------

 OEINTS: Overlap, kinetic, potential, dipole, and quadrupole integrals
         stored in file 35.

  ==> Integral Setup <==

  ==> DFJK: Density-Fitted J/K Matrices <==

    J tasked:                  Yes
    K tasked:                  Yes
    wK tasked:                  No
    OpenMP threads:              4
    Integrals threads:           4
    Memory (MB):              1430
    Algorithm:                Core
    Integral Cache:           NONE
    Schwarz Cutoff:          1E-12
    Fitting Condition:       1E-12

   => Auxiliary Basis Set <=

  Basis Set: 
    Number of shells: 150
    Number of basis function: 474
    Number of Cartesian functions: 474
    Spherical Harmonics?: false
    Max angular momentum: 3

  Minimum eigenvalue in the overlap matrix is 4.9120846442E-03.
  Using Symmetric Orthogonalization.
  SCF Guess: Core (One-Electron) Hamiltonian.

  ==> Iterations <==

                           Total Energy        Delta E     RMS |[F,P]|

   @DF-RHF iter   1:  -200.40368120941378   -2.00404e+02   8.43332e-02 
   @DF-RHF iter   2:  -191.75366197981128    8.65002e+00   7.61681e-02 DIIS
   @DF-RHF iter   3:  -223.49636046422120   -3.17427e+01   4.02396e-02 DIIS
   @DF-RHF iter   4:  -228.23718094249631   -4.74082e+00   1.59244e-02 DIIS
   @DF-RHF iter   5:  -228.84651181246966   -6.09331e-01   5.36897e-03 DIIS
   @DF-RHF iter   6:  -228.90928344305564   -6.27716e-02   1.41069e-03 DIIS
   @DF-RHF iter   7:  -228.91471212374563   -5.42868e-03   5.44271e-04 DIIS
   @DF-RHF iter   8:  -228.91556524764792   -8.53124e-04   1.32268e-04 DIIS
   @DF-RHF iter   9:  -228.91562862074568   -6.33731e-05   3.89379e-05 DIIS
   @DF-RHF iter  10:  -228.91563454277855   -5.92203e-06   1.08467e-05 DIIS
   @DF-RHF iter  11:  -228.91563499263424   -4.49856e-07   2.20559e-06 DIIS
   @DF-RHF iter  12:  -228.91563501456119   -2.19270e-08   7.10168e-07 DIIS
   @DF-RHF iter  13:  -228.91563501721123   -2.65004e-09   2.04788e-07 DIIS
   @DF-RHF iter  14:  -228.91563501752398   -3.12752e-10   4.64385e-08 DIIS
   @DF-RHF iter  15:  -228.91563501753899   -1.50067e-11   1.10848e-08 DIIS
   @DF-RHF iter  16:  -228.91563501753973   -7.38964e-13   3.54602e-09 DIIS

  ==> Post-Iterations <==

    Orbital Energies (a.u.)
    -----------------------

    Doubly Occupied:                                                      

       1A    -20.551073     2A    -20.550947     3A    -11.271182  
       4A    -11.269612     5A     -1.370418     6A     -1.347914  
       7A     -0.999734     8A     -0.832232     9A     -0.722268  
      10A     -0.686097    11A     -0.638327    12A     -0.593418  
      13A     -0.577235    14A     -0.515158    15A     -0.486562  
      16A     -0.440124    17A     -0.432298  

    Virtual:                                                              

      18A      0.211870    19A      0.247425    20A      0.278794  
      21A      0.312196    22A      0.323041    23A      0.346659  
      24A      0.401916    25A      0.416833    26A      0.424354  
      27A      0.753205    28A      0.812045    29A      0.820720  
      30A      0.825471    31A      0.895018    32A      0.929206  
      33A      1.060338    34A      1.110167    35A      1.119875  
      36A      1.142242    37A      1.154014    38A      1.197328  
      39A      1.205835    40A      1.256891    41A      1.285490  
      42A      1.306618    43A      1.310314    44A      1.445666  
      45A      1.472148    46A      1.576933    47A      1.689548  
      48A      1.720923    49A      1.838416    50A      1.888150  
      51A      1.998507    52A      2.027194    53A      2.072425  
      54A      2.161799    55A      2.262611    56A      2.377308  
      57A      2.440953    58A      2.444306    59A      2.502557  
      60A      2.652458    61A      2.712718    62A      2.754252  
      63A      2.776469    64A      2.894269    65A      2.930633  
      66A      3.038973    67A      3.185452    68A      3.255612  
      69A      4.153282    70A      4.187413    71A      4.641418  
      72A      4.858693  

    Final Occupation by Irrep:
              A 
    DOCC [    17 ]

  Energy converged.

  @DF-RHF Final Energy:  -228.91563501753973

   => Energetics <=

    Nuclear Repulsion Energy =            133.6964407626539924
    One-Electron Energy =                -578.6549515393761567
    Two-Electron Energy =                 216.0428757591824365
    DFT Exchange-Correlation Energy =       0.0000000000000000
    Empirical Dispersion Energy =           0.0000000000000000
    PCM Polarization Energy =               0.0000000000000000
    EFP Energy =                            0.0000000000000000
    Total Energy =                       -228.9156350175397279

    Alert: EFP and PCM quantities not currently incorporated into SCF psivars.

Properties will be evaluated at   0.000000,   0.000000,   0.000000 Bohr
  ==> Properties <==


Properties computed using the SCF density matrix

  Nuclear Dipole Moment: (a.u.)
     X:    -0.0242      Y:     3.0392      Z:    -0.5315

  Electronic Dipole Moment: (a.u.)
     X:     0.0073      Y:    -1.9805      Z:     0.0785

  Dipole Moment: (a.u.)
     X:    -0.0169      Y:     1.0587      Z:    -0.4530     Total:     1.1517

  Dipole Moment: (Debye)
     X:    -0.0430      Y:     2.6910      Z:    -1.1515     Total:     2.9273


  Saving occupied orbitals to File 180.

*** tstop() called on cx1-1-1-2.cx1.hpc.ic.ac.uk at Fri Sep  2 11:50:11 2016
Module time:
	user time   =       4.72 seconds =       0.08 minutes
	system time =       0.09 seconds =       0.00 minutes
	total time  =          3 seconds =       0.05 minutes
Total time:
	user time   =       4.72 seconds =       0.08 minutes
	system time =       0.09 seconds =       0.00 minutes
	total time  =          3 seconds =       0.05 minutes

*** tstart() called on cx1-1-1-2.cx1.hpc.ic.ac.uk
*** at Fri Sep  2 11:50:11 2016


         ------------------------------------------------------------
                                   SCF GRAD                          
                          Rob Parrish, Justin Turney,                
                       Andy Simmonett, and Alex Sokolov              
         ------------------------------------------------------------

  ==> Geometry <==

    Molecular point group: c1
    Full point group: C1

    Geometry (in Angstrom), charge = 0, multiplicity = 1:

       Center              X                  Y                   Z               Mass       
    ------------   -----------------  -----------------  -----------------  -----------------
           H          2.199617395008    -0.662853730746    -0.210401012436     1.007825032070
           O          1.360245395008    -0.554100730746     0.212854987564    15.994914619560
           C          0.725061395008     0.610755269254    -0.257620012436    12.000000000000
           C         -0.692240604992     0.579452269254     0.273310987564    12.000000000000
           H          0.705071395008     0.625700269254    -1.344005012436     1.007825032070
           H          1.238690395008     1.503533269254     0.092603987564     1.007825032070
           O         -1.383246604992    -0.543460730746    -0.188896012436    15.994914619560
           H         -1.234703604992     1.451959269254    -0.068675012436     1.007825032070
           H         -0.666222604992     0.601557269254     1.360619987564     1.007825032070
           H         -2.268198604992    -0.272396730746    -0.397219012436     1.007825032070

  Nuclear repulsion =  133.696440762653992

  ==> Basis Set <==

  Basis Set: 6-31G*
    Number of shells: 36
    Number of basis function: 72
    Number of Cartesian functions: 72
    Spherical Harmonics?: false
    Max angular momentum: 2

  ==> DFJKGrad: Density-Fitted SCF Gradients <==

    Gradient:                    1
    J tasked:                  Yes
    K tasked:                  Yes
    wK tasked:                  No
    OpenMP threads:              4
    Integrals threads:           4
    Memory (MB):              1430
    Schwarz Cutoff:          0E+00
    Fitting Condition:       1E-12

   => Auxiliary Basis Set <=

  Basis Set: 
    Number of shells: 150
    Number of basis function: 474
    Number of Cartesian functions: 474
    Spherical Harmonics?: false
    Max angular momentum: 3


  -Total Gradient:
     Atom            X                  Y                   Z
    ------   -----------------  -----------------  -----------------
       1        0.000203049154    -0.000784019628     0.000444585437
       2       -0.001166568724    -0.005047357396     0.000071015023
       3        0.000797378337     0.012666698471    -0.000301174367
       4        0.003482550716    -0.006944321266    -0.000926995680
       5        0.000227417424    -0.000447917009     0.000254382206
       6        0.001590517820    -0.001031460695    -0.000486877585
       7        0.003529796526     0.003663086556     0.003333319544
       8       -0.005501610485    -0.009334668392    -0.002071465570
       9        0.000075258946     0.001730431619     0.001034386520
      10       -0.003237789713     0.005529527743    -0.001351175528


*** tstop() called on cx1-1-1-2.cx1.hpc.ic.ac.uk at Fri Sep  2 11:50:13 2016
Module time:
	user time   =       6.65 seconds =       0.11 minutes
	system time =       0.12 seconds =       0.00 minutes
	total time  =          2 seconds =       0.03 minutes
Total time:
	user time   =      11.39 seconds =       0.19 minutes
	system time =       0.21 seconds =       0.00 minutes
	total time  =          5 seconds =       0.08 minutes
CURRENT ENERGY: -228.9156350175

			-----------------------------------------
			 OPTKING 2.0: for geometry optimizations 
			  - R.A. King,  Bethel University        
			-----------------------------------------

	Internal coordinates to be generated automatically.
	Detected frag with atoms:  1 2 3 4 5 6 7 8 9 10
	---Fragment 1 Bond Connectivity---
	 1 : 2
	 2 : 1 3
	 3 : 2 4 5 6
	 4 : 3 7 8 9
	 5 : 3
	 6 : 3
	 7 : 4 10
	 8 : 4
	 9 : 4
	 10 : 7

	Assuming in current code that numbering for constraints corresponds to unified fragment.
	Frozen dihedral atom list: 
	    10     7     4     3
	---Fragment 1 Geometry and Gradient---
	 H           4.1566744737       -1.2526120173       -0.3976002916
	 O           2.5704912701       -1.0470986311        0.4022376325
	 C           1.3701674661        1.1541601931       -0.4868312699
	 C          -1.3081451615        1.0950060960        0.5164829156
	 H           1.3323918407        1.1824021502       -2.5398013947
	 H           2.3407856100        2.8412661106        0.1749961753
	 O          -2.6139572577       -1.0269919451       -0.3569617311
	 H          -2.3332516687        2.7438053750       -0.1297769657
	 H          -1.2589782670        1.1367784921        2.5711991474
	 H          -4.2862741784       -0.5147552206       -0.7506351483
	             0.0002030492       -0.0007840196        0.0004445854
	            -0.0011665687       -0.0050473574        0.0000710150
	             0.0007973783        0.0126666985       -0.0003011744
	             0.0034825507       -0.0069443213       -0.0009269957
	             0.0002274174       -0.0004479170        0.0002543822
	             0.0015905178       -0.0010314607       -0.0004868776
	             0.0035297965        0.0036630866        0.0033333195
	            -0.0055016105       -0.0093346684       -0.0020714656
	             0.0000752589        0.0017304316        0.0010343865
	            -0.0032377897        0.0055295277       -0.0013511755

	Previous optimization step data not found.  Starting new optimization.

	---Fragment 1 Intrafragment Coordinates---
	 - Coordinate -           - BOHR/RAD -       - ANG/DEG -
	 R(1,2)           =         1.788282	       0.946318
	 R(2,3)           =         2.660218	       1.407727
	 R(3,4)           =         2.860681	       1.513807
	 R(3,5)           =         2.053512	       1.086672
	 R(3,6)           =         2.055831	       1.087899
	 R(4,7)           =         2.640251	       1.397161
	 R(4,8)           =         2.046224	       1.082815
	 R(4,9)           =         2.055729	       1.087845
	 R(7,10)          =         1.792766	       0.948691
	 B(1,2,3)         =         1.923924	     110.232737
	 B(2,3,4)         =         1.863061	     106.745514
	 B(2,3,5)         =         1.932429	     110.720004
	 B(2,3,6)         =         1.937392	     111.004385
	 B(3,4,7)         =         1.942971	     111.324038
	 B(3,4,8)         =         1.919421	     109.974723
	 B(3,4,9)         =         1.904707	     109.131682
	 B(4,3,5)         =         1.911016	     109.493176
	 B(4,3,6)         =         1.924199	     110.248504
	 B(4,7,10)        =         1.880057	     107.719350
	 B(5,3,6)         =         1.895725	     108.617019
	 B(7,4,8)         =         1.870626	     107.178948
	 B(7,4,9)         =         1.937795	     111.027503
	 B(8,4,9)         =         1.887339	     108.136584
	 D(1,2,3,4)       =         2.969868	     170.160930
	 D(1,2,3,5)       =         0.891127	      51.057820
	 D(1,2,3,6)       =        -1.215839	     -69.662462
	 D(2,3,4,7)       =        -1.059990	     -60.732955
	 D(2,3,4,8)       =        -3.130581	    -179.369053
	 D(2,3,4,9)       =         1.084959	      62.163557
	*D(3,4,7,10)      =        -2.443462	    -140.000067
	 D(5,3,4,7)       =         1.032606	      59.163980
	 D(5,3,4,8)       =        -1.037984	     -59.472118
	 D(5,3,4,9)       =        -3.105630	    -177.939508
	 D(6,3,4,7)       =         3.117260	     178.605855
	 D(6,3,4,8)       =         1.046670	      59.969757
	 D(6,3,4,9)       =        -1.020976	     -58.497633
	 D(8,4,7,10)      =        -0.343844	     -19.700789
	 D(9,4,7,10)      =         1.713872	      98.197625

	Current energy   :      -228.9156350175

	Generating empirical Hessian (Schlegel '84) for each fragment.
	Taking RFO optimization step.
	Going to follow RFO solution 1.
	Using RFO vector 1.
	Norm of target step-size    0.37537
	Projected energy change by RFO approximation:        -0.0043355477

	Back-transformation to cartesian coordinates...
	Successfully converged to displaced geometry.

	Back-transformation to cartesian coordinates to adjust frozen coordinates...
	Successfully converged to displaced geometry.

	--- Internal Coordinate Step in ANG or DEG, aJ/ANG or AJ/DEG ---
	 ---------------------------------------------------------------------------
	   Coordinate                Previous        Force       Change         New 
	   ----------                --------       ------       ------       ------
	    1 R(1,2)          =      0.946318    -0.000588    -0.000064     0.946254
	    2 R(2,3)          =      1.407727    -0.037592    -0.005396     1.402331
	    3 R(3,4)          =      1.513807    -0.013706    -0.002808     1.510999
	    4 R(3,5)          =      1.086672     0.002180     0.000394     1.087065
	    5 R(3,6)          =      1.087899     0.002078     0.000377     1.088276
	    6 R(4,7)          =      1.397161     0.067462     0.009324     1.406484
	    7 R(4,8)          =      1.082815     0.033871     0.006037     1.088853
	    8 R(4,9)          =      1.087845    -0.008822    -0.001599     1.086246
	    9 R(7,10)         =      0.948691    -0.040344    -0.004440     0.944251
	   10 B(1,2,3)        =    110.232737    -0.000125    -0.576171   109.656566
	   11 B(2,3,4)        =    106.745514     0.000531     1.950059   108.695572
	   12 B(2,3,5)        =    110.720004    -0.000065     0.840602   111.560606
	   13 B(2,3,6)        =    111.004385    -0.000154    -0.764256   110.240129
	   14 B(3,4,7)        =    111.324038    -0.000550    -1.731343   109.592695
	   15 B(3,4,8)        =    109.974723    -0.000363    -2.048823   107.925900
	   16 B(3,4,9)        =    109.131682     0.000159    -0.349650   108.782032
	   17 B(4,3,5)        =    109.493176    -0.000093     0.038169   109.531345
	   18 B(4,3,6)        =    110.248504    -0.000299    -1.814081   108.434424
	   19 B(4,7,10)       =    107.719350     0.000557     2.558324   110.277674
	   20 B(5,3,6)        =    108.617019     0.000077    -0.291381   108.325637
	   21 B(7,4,8)        =    107.178948     0.000752     5.086369   112.265318
	   22 B(7,4,9)        =    111.027503     0.000043    -0.662006   110.365497
	   23 B(8,4,9)        =    108.136584    -0.000028    -0.324580   107.812003
	   24 D(1,2,3,4)      =    170.160930     0.000022     1.095684   171.256614
	   25 D(1,2,3,5)      =     51.057820    -0.000017    -0.679127    50.378694
	   26 D(1,2,3,6)      =    -69.662462    -0.000006    -0.357718   -70.020180
	   27 D(2,3,4,7)      =    -60.732955     0.000013    -5.445756   -66.178711
	   28 D(2,3,4,8)      =   -179.369053    -0.000069    -9.346753  -188.715806
	   29 D(2,3,4,9)      =     62.163557    -0.000034    -7.597175    54.566382
	   30 *D(3,4,7,10)    =   -140.000067    -0.000000     0.000000  -140.000067
	   31 D(5,3,4,7)      =     59.163980     0.000054    -3.223488    55.940492
	   32 D(5,3,4,8)      =    -59.472118    -0.000028    -7.124485   -66.596603
	   33 D(5,3,4,9)      =   -177.939508     0.000008    -5.374907  -183.314416
	   34 D(6,3,4,7)      =    178.605855     0.000020    -4.637561   173.968294
	   35 D(6,3,4,8)      =     59.969757    -0.000061    -8.538559    51.431198
	   36 D(6,3,4,9)      =    -58.497633    -0.000026    -6.788981   -65.286614
	   37 D(8,4,7,10)     =    -19.700789    -0.000067    -0.381634   -20.082423
	   38 D(9,4,7,10)     =     98.197625     0.000034     2.022209   100.219835
	 ---------------------------------------------------------------------------

  ==> Convergence Check <==

  Measures of convergence in internal coordinates in au.
  Criteria marked as inactive (o), active & met (*), and active & unmet ( ).
  --------------------------------------------------------------------------------------------- ~
   Step     Total Energy     Delta E     MAX Force     RMS Force      MAX Disp      RMS Disp    ~
  --------------------------------------------------------------------------------------------- ~
    Convergence Criteria    1.00e-06 *    3.00e-04 *             o    1.20e-03 *             o  ~
  --------------------------------------------------------------------------------------------- ~
      1    -228.91563502   -2.29e+02      9.88e-03      3.65e-03 o    1.63e-01      6.09e-02 o  ~
  ---------------------------------------------------------------------------------------------

	Writing optimization data to binary file.
	Structure for next step:
	Cartesian Geometry (in Angstrom)
	    H     2.2244395373  -0.6217922152  -0.1863760787
	    O     1.3891327421  -0.5300002088   0.2486340528
	    C     0.7081212653   0.5818879659  -0.2675626799
	    C    -0.7002045619   0.5843329361   0.2799149788
	    H     0.6756849420   0.5614930948  -1.3539526023
	    H     1.1996223397   1.5018869671   0.0428767967
	    O    -1.4026155225  -0.5267896704  -0.2203088057
	    H    -1.1668747793   1.5275052546   0.0001923735
	    H    -0.6538928815   0.5453014009   1.3644713245
	    H    -2.2893391322  -0.2836795773  -0.4353155244
			--------------------------
			 OPTKING Finished Execution 
			--------------------------

    Structure for next step:
    Molecular point group: c1
    Full point group: C1

    Geometry (in Angstrom), charge = 0, multiplicity = 1:

    H            2.226552573740    -0.627391786006    -0.186839311503
    O            1.391245842271    -0.535599786529     0.248170786755
    C            0.710234417485     0.576288303247    -0.268025906488
    C           -0.698091302184     0.578733273214     0.279451710419
    H            0.677798096687     0.555893433648    -1.354415745909
    H            1.201735454366     1.496287234149     0.042413546401
    O           -1.400502209053    -0.532389248443    -0.220772035867
    H           -1.164761483949     1.521905519712    -0.000270873491
    H           -0.651779625323     0.539701741053     1.364007973332
    H           -2.287225751074    -0.289279173889    -0.435778738179

gradient() will perform analytic gradient computation.

*** tstart() called on cx1-1-1-2.cx1.hpc.ic.ac.uk
*** at Fri Sep  2 11:50:13 2016


         ---------------------------------------------------------
                                   SCF
            by Justin Turney, Rob Parrish, and Andy Simmonett
                              RHF Reference
                        4 Threads,   2000 MiB Core
         ---------------------------------------------------------

  ==> Geometry <==

    Molecular point group: c1
    Full point group: C1

    Geometry (in Angstrom), charge = 0, multiplicity = 1:

       Center              X                  Y                   Z               Mass       
    ------------   -----------------  -----------------  -----------------  -----------------
           H          2.226552573740    -0.627391786006    -0.186839311503     1.007825032070
           O          1.391245842271    -0.535599786529     0.248170786755    15.994914619560
           C          0.710234417485     0.576288303247    -0.268025906488    12.000000000000
           C         -0.698091302184     0.578733273214     0.279451710419    12.000000000000
           H          0.677798096687     0.555893433648    -1.354415745909     1.007825032070
           H          1.201735454366     1.496287234149     0.042413546401     1.007825032070
           O         -1.400502209053    -0.532389248443    -0.220772035867    15.994914619560
           H         -1.164761483949     1.521905519712    -0.000270873491     1.007825032070
           H         -0.651779625323     0.539701741053     1.364007973332     1.007825032070
           H         -2.287225751074    -0.289279173889    -0.435778738179     1.007825032070

  Running in c1 symmetry.

  Rotational constants: A =      0.56107  B =      0.17609  C =      0.15148 [cm^-1]
  Rotational constants: A =  16820.36903  B =   5278.91173  C =   4541.16000 [MHz]
  Nuclear repulsion =  133.387899208586418

  Charge       = 0
  Multiplicity = 1
  Electrons    = 34
  Nalpha       = 17
  Nbeta        = 17

  ==> Algorithm <==

  SCF Algorithm Type is DF.
  DIIS enabled.
  MOM disabled.
  Fractional occupation disabled.
  Guess Type is READ.
  Energy threshold   = 1.00e-08
  Density threshold  = 1.00e-08
  Integral threshold = 0.00e+00

  ==> Primary Basis <==

  Basis Set: 6-31G*
    Number of shells: 36
    Number of basis function: 72
    Number of Cartesian functions: 72
    Spherical Harmonics?: false
    Max angular momentum: 2

  ==> Pre-Iterations <==

   -------------------------------------------------------
    Irrep   Nso     Nmo     Nalpha   Nbeta   Ndocc  Nsocc
   -------------------------------------------------------
     A         72      72       0       0       0       0
   -------------------------------------------------------
    Total      72      72      17      17      17       0
   -------------------------------------------------------

 OEINTS: Overlap, kinetic, potential, dipole, and quadrupole integrals
         stored in file 35.

  ==> Integral Setup <==

  ==> DFJK: Density-Fitted J/K Matrices <==

    J tasked:                  Yes
    K tasked:                  Yes
    wK tasked:                  No
    OpenMP threads:              4
    Integrals threads:           4
    Memory (MB):              1430
    Algorithm:                Core
    Integral Cache:           NONE
    Schwarz Cutoff:          1E-12
    Fitting Condition:       1E-12

   => Auxiliary Basis Set <=

  Basis Set: 
    Number of shells: 150
    Number of basis function: 474
    Number of Cartesian functions: 474
    Spherical Harmonics?: false
    Max angular momentum: 3

  Minimum eigenvalue in the overlap matrix is 4.9218787641E-03.
  Using Symmetric Orthogonalization.
  SCF Guess: Reading in previously saved MOs, projecting if necessary.

  Using orbitals from previous SCF, no projection.
  Recomputing DOCC and SOCC from number of alpha and beta electrons from previous calculation.
              A 
    DOCC [    17 ]

  ==> Iterations <==

                           Total Energy        Delta E     RMS |[F,P]|

   @DF-RHF iter   0:  -228.91110048094060   -2.28911e+02   1.56155e-03 
   @DF-RHF iter   1:  -228.91681311991880   -5.71264e-03   2.73622e-04 
   @DF-RHF iter   2:  -228.91717020810654   -3.57088e-04   9.93739e-05 DIIS
   @DF-RHF iter   3:  -228.91722435680771   -5.41487e-05   3.86282e-05 DIIS
   @DF-RHF iter   4:  -228.91722988398487   -5.52718e-06   7.39702e-06 DIIS
   @DF-RHF iter   5:  -228.91723020191978   -3.17935e-07   2.94002e-06 DIIS
   @DF-RHF iter   6:  -228.91723024255043   -4.06307e-08   8.78965e-07 DIIS
   @DF-RHF iter   7:  -228.91723024695602   -4.40559e-09   1.93426e-07 DIIS
   @DF-RHF iter   8:  -228.91723024724109   -2.85070e-10   4.12458e-08 DIIS
   @DF-RHF iter   9:  -228.91723024725047   -9.37916e-12   1.60188e-08 DIIS
   @DF-RHF iter  10:  -228.91723024725144   -9.66338e-13   4.18738e-09 DIIS

  ==> Post-Iterations <==

    Orbital Energies (a.u.)
    -----------------------

    Doubly Occupied:                                                      

       1A    -20.551852     2A    -20.551285     3A    -11.270999  
       4A    -11.269161     5A     -1.368998     6A     -1.348131  
       7A     -1.002532     8A     -0.831649     9A     -0.721162  
      10A     -0.690795    11A     -0.632767    12A     -0.593924  
      13A     -0.575263    14A     -0.516100    15A     -0.488287  
      16A     -0.440903    17A     -0.431754  

    Virtual:                                                              

      18A      0.215811    19A      0.246583    20A      0.278745  
      21A      0.312584    22A      0.326510    23A      0.338621  
      24A      0.411343    25A      0.415193    26A      0.416885  
      27A      0.752157    28A      0.815643    29A      0.816955  
      30A      0.832199    31A      0.887662    32A      0.926671  
      33A      1.064164    34A      1.111192    35A      1.123630  
      36A      1.142334    37A      1.153896    38A      1.199832  
      39A      1.205424    40A      1.255663    41A      1.276618  
      42A      1.307960    43A      1.315752    44A      1.441323  
      45A      1.494672    46A      1.560687    47A      1.707458  
      48A      1.715503    49A      1.837219    50A      1.869803  
      51A      2.008993    52A      2.022720    53A      2.085334  
      54A      2.166617    55A      2.267125    56A      2.375249  
      57A      2.431488    58A      2.437053    59A      2.485482  
      60A      2.639048    61A      2.711746    62A      2.750059  
      63A      2.785341    64A      2.893662    65A      2.948000  
      66A      3.043281    67A      3.195909    68A      3.250732  
      69A      4.170351    70A      4.171965    71A      4.643496  
      72A      4.858666  

    Final Occupation by Irrep:
              A 
    DOCC [    17 ]

  Energy converged.

  @DF-RHF Final Energy:  -228.91723024725144

   => Energetics <=

    Nuclear Repulsion Energy =            133.3878992085864184
    One-Electron Energy =                -578.0391370696931972
    Two-Electron Energy =                 215.7340076138552831
    DFT Exchange-Correlation Energy =       0.0000000000000000
    Empirical Dispersion Energy =           0.0000000000000000
    PCM Polarization Energy =               0.0000000000000000
    EFP Energy =                            0.0000000000000000
    Total Energy =                       -228.9172302472514957

    Alert: EFP and PCM quantities not currently incorporated into SCF psivars.

Properties will be evaluated at   0.000000,   0.000000,   0.000000 Bohr
  ==> Properties <==


Properties computed using the SCF density matrix

  Nuclear Dipole Moment: (a.u.)
     X:     0.0021      Y:     2.9921      Z:    -0.5351

  Electronic Dipole Moment: (a.u.)
     X:    -0.0494      Y:    -1.9608      Z:     0.0734

  Dipole Moment: (a.u.)
     X:    -0.0473      Y:     1.0313      Z:    -0.4616     Total:     1.1308

  Dipole Moment: (Debye)
     X:    -0.1201      Y:     2.6212      Z:    -1.1733     Total:     2.8743


  Saving occupied orbitals to File 180.

*** tstop() called on cx1-1-1-2.cx1.hpc.ic.ac.uk at Fri Sep  2 11:50:15 2016
Module time:
	user time   =       5.18 seconds =       0.09 minutes
	system time =       0.10 seconds =       0.00 minutes
	total time  =          2 seconds =       0.03 minutes
Total time:
	user time   =      17.49 seconds =       0.29 minutes
	system time =       0.36 seconds =       0.01 minutes
	total time  =          7 seconds =       0.12 minutes

*** tstart() called on cx1-1-1-2.cx1.hpc.ic.ac.uk
*** at Fri Sep  2 11:50:15 2016


         ------------------------------------------------------------
                                   SCF GRAD                          
                          Rob Parrish, Justin Turney,                
                       Andy Simmonett, and Alex Sokolov              
         ------------------------------------------------------------

  ==> Geometry <==

    Molecular point group: c1
    Full point group: C1

    Geometry (in Angstrom), charge = 0, multiplicity = 1:

       Center              X                  Y                   Z               Mass       
    ------------   -----------------  -----------------  -----------------  -----------------
           H          2.226552573740    -0.627391786006    -0.186839311503     1.007825032070
           O          1.391245842271    -0.535599786529     0.248170786755    15.994914619560
           C          0.710234417485     0.576288303247    -0.268025906488    12.000000000000
           C         -0.698091302184     0.578733273214     0.279451710419    12.000000000000
           H          0.677798096687     0.555893433648    -1.354415745909     1.007825032070
           H          1.201735454366     1.496287234149     0.042413546401     1.007825032070
           O         -1.400502209053    -0.532389248443    -0.220772035867    15.994914619560
           H         -1.164761483949     1.521905519712    -0.000270873491     1.007825032070
           H         -0.651779625323     0.539701741053     1.364007973332     1.007825032070
           H         -2.287225751074    -0.289279173889    -0.435778738179     1.007825032070

  Nuclear repulsion =  133.387899208586390

  ==> Basis Set <==

  Basis Set: 6-31G*
    Number of shells: 36
    Number of basis function: 72
    Number of Cartesian functions: 72
    Spherical Harmonics?: false
    Max angular momentum: 2

  ==> DFJKGrad: Density-Fitted SCF Gradients <==

    Gradient:                    1
    J tasked:                  Yes
    K tasked:                  Yes
    wK tasked:                  No
    OpenMP threads:              4
    Integrals threads:           4
    Memory (MB):              1430
    Schwarz Cutoff:          0E+00
    Fitting Condition:       1E-12

   => Auxiliary Basis Set <=

  Basis Set: 
    Number of shells: 150
    Number of basis function: 474
    Number of Cartesian functions: 474
    Spherical Harmonics?: false
    Max angular momentum: 3


  -Total Gradient:
     Atom            X                  Y                   Z
    ------   -----------------  -----------------  -----------------
       1        0.000067402384     0.000134787821     0.000066526146
       2        0.000758146222    -0.001118370521     0.001114922949
       3       -0.002403479940     0.001321523553    -0.003061222741
       4       -0.001516213463     0.002127263572     0.000843896165
       5        0.000509662644     0.000839887040    -0.000250859708
       6       -0.000401729526    -0.001584452889     0.000715042072
       7       -0.001070857337    -0.003953240547     0.000786087673
       8        0.001885637123     0.002002247202     0.000910159260
       9        0.000901598896     0.000605326472     0.000345328594
      10        0.001269832999    -0.000374971698    -0.001469880411


*** tstop() called on cx1-1-1-2.cx1.hpc.ic.ac.uk at Fri Sep  2 11:50:17 2016
Module time:
	user time   =       6.48 seconds =       0.11 minutes
	system time =       0.16 seconds =       0.00 minutes
	total time  =          2 seconds =       0.03 minutes
Total time:
	user time   =      24.00 seconds =       0.40 minutes
	system time =       0.52 seconds =       0.01 minutes
	total time  =          9 seconds =       0.15 minutes
CURRENT ENERGY: -228.9172302473

			-----------------------------------------
			 OPTKING 2.0: for geometry optimizations 
			  - R.A. King,  Bethel University        
			-----------------------------------------

	Previous internal coordinate definitions found.
	---Fragment 1 Geometry and Gradient---
	 H           4.2075745848       -1.1855986536       -0.3530751296
	 O           2.6290736254       -1.0121369134        0.4689748211
	 C           1.3421485392        1.0890270667       -0.5064955598
	 C          -1.3192013769        1.0936473904        0.5280872001
	 H           1.2808527761        1.0504863487       -2.5594748298
	 H           2.2709508929        2.8275730887        0.0801499870
	 O          -2.6465656236       -1.0060698756       -0.4171986856
	 H          -2.2010802148        2.8759846324       -0.0005118767
	 H          -1.2316849909        1.0198884840        2.5776015127
	 H          -4.3222302736       -0.5466584146       -0.8235024697
	             0.0000674024        0.0001347878        0.0000665261
	             0.0007581462       -0.0011183705        0.0011149229
	            -0.0024034799        0.0013215236       -0.0030612227
	            -0.0015162135        0.0021272636        0.0008438962
	             0.0005096626        0.0008398870       -0.0002508597
	            -0.0004017295       -0.0015844529        0.0007150421
	            -0.0010708573       -0.0039532405        0.0007860877
	             0.0018856371        0.0020022472        0.0009101593
	             0.0009015989        0.0006053265        0.0003453286
	             0.0012698330       -0.0003749717       -0.0014698804

	---Fragment 1 Intrafragment Coordinates---
	 - Coordinate -           - BOHR/RAD -       - ANG/DEG -
	 R(1,2)           =         1.788161	       0.946254
	 R(2,3)           =         2.650021	       1.402331
	 R(3,4)           =         2.855375	       1.510999
	 R(3,5)           =         2.054256	       1.087065
	 R(3,6)           =         2.056543	       1.088276
	 R(4,7)           =         2.657870	       1.406484
	 R(4,8)           =         2.057633	       1.088853
	 R(4,9)           =         2.052708	       1.086246
	 R(7,10)          =         1.784375	       0.944251
	 B(1,2,3)         =         1.913868	     109.656566
	 B(2,3,4)         =         1.897096	     108.695572
	 B(2,3,5)         =         1.947100	     111.560606
	 B(2,3,6)         =         1.924053	     110.240129
	 B(3,4,7)         =         1.912753	     109.592695
	 B(3,4,8)         =         1.883662	     107.925900
	 B(3,4,9)         =         1.898605	     108.782032
	 B(4,3,5)         =         1.911683	     109.531345
	 B(4,3,6)         =         1.892538	     108.434424
	 B(4,7,10)        =         1.924709	     110.277674
	 B(5,3,6)         =         1.890639	     108.325637
	 B(7,4,8)         =         1.959399	     112.265318
	 B(7,4,9)         =         1.926241	     110.365497
	 B(8,4,9)         =         1.881674	     107.812003
	 D(1,2,3,4)       =         2.988992	     171.256614
	 D(1,2,3,5)       =         0.879274	      50.378694
	 D(1,2,3,6)       =        -1.222083	     -70.020180
	 D(2,3,4,7)       =        -1.155036	     -66.178711
	 D(2,3,4,8)       =         2.989473	     171.284194
	 D(2,3,4,9)       =         0.952363	      54.566382
	*D(3,4,7,10)      =        -2.443462	    -140.000067
	 D(5,3,4,7)       =         0.976346	      55.940492
	 D(5,3,4,8)       =        -1.162330	     -66.596603
	 D(5,3,4,9)       =         3.083745	     176.685584
	 D(6,3,4,7)       =         3.036320	     173.968294
	 D(6,3,4,8)       =         0.897644	      51.431198
	 D(6,3,4,9)       =        -1.139466	     -65.286614
	 D(8,4,7,10)      =        -0.350504	     -20.082423
	 D(9,4,7,10)      =         1.749166	     100.219835

	Current energy   :      -228.9172302473

	Energy change for the previous step:
		Projected    :        -0.0043355477
		Actual       :        -0.0015952297

	Performing BFGS update.
	Previous computed or guess Hessian on step 1.
	Steps to be used in Hessian update: 1
	Taking RFO optimization step.
	Going to follow RFO solution 1.
	Using RFO vector 1.
	Norm of target step-size    0.25030
	Projected energy change by RFO approximation:         0.0002838750

	Back-transformation to cartesian coordinates...
	Successfully converged to displaced geometry.

	Back-transformation to cartesian coordinates to adjust frozen coordinates...
	Successfully converged to displaced geometry.

	--- Internal Coordinate Step in ANG or DEG, aJ/ANG or AJ/DEG ---
	 ---------------------------------------------------------------------------
	   Coordinate                Previous        Force       Change         New 
	   ----------                --------       ------       ------       ------
	    1 R(1,2)          =      0.946254    -0.000131    -0.000014     0.946240
	    2 R(2,3)          =      1.402331    -0.013311    -0.001782     1.400549
	    3 R(3,4)          =      1.510999     0.007057     0.001198     1.512197
	    4 R(3,5)          =      1.087065    -0.001810    -0.000276     1.086789
	    5 R(3,6)          =      1.088276     0.010850     0.001722     1.089998
	    6 R(4,7)          =      1.406484    -0.029355    -0.003321     1.403164
	    7 R(4,8)          =      1.088853    -0.005704    -0.000750     1.088103
	    8 R(4,9)          =      1.086246    -0.002978    -0.000506     1.085740
	    9 R(7,10)         =      0.944251     0.007862     0.000654     0.944904
	   10 B(1,2,3)        =    109.656566     0.000008     0.018203   109.674769
	   11 B(2,3,4)        =    108.695572     0.000032     0.170585   108.866158
	   12 B(2,3,5)        =    111.560606    -0.000022    -0.316749   111.243857
	   13 B(2,3,6)        =    110.240129     0.000026     0.464031   110.704160
	   14 B(3,4,7)        =    109.592695     0.000229     0.588781   110.181476
	   15 B(3,4,8)        =    107.925900     0.000073     0.232900   108.158800
	   16 B(3,4,9)        =    108.782032     0.000009     0.605574   109.387606
	   17 B(4,3,5)        =    109.531345    -0.000071    -0.539917   108.991428
	   18 B(4,3,6)        =    108.434424     0.000033     0.306580   108.741003
	   19 B(4,7,10)       =    110.277674    -0.000075    -0.240214   110.037460
	   20 B(5,3,6)        =    108.325637     0.000002    -0.081025   108.244612
	   21 B(7,4,8)        =    112.265318    -0.000259    -1.580826   110.684492
	   22 B(7,4,9)        =    110.365497    -0.000070     0.006455   110.371952
	   23 B(8,4,9)        =    107.812003     0.000023     0.182944   107.994948
	   24 D(1,2,3,4)      =    171.256614    -0.000013    -1.463672   169.792942
	   25 D(1,2,3,5)      =     50.378694     0.000005    -0.706209    49.672485
	   26 D(1,2,3,6)      =    -70.020180     0.000004    -0.706508   -70.726688
	   27 D(2,3,4,7)      =    -66.178711    -0.000010    -4.869656   -71.048367
	   28 D(2,3,4,8)      =    171.284194     0.000020    -3.437445   167.846748
	   29 D(2,3,4,9)      =     54.566382     0.000004    -4.112732    50.453649
	   30 *D(3,4,7,10)    =   -140.000067    -0.000000     0.000000  -140.000067
	   31 D(5,3,4,7)      =     55.940492    -0.000022    -5.484912    50.455580
	   32 D(5,3,4,8)      =    -66.596603     0.000008    -4.052701   -70.649304
	   33 D(5,3,4,9)      =    176.685584    -0.000008    -4.727988   171.957597
	   34 D(6,3,4,7)      =    173.968294    -0.000026    -5.711795   168.256499
	   35 D(6,3,4,8)      =     51.431198     0.000004    -4.279584    47.151614
	   36 D(6,3,4,9)      =    -65.286614    -0.000012    -4.954870   -70.241484
	   37 D(8,4,7,10)     =    -20.082423     0.000018    -0.334146   -20.416569
	   38 D(9,4,7,10)     =    100.219835    -0.000026    -1.134381    99.085454
	 ---------------------------------------------------------------------------

  ==> Convergence Check <==

  Measures of convergence in internal coordinates in au.
  Criteria marked as inactive (o), active & met (*), and active & unmet ( ).
  ---------------------------------------------------------------------------------------------
   Step     Total Energy     Delta E     MAX Force     RMS Force      MAX Disp      RMS Disp   
  ---------------------------------------------------------------------------------------------
    Convergence Criteria    1.00e-06 *    3.00e-04 *             o    1.20e-03 *             o
  ---------------------------------------------------------------------------------------------
      2    -228.91723025   -1.60e-03      3.56e-03      1.20e-03 o    9.97e-02      4.06e-02 o  ~
  ---------------------------------------------------------------------------------------------

	Writing optimization data to binary file.
	Structure for next step:
	Cartesian Geometry (in Angstrom)
	    H     2.2465020362  -0.6094038859  -0.1742372446
	    O     1.4217205989  -0.5076116188   0.2782502138
	    C     0.7137529569   0.5700311399  -0.2685632663
	    C    -0.6929283855   0.5629755493   0.2863581484
	    H     0.6668327308   0.5011550641  -1.3521526375
	    H     1.1886802110   1.5156050597  -0.0069730518
	    O    -1.4199912067  -0.5100165228  -0.2511696546
	    H    -1.1624872610   1.5110745977   0.0322129587
	    H    -0.6530072901   0.4879429721   1.3687663186
	    H    -2.3038683771  -0.2376025943  -0.4445504199
			--------------------------
			 OPTKING Finished Execution 
			--------------------------

    Structure for next step:
    Molecular point group: c1
    Full point group: C1

    Geometry (in Angstrom), charge = 0, multiplicity = 1:

    H            2.242309631820    -0.617669451235    -0.175288885036
    O            1.417528257592    -0.515877191906     0.277198538883
    C            0.709560669650     0.561765484480    -0.269614899492
    C           -0.697120565402     0.554709894419     0.285306472850
    H            0.662640447051     0.492889413976    -1.353204187983
    H            1.184487887464     1.507339332050    -0.008024705000
    O           -1.424183330997    -0.518282095768    -0.252221289133
    H           -1.166679405036     1.502808870432     0.031161302548
    H           -0.657199472995     0.479677322978     1.367714560334
    H           -2.308060433985    -0.245868188017    -0.445602039689

gradient() will perform analytic gradient computation.

*** tstart() called on cx1-1-1-2.cx1.hpc.ic.ac.uk
*** at Fri Sep  2 11:50:17 2016


         ---------------------------------------------------------
                                   SCF
            by Justin Turney, Rob Parrish, and Andy Simmonett
                              RHF Reference
                        4 Threads,   2000 MiB Core
         ---------------------------------------------------------

  ==> Geometry <==

    Molecular point group: c1
    Full point group: C1

    Geometry (in Angstrom), charge = 0, multiplicity = 1:

       Center              X                  Y                   Z               Mass       
    ------------   -----------------  -----------------  -----------------  -----------------
           H          2.242309631820    -0.617669451235    -0.175288885036     1.007825032070
           O          1.417528257592    -0.515877191906     0.277198538883    15.994914619560
           C          0.709560669650     0.561765484480    -0.269614899492    12.000000000000
           C         -0.697120565402     0.554709894419     0.285306472850    12.000000000000
           H          0.662640447051     0.492889413976    -1.353204187983     1.007825032070
           H          1.184487887464     1.507339332050    -0.008024705000     1.007825032070
           O         -1.424183330997    -0.518282095768    -0.252221289133    15.994914619560
           H         -1.166679405036     1.502808870432     0.031161302548     1.007825032070
           H         -0.657199472995     0.479677322978     1.367714560334     1.007825032070
           H         -2.308060433985    -0.245868188017    -0.445602039689     1.007825032070

  Running in c1 symmetry.

  Rotational constants: A =      0.57886  B =      0.17094  C =      0.14980 [cm^-1]
  Rotational constants: A =  17353.82847  B =   5124.71748  C =   4490.99137 [MHz]
  Nuclear repulsion =  133.181623092817745

  Charge       = 0
  Multiplicity = 1
  Electrons    = 34
  Nalpha       = 17
  Nbeta        = 17

  ==> Algorithm <==

  SCF Algorithm Type is DF.
  DIIS enabled.
  MOM disabled.
  Fractional occupation disabled.
  Guess Type is READ.
  Energy threshold   = 1.00e-08
  Density threshold  = 1.00e-08
  Integral threshold = 0.00e+00

  ==> Primary Basis <==

  Basis Set: 6-31G*
    Number of shells: 36
    Number of basis function: 72
    Number of Cartesian functions: 72
    Spherical Harmonics?: false
    Max angular momentum: 2

  ==> Pre-Iterations <==

   -------------------------------------------------------
    Irrep   Nso     Nmo     Nalpha   Nbeta   Ndocc  Nsocc
   -------------------------------------------------------
     A         72      72       0       0       0       0
   -------------------------------------------------------
    Total      72      72      17      17      17       0
   -------------------------------------------------------

 OEINTS: Overlap, kinetic, potential, dipole, and quadrupole integrals
         stored in file 35.

  ==> Integral Setup <==

  ==> DFJK: Density-Fitted J/K Matrices <==

    J tasked:                  Yes
    K tasked:                  Yes
    wK tasked:                  No
    OpenMP threads:              4
    Integrals threads:           4
    Memory (MB):              1430
    Algorithm:                Core
    Integral Cache:           NONE
    Schwarz Cutoff:          1E-12
    Fitting Condition:       1E-12

   => Auxiliary Basis Set <=

  Basis Set: 
    Number of shells: 150
    Number of basis function: 474
    Number of Cartesian functions: 474
    Spherical Harmonics?: false
    Max angular momentum: 3

  Minimum eigenvalue in the overlap matrix is 4.9245845073E-03.
  Using Symmetric Orthogonalization.
  SCF Guess: Reading in previously saved MOs, projecting if necessary.

  Using orbitals from previous SCF, no projection.
  Recomputing DOCC and SOCC from number of alpha and beta electrons from previous calculation.
              A 
    DOCC [    17 ]

  ==> Iterations <==

                           Total Energy        Delta E     RMS |[F,P]|

   @DF-RHF iter   0:  -228.91459217129653   -2.28915e+02   1.21521e-03 
   @DF-RHF iter   1:  -228.91720641014552   -2.61424e-03   2.00247e-04 
   @DF-RHF iter   2:  -228.91739914501954   -1.92735e-04   7.09674e-05 DIIS
   @DF-RHF iter   3:  -228.91742767534947   -2.85303e-05   2.25211e-05 DIIS
   @DF-RHF iter   4:  -228.91742940474512   -1.72940e-06   4.87680e-06 DIIS
   @DF-RHF iter   5:  -228.91742955203034   -1.47285e-07   1.80082e-06 DIIS
   @DF-RHF iter   6:  -228.91742956724045   -1.52101e-08   5.58669e-07 DIIS
   @DF-RHF iter   7:  -228.91742956934803   -2.10758e-09   1.24914e-07 DIIS
   @DF-RHF iter   8:  -228.91742956948121   -1.33184e-10   2.92214e-08 DIIS
   @DF-RHF iter   9:  -228.91742956948769   -6.48015e-12   9.78733e-09 DIIS

  ==> Post-Iterations <==

    Orbital Energies (a.u.)
    -----------------------

    Doubly Occupied:                                                      

       1A    -20.552138     2A    -20.551619     3A    -11.270539  
       4A    -11.269473     5A     -1.369919     6A     -1.350097  
       7A     -1.001666     8A     -0.832258     9A     -0.720072  
      10A     -0.694347    11A     -0.630985    12A     -0.595631  
      13A     -0.578042    14A     -0.516915    15A     -0.486320  
      16A     -0.442871    17A     -0.430751  

    Virtual:                                                              

      18A      0.215331    19A      0.244273    20A      0.281602  
      21A      0.312163    22A      0.329454    23A      0.336754  
      24A      0.407971    25A      0.415045    26A      0.421386  
      27A      0.753283    28A      0.814976    29A      0.817269  
      30A      0.836147    31A      0.887006    32A      0.928653  
      33A      1.064921    34A      1.111098    35A      1.124663  
      36A      1.140323    37A      1.154037    38A      1.200415  
      39A      1.201517    40A      1.250474    41A      1.269861  
      42A      1.307530    43A      1.319692    44A      1.440425  
      45A      1.507144    46A      1.547967    47A      1.709437  
      48A      1.717618    49A      1.844492    50A      1.864622  
      51A      2.010919    52A      2.013750    53A      2.093955  
      54A      2.169801    55A      2.268023    56A      2.373940  
      57A      2.433851    58A      2.437240    59A      2.494909  
      60A      2.631603    61A      2.715701    62A      2.749475  
      63A      2.792481    64A      2.893590    65A      2.952856  
      66A      3.043131    67A      3.208042    68A      3.245980  
      69A      4.160583    70A      4.191147    71A      4.644198  
      72A      4.859890  

    Final Occupation by Irrep:
              A 
    DOCC [    17 ]

  Energy converged.

  @DF-RHF Final Energy:  -228.91742956948769

   => Energetics <=

    Nuclear Repulsion Energy =            133.1816230928177447
    One-Electron Energy =                -577.6108190103361721
    Two-Electron Energy =                 215.5117663480306760
    DFT Exchange-Correlation Energy =       0.0000000000000000
    Empirical Dispersion Energy =           0.0000000000000000
    PCM Polarization Energy =               0.0000000000000000
    EFP Energy =                            0.0000000000000000
    Total Energy =                       -228.9174295694877515

    Alert: EFP and PCM quantities not currently incorporated into SCF psivars.

Properties will be evaluated at   0.000000,   0.000000,   0.000000 Bohr
  ==> Properties <==


Properties computed using the SCF density matrix

  Nuclear Dipole Moment: (a.u.)
     X:    -0.0399      Y:     2.9192      Z:    -0.5467

  Electronic Dipole Moment: (a.u.)
     X:    -0.0097      Y:    -1.9069      Z:     0.0902

  Dipole Moment: (a.u.)
     X:    -0.0496      Y:     1.0123      Z:    -0.4565     Total:     1.1115

  Dipole Moment: (Debye)
     X:    -0.1261      Y:     2.5730      Z:    -1.1603     Total:     2.8253


  Saving occupied orbitals to File 180.

*** tstop() called on cx1-1-1-2.cx1.hpc.ic.ac.uk at Fri Sep  2 11:50:20 2016
Module time:
	user time   =       5.60 seconds =       0.09 minutes
	system time =       0.09 seconds =       0.00 minutes
	total time  =          3 seconds =       0.05 minutes
Total time:
	user time   =      30.04 seconds =       0.50 minutes
	system time =       0.62 seconds =       0.01 minutes
	total time  =         12 seconds =       0.20 minutes

*** tstart() called on cx1-1-1-2.cx1.hpc.ic.ac.uk
*** at Fri Sep  2 11:50:20 2016


         ------------------------------------------------------------
                                   SCF GRAD                          
                          Rob Parrish, Justin Turney,                
                       Andy Simmonett, and Alex Sokolov              
         ------------------------------------------------------------

  ==> Geometry <==

    Molecular point group: c1
    Full point group: C1

    Geometry (in Angstrom), charge = 0, multiplicity = 1:

       Center              X                  Y                   Z               Mass       
    ------------   -----------------  -----------------  -----------------  -----------------
           H          2.242309631820    -0.617669451235    -0.175288885036     1.007825032070
           O          1.417528257592    -0.515877191906     0.277198538883    15.994914619560
           C          0.709560669650     0.561765484480    -0.269614899492    12.000000000000
           C         -0.697120565402     0.554709894419     0.285306472850    12.000000000000
           H          0.662640447051     0.492889413976    -1.353204187983     1.007825032070
           H          1.184487887464     1.507339332050    -0.008024705000     1.007825032070
           O         -1.424183330997    -0.518282095768    -0.252221289133    15.994914619560
           H         -1.166679405036     1.502808870432     0.031161302548     1.007825032070
           H         -0.657199472995     0.479677322978     1.367714560334     1.007825032070
           H         -2.308060433985    -0.245868188017    -0.445602039689     1.007825032070

  Nuclear repulsion =  133.181623092817745

  ==> Basis Set <==

  Basis Set: 6-31G*
    Number of shells: 36
    Number of basis function: 72
    Number of Cartesian functions: 72
    Spherical Harmonics?: false
    Max angular momentum: 2

  ==> DFJKGrad: Density-Fitted SCF Gradients <==

    Gradient:                    1
    J tasked:                  Yes
    K tasked:                  Yes
    wK tasked:                  No
    OpenMP threads:              4
    Integrals threads:           4
    Memory (MB):              1430
    Schwarz Cutoff:          0E+00
    Fitting Condition:       1E-12

   => Auxiliary Basis Set <=

  Basis Set: 
    Number of shells: 150
    Number of basis function: 474
    Number of Cartesian functions: 474
    Spherical Harmonics?: false
    Max angular momentum: 3


  -Total Gradient:
     Atom            X                  Y                   Z
    ------   -----------------  -----------------  -----------------
       1        0.000016724321     0.000209913001    -0.000026165543
       2       -0.000005324877    -0.000189352483     0.000067618757
       3       -0.000610121089     0.000531280940    -0.001450131044
       4        0.001248304135    -0.001581749776     0.001665941031
       5        0.000484210028    -0.000143856837    -0.000072178813
       6       -0.000172279919     0.000182452344    -0.000075529618
       7       -0.000681359255     0.000709099988     0.001565110086
       8       -0.000209680194    -0.000181958441    -0.000201385113
       9       -0.000410982693     0.000087519646     0.000119874738
      10        0.000340509545     0.000376651619    -0.001593154480


*** tstop() called on cx1-1-1-2.cx1.hpc.ic.ac.uk at Fri Sep  2 11:50:21 2016
Module time:
	user time   =       6.79 seconds =       0.11 minutes
	system time =       0.11 seconds =       0.00 minutes
	total time  =          1 seconds =       0.02 minutes
Total time:
	user time   =      36.85 seconds =       0.61 minutes
	system time =       0.73 seconds =       0.01 minutes
	total time  =         13 seconds =       0.22 minutes
CURRENT ENERGY: -228.9174295695

			-----------------------------------------
			 OPTKING 2.0: for geometry optimizations 
			  - R.A. King,  Bethel University        
			-----------------------------------------

	Previous internal coordinate definitions found.
	---Fragment 1 Geometry and Gradient---
	 H           4.2373511093       -1.1672261035       -0.3312479869
	 O           2.6787401925       -0.9748666109        0.5238293229
	 C           1.3408753403        1.0615829166       -0.5094983214
	 C          -1.3173669502        1.0482497837        0.5391510976
	 H           1.2522089695        0.9314260062       -2.5571853172
	 H           2.2383577150        2.8484585269       -0.0151644947
	 O          -2.6913164586       -0.9794112206       -0.4766291613
	 H          -2.2047045604        2.8398971952        0.0588863278
	 H          -1.2419270186        0.9064587726        2.5846059470
	 H          -4.3616021184       -0.4646235401       -0.8420658193
	             0.0000167243        0.0002099130       -0.0000261655
	            -0.0000053249       -0.0001893525        0.0000676188
	            -0.0006101211        0.0005312809       -0.0014501310
	             0.0012483041       -0.0015817498        0.0016659410
	             0.0004842100       -0.0001438568       -0.0000721788
	            -0.0001722799        0.0001824523       -0.0000755296
	            -0.0006813593        0.0007091000        0.0015651101
	            -0.0002096802       -0.0001819584       -0.0002013851
	            -0.0004109827        0.0000875196        0.0001198747
	             0.0003405095        0.0003766516       -0.0015931545

	---Fragment 1 Intrafragment Coordinates---
	 - Coordinate -           - BOHR/RAD -       - ANG/DEG -
	 R(1,2)           =         1.788135	       0.946240
	 R(2,3)           =         2.646654	       1.400549
	 R(3,4)           =         2.857638	       1.512197
	 R(3,5)           =         2.053734	       1.086789
	 R(3,6)           =         2.059797	       1.089998
	 R(4,7)           =         2.651595	       1.403164
	 R(4,8)           =         2.056216	       1.088103
	 R(4,9)           =         2.051751	       1.085740
	 R(7,10)          =         1.785610	       0.944904
	 B(1,2,3)         =         1.914186	     109.674769
	 B(2,3,4)         =         1.900073	     108.866158
	 B(2,3,5)         =         1.941572	     111.243857
	 B(2,3,6)         =         1.932152	     110.704160
	 B(3,4,7)         =         1.923030	     110.181476
	 B(3,4,8)         =         1.887727	     108.158800
	 B(3,4,9)         =         1.909174	     109.387606
	 B(4,3,5)         =         1.902259	     108.991428
	 B(4,3,6)         =         1.897889	     108.741003
	 B(4,7,10)        =         1.920516	     110.037460
	 B(5,3,6)         =         1.889225	     108.244612
	 B(7,4,8)         =         1.931809	     110.684492
	 B(7,4,9)         =         1.926354	     110.371952
	 B(8,4,9)         =         1.884867	     107.994948
	 D(1,2,3,4)       =         2.963446	     169.792942
	 D(1,2,3,5)       =         0.866948	      49.672485
	 D(1,2,3,6)       =        -1.234414	     -70.726688
	 D(2,3,4,7)       =        -1.240028	     -71.048367
	 D(2,3,4,8)       =         2.929478	     167.846748
	 D(2,3,4,9)       =         0.880582	      50.453649
	*D(3,4,7,10)      =        -2.443462	    -140.000067
	 D(5,3,4,7)       =         0.880616	      50.455580
	 D(5,3,4,8)       =        -1.233063	     -70.649304
	 D(5,3,4,9)       =         3.001226	     171.957597
	 D(6,3,4,7)       =         2.936630	     168.256499
	 D(6,3,4,8)       =         0.822951	      47.151614
	 D(6,3,4,9)       =        -1.225945	     -70.241484
	 D(8,4,7,10)      =        -0.356336	     -20.416569
	 D(9,4,7,10)      =         1.729367	      99.085454

	Current energy   :      -228.9174295695

	Energy change for the previous step:
		Projected    :         0.0002838750
		Actual       :        -0.0001993222

	Performing BFGS update.
	Previous computed or guess Hessian on step 1.
	Steps to be used in Hessian update: 2 1
	Taking RFO optimization step.
	Going to follow RFO solution 1.
	Using RFO vector 1.
	Norm of target step-size    0.05660
	Projected energy change by RFO approximation:        -0.0001320519

	Back-transformation to cartesian coordinates...
	Successfully converged to displaced geometry.

	Back-transformation to cartesian coordinates to adjust frozen coordinates...
	Successfully converged to displaced geometry.

	--- Internal Coordinate Step in ANG or DEG, aJ/ANG or AJ/DEG ---
	 ---------------------------------------------------------------------------
	   Coordinate                Previous        Force       Change         New 
	   ----------                --------       ------       ------       ------
	    1 R(1,2)          =      0.946240    -0.000037    -0.000004     0.946236
	    2 R(2,3)          =      1.400549    -0.000050    -0.000097     1.400452
	    3 R(3,4)          =      1.512197    -0.002530    -0.000384     1.511813
	    4 R(3,5)          =      1.086789    -0.000496    -0.000085     1.086705
	    5 R(3,6)          =      1.089998    -0.000536    -0.000005     1.089993
	    6 R(4,7)          =      1.403164     0.005297     0.000484     1.403648
	    7 R(4,8)          =      1.088103     0.000173     0.000009     1.088111
	    8 R(4,9)          =      1.085740    -0.000810    -0.000147     1.085592
	    9 R(7,10)         =      0.944904    -0.000957    -0.000070     0.944834
	   10 B(1,2,3)        =    109.674769     0.000024     0.090902   109.765672
	   11 B(2,3,4)        =    108.866158    -0.000008    -0.016199   108.849958
	   12 B(2,3,5)        =    111.243857     0.000024     0.058827   111.302684
	   13 B(2,3,6)        =    110.704160    -0.000008     0.029741   110.733901
	   14 B(3,4,7)        =    110.181476    -0.000019    -0.038536   110.142940
	   15 B(3,4,8)        =    108.158800    -0.000005     0.097876   108.256676
	   16 B(3,4,9)        =    109.387606    -0.000024    -0.257779   109.129827
	   17 B(4,3,5)        =    108.991428    -0.000045    -0.271597   108.719831
	   18 B(4,3,6)        =    108.741003     0.000028     0.152274   108.893277
	   19 B(4,7,10)       =    110.037460    -0.000015    -0.062935   109.974525
	   20 B(5,3,6)        =    108.244612     0.000007     0.044349   108.288961
	   21 B(7,4,8)        =    110.684492     0.000036     0.273365   110.957857
	   22 B(7,4,9)        =    110.371952     0.000006    -0.113536   110.258417
	   23 B(8,4,9)        =    107.994948     0.000006     0.036955   108.031903
	   24 D(1,2,3,4)      =    169.792942    -0.000007    -1.028459   168.764483
	   25 D(1,2,3,5)      =     49.672485     0.000004    -0.717955    48.954530
	   26 D(1,2,3,6)      =    -70.726688    -0.000001    -0.833337   -71.560025
	   27 D(2,3,4,7)      =    -71.048367     0.000006     1.217600   -69.830767
	   28 D(2,3,4,8)      =    167.846748    -0.000001     0.844093   168.690842
	   29 D(2,3,4,9)      =     50.453649     0.000001     0.886898    51.340547
	   30 *D(3,4,7,10)    =   -140.000067     0.000000    -0.000000  -140.000067
	   31 D(5,3,4,7)      =     50.455580     0.000005     1.114010    51.569590
	   32 D(5,3,4,8)      =    -70.649304    -0.000002     0.740503   -69.908802
	   33 D(5,3,4,9)      =    171.957597     0.000000     0.783307   172.740904
	   34 D(6,3,4,7)      =    168.256499     0.000005     1.099781   169.356280
	   35 D(6,3,4,8)      =     47.151614    -0.000002     0.726274    47.877889
	   36 D(6,3,4,9)      =    -70.241484     0.000000     0.769079   -69.472405
	   37 D(8,4,7,10)     =    -20.416569     0.000001     0.271983   -20.144585
	   38 D(9,4,7,10)     =     99.085454     0.000009     0.419948    99.505403
	 ---------------------------------------------------------------------------

  ==> Convergence Check <==

  Measures of convergence in internal coordinates in au.
  Criteria marked as inactive (o), active & met (*), and active & unmet ( ).
  ---------------------------------------------------------------------------------------------
   Step     Total Energy     Delta E     MAX Force     RMS Force      MAX Disp      RMS Disp   
  ---------------------------------------------------------------------------------------------
    Convergence Criteria    1.00e-06 *    3.00e-04 *             o    1.20e-03 *             o
  ---------------------------------------------------------------------------------------------
      3    -228.91742957   -1.99e-04      6.43e-04      2.54e-04 o    2.13e-02      9.18e-03 o  ~
  ---------------------------------------------------------------------------------------------

	Writing optimization data to binary file.
	Structure for next step:
	Cartesian Geometry (in Angstrom)
	    H     2.2322890250  -0.6300219834  -0.1846536998
	    O     1.4127219568  -0.5182089405   0.2748796518
	    C     0.7105974184   0.5661120513  -0.2659844999
	    C    -0.6979206327   0.5588572414   0.2831988177
	    H     0.6626518980   0.5043142378  -1.3498706290
	    H     1.1890963740   1.5080585996   0.0020837399
	    O    -1.4172827328  -0.5243119118  -0.2454688645
	    H    -1.1701833417   1.5039292464   0.0228280323
	    H    -0.6572799213   0.4905455992   1.3658773495
	    H    -2.3014063615  -0.2577805039  -0.4454650710
			--------------------------
			 OPTKING Finished Execution 
			--------------------------

    Structure for next step:
    Molecular point group: c1
    Full point group: C1

    Geometry (in Angstrom), charge = 0, multiplicity = 1:

    H            2.231740968891    -0.629506939497    -0.185994568460
    O            1.412173963258    -0.517693905066     0.273538748044
    C            0.710049478481     0.566627003864    -0.267325362363
    C           -0.698468465021     0.559372194532     0.281857913270
    H            0.662103961774     0.504829195082    -1.351211408690
    H            1.188548397575     1.508573480232     0.000742856957
    O           -1.417830510228    -0.523796875934    -0.246809728571
    H           -1.170731137994     1.504444127393     0.021487147753
    H           -0.657827756749     0.491060557576     1.364536362415
    H           -2.301954071470    -0.257265488368    -0.446805919771

gradient() will perform analytic gradient computation.

*** tstart() called on cx1-1-1-2.cx1.hpc.ic.ac.uk
*** at Fri Sep  2 11:50:22 2016


         ---------------------------------------------------------
                                   SCF
            by Justin Turney, Rob Parrish, and Andy Simmonett
                              RHF Reference
                        4 Threads,   2000 MiB Core
         ---------------------------------------------------------

  ==> Geometry <==

    Molecular point group: c1
    Full point group: C1

    Geometry (in Angstrom), charge = 0, multiplicity = 1:

       Center              X                  Y                   Z               Mass       
    ------------   -----------------  -----------------  -----------------  -----------------
           H          2.231740968891    -0.629506939497    -0.185994568460     1.007825032070
           O          1.412173963258    -0.517693905066     0.273538748044    15.994914619560
           C          0.710049478481     0.566627003864    -0.267325362363    12.000000000000
           C         -0.698468465021     0.559372194532     0.281857913270    12.000000000000
           H          0.662103961774     0.504829195082    -1.351211408690     1.007825032070
           H          1.188548397575     1.508573480232     0.000742856957     1.007825032070
           O         -1.417830510228    -0.523796875934    -0.246809728571    15.994914619560
           H         -1.170731137994     1.504444127393     0.021487147753     1.007825032070
           H         -0.657827756749     0.491060557576     1.364536362415     1.007825032070
           H         -2.301954071470    -0.257265488368    -0.446805919771     1.007825032070

  Running in c1 symmetry.

  Rotational constants: A =      0.57475  B =      0.17213  C =      0.15018 [cm^-1]
  Rotational constants: A =  17230.58411  B =   5160.36347  C =   4502.29327 [MHz]
  Nuclear repulsion =  133.244234639802443

  Charge       = 0
  Multiplicity = 1
  Electrons    = 34
  Nalpha       = 17
  Nbeta        = 17

  ==> Algorithm <==

  SCF Algorithm Type is DF.
  DIIS enabled.
  MOM disabled.
  Fractional occupation disabled.
  Guess Type is READ.
  Energy threshold   = 1.00e-08
  Density threshold  = 1.00e-08
  Integral threshold = 0.00e+00

  ==> Primary Basis <==

  Basis Set: 6-31G*
    Number of shells: 36
    Number of basis function: 72
    Number of Cartesian functions: 72
    Spherical Harmonics?: false
    Max angular momentum: 2

  ==> Pre-Iterations <==

   -------------------------------------------------------
    Irrep   Nso     Nmo     Nalpha   Nbeta   Ndocc  Nsocc
   -------------------------------------------------------
     A         72      72       0       0       0       0
   -------------------------------------------------------
    Total      72      72      17      17      17       0
   -------------------------------------------------------

 OEINTS: Overlap, kinetic, potential, dipole, and quadrupole integrals
         stored in file 35.

  ==> Integral Setup <==

  ==> DFJK: Density-Fitted J/K Matrices <==

    J tasked:                  Yes
    K tasked:                  Yes
    wK tasked:                  No
    OpenMP threads:              4
    Integrals threads:           4
    Memory (MB):              1430
    Algorithm:                Core
    Integral Cache:           NONE
    Schwarz Cutoff:          1E-12
    Fitting Condition:       1E-12

   => Auxiliary Basis Set <=

  Basis Set: 
    Number of shells: 150
    Number of basis function: 474
    Number of Cartesian functions: 474
    Spherical Harmonics?: false
    Max angular momentum: 3

  Minimum eigenvalue in the overlap matrix is 4.9288015398E-03.
  Using Symmetric Orthogonalization.
  SCF Guess: Reading in previously saved MOs, projecting if necessary.

  Using orbitals from previous SCF, no projection.
  Recomputing DOCC and SOCC from number of alpha and beta electrons from previous calculation.
              A 
    DOCC [    17 ]

  ==> Iterations <==

                           Total Energy        Delta E     RMS |[F,P]|

   @DF-RHF iter   0:  -228.91767257769098   -2.28918e+02   2.92816e-04 
   @DF-RHF iter   1:  -228.91743122781261    2.41350e-04   4.94275e-05 
   @DF-RHF iter   2:  -228.91744355450331   -1.23267e-05   1.83421e-05 DIIS
   @DF-RHF iter   3:  -228.91744582438744   -2.26988e-06   4.33709e-06 DIIS
   @DF-RHF iter   4:  -228.91744592303226   -9.86448e-08   1.75227e-06 DIIS
   @DF-RHF iter   5:  -228.91744594527202   -2.22398e-08   4.56161e-07 DIIS
   @DF-RHF iter   6:  -228.91744594660517   -1.33315e-09   1.60994e-07 DIIS
   @DF-RHF iter   7:  -228.91744594671647   -1.11299e-10   3.26930e-08 DIIS
   @DF-RHF iter   8:  -228.91744594672357   -7.10543e-12   7.71605e-09 DIIS

  ==> Post-Iterations <==

    Orbital Energies (a.u.)
    -----------------------

    Doubly Occupied:                                                      

       1A    -20.552057     2A    -20.551725     3A    -11.270467  
       4A    -11.269395     5A     -1.369911     6A     -1.349850  
       7A     -1.001851     8A     -0.832110     9A     -0.720265  
      10A     -0.694043    11A     -0.631179    12A     -0.595059  
      13A     -0.578077    14A     -0.516706    15A     -0.486821  
      16A     -0.442580    17A     -0.430745  

    Virtual:                                                              

      18A      0.215443    19A      0.244651    20A      0.281209  
      21A      0.312749    22A      0.328793    23A      0.336798  
      24A      0.409068    25A      0.415325    26A      0.420073  
      27A      0.752499    28A      0.815554    29A      0.817186  
      30A      0.835358    31A      0.886387    32A      0.929330  
      33A      1.064545    34A      1.111499    35A      1.124449  
      36A      1.140845    37A      1.153393    38A      1.201092  
      39A      1.201460    40A      1.251162    41A      1.271351  
      42A      1.307932    43A      1.319009    44A      1.441096  
      45A      1.505825    46A      1.549624    47A      1.708092  
      48A      1.717449    49A      1.843623    50A      1.861766  
      51A      2.010083    52A      2.012325    53A      2.097048  
      54A      2.171946    55A      2.268906    56A      2.373911  
      57A      2.433987    58A      2.438474    59A      2.492040  
      60A      2.633175    61A      2.715653    62A      2.747306  
      63A      2.792027    64A      2.893946    65A      2.952781  
      66A      3.043852    67A      3.205724    68A      3.246793  
      69A      4.163071    70A      4.186526    71A      4.644311  
      72A      4.859499  

    Final Occupation by Irrep:
              A 
    DOCC [    17 ]

  Energy converged.

  @DF-RHF Final Energy:  -228.91744594672357

   => Energetics <=

    Nuclear Repulsion Energy =            133.2442346398024426
    One-Electron Energy =                -577.7376766524113236
    Two-Electron Energy =                 215.5759960658852492
    DFT Exchange-Correlation Energy =       0.0000000000000000
    Empirical Dispersion Energy =           0.0000000000000000
    PCM Polarization Energy =               0.0000000000000000
    EFP Energy =                            0.0000000000000000
    Total Energy =                       -228.9174459467236034

    Alert: EFP and PCM quantities not currently incorporated into SCF psivars.

Properties will be evaluated at   0.000000,   0.000000,   0.000000 Bohr
  ==> Properties <==


Properties computed using the SCF density matrix

  Nuclear Dipole Moment: (a.u.)
     X:    -0.0451      Y:     2.9219      Z:    -0.5598

  Electronic Dipole Moment: (a.u.)
     X:    -0.0087      Y:    -1.9144      Z:     0.0919

  Dipole Moment: (a.u.)
     X:    -0.0538      Y:     1.0075      Z:    -0.4679     Total:     1.1121

  Dipole Moment: (Debye)
     X:    -0.1368      Y:     2.5608      Z:    -1.1892     Total:     2.8268


  Saving occupied orbitals to File 180.

*** tstop() called on cx1-1-1-2.cx1.hpc.ic.ac.uk at Fri Sep  2 11:50:24 2016
Module time:
	user time   =       6.32 seconds =       0.11 minutes
	system time =       0.15 seconds =       0.00 minutes
	total time  =          2 seconds =       0.03 minutes
Total time:
	user time   =      43.79 seconds =       0.73 minutes
	system time =       0.90 seconds =       0.01 minutes
	total time  =         16 seconds =       0.27 minutes

*** tstart() called on cx1-1-1-2.cx1.hpc.ic.ac.uk
*** at Fri Sep  2 11:50:24 2016


         ------------------------------------------------------------
                                   SCF GRAD                          
                          Rob Parrish, Justin Turney,                
                       Andy Simmonett, and Alex Sokolov              
         ------------------------------------------------------------

  ==> Geometry <==

    Molecular point group: c1
    Full point group: C1

    Geometry (in Angstrom), charge = 0, multiplicity = 1:

       Center              X                  Y                   Z               Mass       
    ------------   -----------------  -----------------  -----------------  -----------------
           H          2.231740968891    -0.629506939497    -0.185994568460     1.007825032070
           O          1.412173963258    -0.517693905066     0.273538748044    15.994914619560
           C          0.710049478481     0.566627003864    -0.267325362363    12.000000000000
           C         -0.698468465021     0.559372194532     0.281857913270    12.000000000000
           H          0.662103961774     0.504829195082    -1.351211408690     1.007825032070
           H          1.188548397575     1.508573480232     0.000742856957     1.007825032070
           O         -1.417830510228    -0.523796875934    -0.246809728571    15.994914619560
[...]
      24A      0.409322    25A      0.415167    26A      0.419986  
      27A      0.752673    28A      0.815602    29A      0.817339  
      30A      0.835019    31A      0.886927    32A      0.929119  
      33A      1.064487    34A      1.111772    35A      1.124370  
      36A      1.140840    37A      1.153331    38A      1.200885  
      39A      1.201665    40A      1.251301    41A      1.271659  
      42A      1.308236    43A      1.318680    44A      1.441598  
      45A      1.505537    46A      1.548995    47A      1.708089  
      48A      1.717934    49A      1.843582    50A      1.858784  
      51A      2.009673    52A      2.011581    53A      2.100024  
      54A      2.173360    55A      2.269197    56A      2.373881  
      57A      2.433945    58A      2.438233    59A      2.492782  
      60A      2.633011    61A      2.715651    62A      2.744741  
      63A      2.793166    64A      2.894353    65A      2.954432  
      66A      3.043295    67A      3.205413    68A      3.246870  
      69A      4.163500    70A      4.186287    71A      4.644373  
      72A      4.859458  

    Final Occupation by Irrep:
              A 
    DOCC [    17 ]

  Energy converged.

  @DF-RHF Final Energy:  -228.91744827699929

   => Energetics <=

    Nuclear Repulsion Energy =            133.2614256501051102
    One-Electron Energy =                -577.7730603598216703
    Two-Electron Energy =                 215.5941864327173221
    DFT Exchange-Correlation Energy =       0.0000000000000000
    Empirical Dispersion Energy =           0.0000000000000000
    PCM Polarization Energy =               0.0000000000000000
    EFP Energy =                            0.0000000000000000
    Total Energy =                       -228.9174482769992096

    Alert: EFP and PCM quantities not currently incorporated into SCF psivars.

Properties will be evaluated at   0.000000,   0.000000,   0.000000 Bohr
  ==> Properties <==


Properties computed using the SCF density matrix

  Nuclear Dipole Moment: (a.u.)
     X:    -0.0554      Y:     2.9119      Z:    -0.5713

  Electronic Dipole Moment: (a.u.)
     X:    -0.0044      Y:    -1.9136      Z:     0.0947

  Dipole Moment: (a.u.)
     X:    -0.0599      Y:     0.9984      Z:    -0.4766     Total:     1.1079

  Dipole Moment: (Debye)
     X:    -0.1521      Y:     2.5376      Z:    -1.2114     Total:     2.8160


  Saving occupied orbitals to File 180.

*** tstop() called on cx1-1-1-2.cx1.hpc.ic.ac.uk at Fri Sep  2 11:50:33 2016
Module time:
	user time   =       5.46 seconds =       0.09 minutes
	system time =       0.11 seconds =       0.00 minutes
	total time  =          2 seconds =       0.03 minutes
Total time:
	user time   =      69.47 seconds =       1.16 minutes
	system time =       1.39 seconds =       0.02 minutes
	total time  =         25 seconds =       0.42 minutes

*** tstart() called on cx1-1-1-2.cx1.hpc.ic.ac.uk
*** at Fri Sep  2 11:50:33 2016


         ------------------------------------------------------------
                                   SCF GRAD                          
                          Rob Parrish, Justin Turney,                
                       Andy Simmonett, and Alex Sokolov              
         ------------------------------------------------------------

  ==> Geometry <==

    Molecular point group: c1
    Full point group: C1

    Geometry (in Angstrom), charge = 0, multiplicity = 1:

       Center              X                  Y                   Z               Mass       
    ------------   -----------------  -----------------  -----------------  -----------------
           H          2.224134677148    -0.638307180975    -0.194061993840     1.007825032070
           O          1.411803131567    -0.515477915778     0.275218537677    15.994914619560
           C          0.709521842078     0.567621902502    -0.267267897698    12.000000000000
           C         -0.699334112944     0.559264215344     0.281416509965    12.000000000000
           H          0.663273206447     0.505984214728    -1.351365495528     1.007825032070
           H          1.187260868456     1.509542936430     0.001503533092     1.007825032070
           O         -1.415721117930    -0.526008888807    -0.247423417476    15.994914619560
           H         -1.173092796894     1.502749601122     0.018541610458     1.007825032070
           H         -0.660468005052     0.493134816968     1.364433493801     1.007825032070
           H         -2.300230208789    -0.261592962393    -0.448644978382     1.007825032070

  Nuclear repulsion =  133.261425650105110

  ==> Basis Set <==

  Basis Set: 6-31G*
    Number of shells: 36
    Number of basis function: 72
    Number of Cartesian functions: 72
    Spherical Harmonics?: false
    Max angular momentum: 2

  ==> DFJKGrad: Density-Fitted SCF Gradients <==

    Gradient:                    1
    J tasked:                  Yes
    K tasked:                  Yes
    wK tasked:                  No
    OpenMP threads:              4
    Integrals threads:           4
    Memory (MB):              1430
    Schwarz Cutoff:          0E+00
    Fitting Condition:       1E-12

   => Auxiliary Basis Set <=

  Basis Set: 
    Number of shells: 150
    Number of basis function: 474
    Number of Cartesian functions: 474
    Spherical Harmonics?: false
    Max angular momentum: 3


  -Total Gradient:
     Atom            X                  Y                   Z
    ------   -----------------  -----------------  -----------------
       1        0.000016976368    -0.000010344032     0.000010732474
       2       -0.000023824367     0.000023350689    -0.000033911009
       3       -0.000268395372     0.000565760652    -0.000760639692
       4        0.000513115434    -0.000680947533     0.000763354684
       5        0.000001848882     0.000001572059    -0.000021916140
       6       -0.000008407258    -0.000009364432    -0.000006527231
       7       -0.000689812434    -0.000304887416     0.001557614498
       8       -0.000006642674    -0.000016308505    -0.000002689088
       9       -0.000001965007     0.000010665766     0.000012009108
      10        0.000467106427     0.000420502752    -0.001518027604


*** tstop() called on cx1-1-1-2.cx1.hpc.ic.ac.uk at Fri Sep  2 11:50:35 2016
Module time:
	user time   =       6.70 seconds =       0.11 minutes
	system time =       0.11 seconds =       0.00 minutes
	total time  =          2 seconds =       0.03 minutes
Total time:
	user time   =      76.19 seconds =       1.27 minutes
	system time =       1.50 seconds =       0.03 minutes
	total time  =         27 seconds =       0.45 minutes
CURRENT ENERGY: -228.9174482770

			-----------------------------------------
			 OPTKING 2.0: for geometry optimizations 
			  - R.A. King,  Bethel University        
			-----------------------------------------

	Previous internal coordinate definitions found.
	---Fragment 1 Geometry and Gradient---
	 H           4.2030054225       -1.2062257607       -0.3667240212
	 O           2.6679212722       -0.9741120884        0.5200876629
	 C           1.3408019668        1.0726499428       -0.5050631308
	 C          -1.3215499488        1.0568562029        0.5318001331
	 H           1.2534047115        0.9561715934       -2.5537106920
	 H           2.2435978897        2.8526227357        0.0028412658
	 O          -2.6753251934       -0.9940127433       -0.4675624979
	 H          -2.2168241146        2.8397851924        0.0350385658
	 H          -1.2481036491        0.9318897507        2.5784056298
	 H          -4.3468051372       -0.4943390572       -0.8478161400
	             0.0000169764       -0.0000103440        0.0000107325
	            -0.0000238244        0.0000233507       -0.0000339110
	            -0.0002683954        0.0005657607       -0.0007606397
	             0.0005131154       -0.0006809475        0.0007633547
	             0.0000018489        0.0000015721       -0.0000219161
	            -0.0000084073       -0.0000093644       -0.0000065272
	            -0.0006898124       -0.0003048874        0.0015576145
	            -0.0000066427       -0.0000163085       -0.0000026891
	            -0.0000019650        0.0000106658        0.0000120091
	             0.0004671064        0.0004205028       -0.0015180276

	---Fragment 1 Intrafragment Coordinates---
	 - Coordinate -           - BOHR/RAD -       - ANG/DEG -
	 R(1,2)           =         1.787958	       0.946147
	 R(2,3)           =         2.646019	       1.400213
	 R(3,4)           =         2.857176	       1.511952
	 R(3,5)           =         2.053817	       1.086833
	 R(3,6)           =         2.059444	       1.089811
	 R(4,7)           =         2.652828	       1.403816
	 R(4,8)           =         2.055997	       1.087987
	 R(4,9)           =         2.051732	       1.085730
	 R(7,10)          =         1.785528	       0.944861
	 B(1,2,3)         =         1.916517	     109.808319
	 B(2,3,4)         =         1.899144	     108.812951
	 B(2,3,5)         =         1.943280	     111.341762
	 B(2,3,6)         =         1.931723	     110.679589
	 B(3,4,7)         =         1.920991	     110.064692
	 B(3,4,8)         =         1.889439	     108.256880
	 B(3,4,9)         =         1.906011	     109.206367
	 B(4,3,5)         =         1.898658	     108.785081
	 B(4,3,6)         =         1.900493	     108.890249
	 B(4,7,10)        =         1.919415	     109.974353
	 B(5,3,6)         =         1.889855	     108.280696
	 B(7,4,8)         =         1.936038	     110.926833
	 B(7,4,9)         =         1.925119	     110.301207
	 B(8,4,9)         =         1.885377	     108.024171
	 D(1,2,3,4)       =         2.926362	     167.668194
	 D(1,2,3,5)       =         0.833870	      47.777221
	 D(1,2,3,6)       =        -1.269139	     -72.716312
	 D(2,3,4,7)       =        -1.218569	     -69.818877
	 D(2,3,4,8)       =         2.945914	     168.788442
	 D(2,3,4,9)       =         0.897188	      51.405059
	*D(3,4,7,10)      =        -2.443462	    -140.000067
	 D(5,3,4,7)       =         0.901397	      51.646264
	 D(5,3,4,8)       =        -1.217305	     -69.746417
	 D(5,3,4,9)       =         3.017154	     172.870200
	 D(6,3,4,7)       =         2.957605	     169.458268
	 D(6,3,4,8)       =         0.838903	      48.065586
	 D(6,3,4,9)       =        -1.209824	     -69.317796
	 D(8,4,7,10)      =        -0.352821	     -20.215158
	 D(9,4,7,10)      =         1.735434	      99.433067

	Current energy   :      -228.9174482770

	Energy change for the previous step:
		Projected    :        -0.0000035887
		Actual       :        -0.0000003544
	Energy ratio indicates iffy step: Trust radius decreased to 7.812e-03.


	Performing BFGS update.
	Previous computed or guess Hessian on step 1.
	Steps to be used in Hessian update: 5 4
	Taking RFO optimization step.
	Going to follow RFO solution 1.
	Using RFO vector 1.
	Norm of target step-size    0.00483
	Projected energy change by RFO approximation:        -0.0000002492

	Back-transformation to cartesian coordinates...
	Successfully converged to displaced geometry.

	Back-transformation to cartesian coordinates to adjust frozen coordinates...
	Successfully converged to displaced geometry.

	--- Internal Coordinate Step in ANG or DEG, aJ/ANG or AJ/DEG ---
	 ---------------------------------------------------------------------------
	   Coordinate                Previous        Force       Change         New 
	   ----------                --------       ------       ------       ------
	    1 R(1,2)          =      0.946147    -0.000087    -0.000016     0.946131
	    2 R(2,3)          =      1.400213     0.000185     0.000024     1.400237
	    3 R(3,4)          =      1.511952    -0.000291    -0.000060     1.511893
	    4 R(3,5)          =      1.086833    -0.000179    -0.000036     1.086797
	    5 R(3,6)          =      1.089811     0.000110     0.000020     1.089831
	    6 R(4,7)          =      1.403816    -0.000077     0.000000     1.403817
	    7 R(4,8)          =      1.087987     0.000087     0.000015     1.088002
	    8 R(4,9)          =      1.085730    -0.000093    -0.000018     1.085712
	    9 R(7,10)         =      0.944861    -0.000030    -0.000002     0.944859
	   10 B(1,2,3)        =    109.808319    -0.000002    -0.009038   109.799280
	   11 B(2,3,4)        =    108.812951     0.000000     0.000871   108.813821
	   12 B(2,3,5)        =    111.341762     0.000000     0.002628   111.344390
	   13 B(2,3,6)        =    110.679589    -0.000001    -0.004469   110.675120
	   14 B(3,4,7)        =    110.064692     0.000002     0.007319   110.072011
	   15 B(3,4,8)        =    108.256880    -0.000001    -0.002724   108.254156
	   16 B(3,4,9)        =    109.206367    -0.000001    -0.003989   109.202378
	   17 B(4,3,5)        =    108.785081    -0.000000    -0.003048   108.782034
	   18 B(4,3,6)        =    108.890249     0.000000     0.003146   108.893396
	   19 B(4,7,10)       =    109.974353    -0.000001    -0.005082   109.969271
	   20 B(5,3,6)        =    108.280696     0.000000     0.000909   108.281605
	   21 B(7,4,8)        =    110.926833     0.000000     0.006329   110.933162
	   22 B(7,4,9)        =    110.301207    -0.000001    -0.006862   110.294345
	   23 B(8,4,9)        =    108.024171     0.000000    -0.000289   108.023882
	   24 D(1,2,3,4)      =    167.668194    -0.000000    -0.149606   167.518587
	   25 D(1,2,3,5)      =     47.777221    -0.000000    -0.148017    47.629204
	   26 D(1,2,3,6)      =    -72.716312    -0.000000    -0.147903   -72.864215
	   27 D(2,3,4,7)      =    -69.818877     0.000000    -0.029178   -69.848055
	   28 D(2,3,4,8)      =    168.788442    -0.000000    -0.039688   168.748754
	   29 D(2,3,4,9)      =     51.405059    -0.000000    -0.035607    51.369452
	   30 *D(3,4,7,10)    =   -140.000067    -0.000000    -0.000000  -140.000067
	   31 D(5,3,4,7)      =     51.646264     0.000000    -0.027299    51.618965
	   32 D(5,3,4,8)      =    -69.746417    -0.000000    -0.037809   -69.784226
	   33 D(5,3,4,9)      =    172.870200    -0.000000    -0.033728   172.836472
	   34 D(6,3,4,7)      =    169.458268     0.000000    -0.026157   169.432110
	   35 D(6,3,4,8)      =     48.065586    -0.000000    -0.036667    48.028919
	   36 D(6,3,4,9)      =    -69.317796     0.000000    -0.032586   -69.350383
	   37 D(8,4,7,10)     =    -20.215158     0.000000     0.005408   -20.209750
	   38 D(9,4,7,10)     =     99.433067     0.000000     0.004654    99.437721
	 ---------------------------------------------------------------------------

  ==> Convergence Check <==

  Measures of convergence in internal coordinates in au.
  Criteria marked as inactive (o), active & met (*), and active & unmet ( ).
  ---------------------------------------------------------------------------------------------
   Step     Total Energy     Delta E     MAX Force     RMS Force      MAX Disp      RMS Disp   
  ---------------------------------------------------------------------------------------------
    Convergence Criteria    1.00e-06 *    3.00e-04 *             o    1.20e-03 *             o
  ---------------------------------------------------------------------------------------------
      6    -228.91744828   -3.54e-07 *    3.53e-05 *    1.27e-05 o    2.61e-03      7.84e-04 o  ~
  ---------------------------------------------------------------------------------------------


  **** Optimization is complete! (in 6 steps) ****

  ==> Optimization Summary <==

  Measures of convergence in internal coordinates in au.
  --------------------------------------------------------------------------------------------------------------- ~
   Step         Total Energy             Delta E       MAX Force       RMS Force        MAX Disp        RMS Disp  ~
  --------------------------------------------------------------------------------------------------------------- ~
      1    -228.915635017540   -228.915635017540      0.00988019      0.00365287      0.16313161      0.06089117  ~
      2    -228.917230247251     -0.001595229712      0.00356311      0.00119966      0.09968962      0.04060363  ~
      3    -228.917429569488     -0.000199322236      0.00064291      0.00025376      0.02125114      0.00918242  ~
      4    -228.917445946724     -0.000016377236      0.00028066      0.00010139      0.01176689      0.00334994  ~
      5    -228.917447922632     -0.000001975908      0.00009907      0.00003203      0.00878597      0.00243154  ~
      6    -228.917448276999     -0.000000354368      0.00003534      0.00001275      0.00261112      0.00078418  ~
  --------------------------------------------------------------------------------------------------------------- ~

	Writing optimization data to binary file.
	Final energy is   -228.9174482769993
	Final (previous) structure:
	Cartesian Geometry (in Angstrom)
	    H     2.2241348470  -0.6383072297  -0.1940620087
	    O     1.4118032394  -0.5154779551   0.2752185587
	    C     0.7095218963   0.5676219458  -0.2672679181
	    C    -0.6993341663   0.5592642581   0.2814165315
	    H     0.6632732571   0.5059842534  -1.3513655987
	    H     1.1872609591   1.5095430517   0.0015035332
	    O    -1.4157212260  -0.5260089290  -0.2474234364
	    H    -1.1730928865   1.5027497159   0.0185416119
	    H    -0.6604680555   0.4931348546   1.3644335980
	    H    -2.3002303844  -0.2615929824  -0.4486450126
	Saving final (previous) structure.
			--------------------------
			 OPTKING Finished Execution 
			--------------------------

    Final optimized geometry and variables:
    Molecular point group: c1
    Full point group: C1

    Geometry (in Angstrom), charge = 0, multiplicity = 1:

    H            2.224134677148    -0.638307180975    -0.194061993840
    O            1.411803131567    -0.515477915778     0.275218537677
    C            0.709521842078     0.567621902502    -0.267267897698
    C           -0.699334112944     0.559264215344     0.281416509965
    H            0.663273206447     0.505984214728    -1.351365495528
    H            1.187260868456     1.509542936430     0.001503533092
    O           -1.415721117930    -0.526008888807    -0.247423417476
    H           -1.173092796894     1.502749601122     0.018541610458
    H           -0.660468005052     0.493134816968     1.364433493801
    H           -2.300230208789    -0.261592962393    -0.448644978382

	Cleaning optimization helper files.


Properties will be evaluated at   0.000000,   0.000000,   0.000000 Bohr

Properties computed using the  density matrix

  Nuclear Dipole Moment: (a.u.)
     X:    -0.0554      Y:     2.9119      Z:    -0.5713

  Electronic Dipole Moment: (a.u.)
     X:    -0.0044      Y:    -1.9136      Z:     0.0947

  Dipole Moment: (a.u.)
     X:    -0.0599      Y:     0.9984      Z:    -0.4766     Total:     1.1079

  Dipole Moment: (Debye)
     X:    -0.1521      Y:     2.5376      Z:    -1.2114     Total:     2.8160

  Quadrupole Moment: (Debye Ang)
    XX:   -16.5883     YY:   -26.1778     ZZ:   -25.0582
    XY:    -1.9036     XZ:    -1.7356     YZ:     0.5597

  Traceless Quadrupole Moment: (Debye Ang)
    XX:     6.0198     YY:    -3.5697     ZZ:    -2.4501
    XY:    -1.9036     XZ:    -1.7356     YZ:     0.5597

  Mulliken Charges: (a.u.)
   Center  Symbol    Alpha    Beta     Spin     Total
       1     H     0.27981  0.27981  0.00000  0.44038
       2     O     4.36541  4.36541  0.00000 -0.73083
       3     C     2.99669  2.99669  0.00000  0.00662
       4     C     3.00148  3.00148  0.00000 -0.00296
       5     H     0.42642  0.42642  0.00000  0.14717
       6     H     0.43339  0.43339  0.00000  0.13321
       7     O     4.36667  4.36667  0.00000 -0.73334
       8     H     0.43308  0.43308  0.00000  0.13384
       9     H     0.41708  0.41708  0.00000  0.16585
      10     H     0.27997  0.27997  0.00000  0.44006

   Total alpha = 17.00000, Total beta = 17.00000, Total charge = -0.00000


*** PSI4 exiting successfully. Buy a developer a beer!
