    -----------------------------------------------------------------------
          Psi4: An Open-Source Ab Initio Electronic Structure Package
                              Psi4 (no tag) Driver

                          Git: Rev {detached?}  

    J. M. Turney, A. C. Simmonett, R. M. Parrish, E. G. Hohenstein,
    F. A. Evangelista, J. T. Fermann, B. J. Mintz, L. A. Burns, J. J. Wilke,
    M. L. Abrams, N. J. Russ, M. L. Leininger, C. L. Janssen, E. T. Seidl,
    W. D. Allen, H. F. Schaefer, R. A. King, E. F. Valeev, C. D. Sherrill,
    and T. D. Crawford, WIREs Comput. Mol. Sci. 2, 556-565 (2012)
    (doi: 10.1002/wcms.93)

                         Additional Contributions by
    A. E. DePrince, M. Saitow, U. Bozkaya, A. Yu. Sokolov
    -----------------------------------------------------------------------


    Psi4 started on: Fri Sep  2 13:20:35 2016

    Process ID:  32066
    PSI4DATADIR: /export131/home/mjharvey/miniconda3/share
    Memory level set to 256.000 MB

  ==> Input File <==

--------------------------------------------------------------------------
set {
	reference rhf
	basis 6-31G*
}


set_num_threads( 4 )
memory 2 gb

molecule MOL {
0 1

H	 2.410427	 -0.185281	 1.312216
C	 1.951159	 -0.223429	 0.317018
C	 0.692068	 0.589600	 0.160137
O	 2.447745	 -0.873590	 -0.544854
C	 -0.558097	 -0.297372	 0.091132
H	 0.791645	 1.202255	 -0.728243
H	 0.616171	 1.253469	 1.020572
C	 -1.850991	 0.512573	 -0.019058
H	 -0.476753	 -0.965681	 -0.762987
H	 -0.604799	 -0.930658	 0.975228
C	 -3.096943	 -0.368295	 -0.099594
H	 -1.800724	 1.150330	 -0.898172
H	 -1.931651	 1.177355	 0.838044
H	 -3.060452	 -1.020287	 -0.967456
H	 -3.996858	 0.233488	 -0.175704
H	 -3.191959	 -0.995686	 0.782074

	symmetry c1
}
set optking {
	frozen_dihedral = ("
		4 2 3 6
	")
}

ee = optimize('scf')
oeprop('DIPOLE', 'QUADRUPOLE', 'MULLIKEN_CHARGES')
f=open( 'psi4out.xyz', 'w' )
f.write( "16  " )
f.write( str(ee) + "\n" )
f.write( MOL.save_string_xyz() )
f.close()
--------------------------------------------------------------------------

  Memory set to   2.000 GiB by Python script.
gradient() will perform analytic gradient computation.

*** tstart() called on cx1-5-5-2.cx1.hpc.ic.ac.uk
*** at Fri Sep  2 13:20:36 2016


         ---------------------------------------------------------
                                   SCF
            by Justin Turney, Rob Parrish, and Andy Simmonett
                              RHF Reference
                        4 Threads,   2000 MiB Core
         ---------------------------------------------------------

  ==> Geometry <==

    Molecular point group: c1
    Full point group: C1

    Geometry (in Angstrom), charge = 0, multiplicity = 1:

       Center              X                  Y                   Z               Mass       
    ------------   -----------------  -----------------  -----------------  -----------------
           H          2.486352183382    -0.063412867389     1.334438731275     1.007825032070
           C          2.027084183382    -0.101560867389     0.339240731275    12.000000000000
           C          0.767993183382     0.711468132611     0.182359731275    12.000000000000
           O          2.523670183382    -0.751721867389    -0.522631268725    15.994914619560
           C         -0.482171816618    -0.175503867389     0.113354731275    12.000000000000
           H          0.867570183382     1.324123132611    -0.706020268725     1.007825032070
           H          0.692096183382     1.375337132611     1.042794731275     1.007825032070
           C         -1.775065816618     0.634441132611     0.003164731275    12.000000000000
           H         -0.400827816618    -0.843812867389    -0.740764268725     1.007825032070
           H         -0.528873816618    -0.808789867389     0.997450731275     1.007825032070
           C         -3.021017816618    -0.246426867389    -0.077371268725    12.000000000000
           H         -1.724798816618     1.272198132611    -0.875949268725     1.007825032070
           H         -1.855725816618     1.299223132611     0.860266731275     1.007825032070
           H         -2.984526816618    -0.898418867389    -0.945233268725     1.007825032070
           H         -3.920932816618     0.355356132611    -0.153481268725     1.007825032070
           H         -3.116033816618    -0.873817867389     0.804296731275     1.007825032070

  Running in c1 symmetry.

  Rotational constants: A =      0.38976  B =      0.04547  C =      0.04307 [cm^-1]
  Rotational constants: A =  11684.81003  B =   1363.18545  C =   1291.17372 [MHz]
  Nuclear repulsion =  230.364440484378378

  Charge       = 0
  Multiplicity = 1
  Electrons    = 48
  Nalpha       = 24
  Nbeta        = 24

  ==> Algorithm <==

  SCF Algorithm Type is DF.
  DIIS enabled.
  MOM disabled.
  Fractional occupation disabled.
  Guess Type is CORE.
  Energy threshold   = 1.00e-08
  Density threshold  = 1.00e-08
  Integral threshold = 0.00e+00

  ==> Primary Basis <==

  Basis Set: 6-31G*
    Number of shells: 56
    Number of basis function: 110
    Number of Cartesian functions: 110
    Spherical Harmonics?: false
    Max angular momentum: 2

  ==> Pre-Iterations <==

   -------------------------------------------------------
    Irrep   Nso     Nmo     Nalpha   Nbeta   Ndocc  Nsocc
   -------------------------------------------------------
     A        110     110       0       0       0       0
   -------------------------------------------------------
    Total     110     110      24      24      24       0
   -------------------------------------------------------

 OEINTS: Overlap, kinetic, potential, dipole, and quadrupole integrals
         stored in file 35.

  ==> Integral Setup <==

  ==> DFJK: Density-Fitted J/K Matrices <==

    J tasked:                  Yes
    K tasked:                  Yes
    wK tasked:                  No
    OpenMP threads:              4
    Integrals threads:           4
    Memory (MB):              1430
    Algorithm:                Core
    Integral Cache:           NONE
    Schwarz Cutoff:          1E-12
    Fitting Condition:       1E-12

   => Auxiliary Basis Set <=

  Basis Set: 
    Number of shells: 234
    Number of basis function: 736
    Number of Cartesian functions: 736
    Spherical Harmonics?: false
    Max angular momentum: 3

  Minimum eigenvalue in the overlap matrix is 3.6026868303E-03.
  Using Symmetric Orthogonalization.
  SCF Guess: Core (One-Electron) Hamiltonian.

  ==> Iterations <==

                           Total Energy        Delta E     RMS |[F,P]|

   @DF-RHF iter   1:  -203.80234582990684   -2.03802e+02   7.31941e-02 
   @DF-RHF iter   2:  -111.03061312418598    9.27717e+01   9.21402e-02 DIIS
   @DF-RHF iter   3:  -244.04763747769246   -1.33017e+02   3.42304e-02 DIIS
   @DF-RHF iter   4:  -162.60773083646851    8.14399e+01   8.78193e-02 DIIS
   @DF-RHF iter   5:  -193.31995974232782   -3.07122e+01   7.34025e-02 DIIS
   @DF-RHF iter   6:  -201.20918781577657   -7.88923e+00   6.44652e-02 DIIS
   @DF-RHF iter   7:  -210.99327377782211   -9.78409e+00   6.72964e-02 DIIS
   @DF-RHF iter   8:  -212.25696883433594   -1.26370e+00   6.62696e-02 DIIS
   @DF-RHF iter   9:  -231.22408446931738   -1.89671e+01   5.15396e-02 DIIS
   @DF-RHF iter  10:  -244.76167887588932   -1.35376e+01   4.10715e-02 DIIS
   @DF-RHF iter  11:  -251.65380209414147   -6.89212e+00   4.19128e-02 DIIS
   @DF-RHF iter  12:  -246.87557939889476    4.77822e+00   3.98018e-02 DIIS
   @DF-RHF iter  13:  -247.54443772053847   -6.68858e-01   4.14211e-02 DIIS
   @DF-RHF iter  14:  -256.74040925608631   -9.19597e+00   3.01431e-02 DIIS
   @DF-RHF iter  15:  -269.25778700037290   -1.25174e+01   1.10381e-02 DIIS
   @DF-RHF iter  16:  -269.97322223884953   -7.15435e-01   2.52574e-03 DIIS
   @DF-RHF iter  17:  -270.01028034111675   -3.70581e-02   9.61667e-04 DIIS
   @DF-RHF iter  18:  -270.01673574519828   -6.45540e-03   4.38871e-04 DIIS
   @DF-RHF iter  19:  -270.01799076947998   -1.25502e-03   1.08753e-04 DIIS
   @DF-RHF iter  20:  -270.01811271322538   -1.21944e-04   3.83145e-05 DIIS
   @DF-RHF iter  21:  -270.01812840288403   -1.56897e-05   1.51748e-05 DIIS
   @DF-RHF iter  22:  -270.01813097969307   -2.57681e-06   3.80958e-06 DIIS
   @DF-RHF iter  23:  -270.01813113382127   -1.54128e-07   8.69601e-07 DIIS
   @DF-RHF iter  24:  -270.01813114323318   -9.41191e-09   2.78302e-07 DIIS
   @DF-RHF iter  25:  -270.01813114465801   -1.42484e-09   1.19888e-07 DIIS
   @DF-RHF iter  26:  -270.01813114511378   -4.55771e-10   5.47322e-08 DIIS
   @DF-RHF iter  27:  -270.01813114524521   -1.31422e-10   2.23146e-08 DIIS
   @DF-RHF iter  28:  -270.01813114526510   -1.98952e-11   7.37013e-09 DIIS

  ==> Post-Iterations <==

    Orbital Energies (a.u.)
    -----------------------

    Doubly Occupied:                                                      

       1A    -20.562713     2A    -11.326704     3A    -11.235243  
       4A    -11.233352     5A    -11.226665     6A    -11.216269  
       7A     -1.402750     8A     -1.093227     9A     -1.017176  
      10A     -0.907458    11A     -0.813240    12A     -0.783356  
      13A     -0.681066    14A     -0.646975    15A     -0.628135  
      16A     -0.602662    17A     -0.577961    18A     -0.550182  
      19A     -0.525646    20A     -0.509238    21A     -0.484570  
      22A     -0.478964    23A     -0.475687    24A     -0.407948  

    Virtual:                                                              

      25A      0.155453    26A      0.227914    27A      0.252370  
      28A      0.266496    29A      0.285428    30A      0.289669  
      31A      0.319319    32A      0.330701    33A      0.335927  
      34A      0.343429    35A      0.351398    36A      0.390123  
      37A      0.399425    38A      0.441369    39A      0.458500  
      40A      0.500711    41A      0.692684    42A      0.727832  
      43A      0.737584    44A      0.743400    45A      0.764464  
      46A      0.806680    47A      0.844178    48A      0.864819  
      49A      0.914731    50A      0.961430    51A      0.965680  
      52A      0.991622    53A      1.035377    54A      1.059810  
      55A      1.086068    56A      1.107357    57A      1.115606  
      58A      1.124500    59A      1.134588    60A      1.172994  
      61A      1.183390    62A      1.200503    63A      1.205468  
      64A      1.208860    65A      1.225686    66A      1.259164  
      67A      1.303515    68A      1.352285    69A      1.399010  
      70A      1.433176    71A      1.597839    72A      1.646888  
      73A      1.675737    74A      1.742272    75A      1.797820  
      76A      1.843178    77A      1.861323    78A      1.970139  
      79A      2.006895    80A      2.095228    81A      2.130625  
      82A      2.163428    83A      2.185975    84A      2.220551  
      85A      2.247307    86A      2.276867    87A      2.308014  
      88A      2.359554    89A      2.369607    90A      2.453556  
      91A      2.580977    92A      2.589634    93A      2.614383  
      94A      2.693199    95A      2.716948    96A      2.754715  
      97A      2.764069    98A      2.878100    99A      2.913045  
     100A      2.979038   101A      3.047342   102A      3.150351  
     103A      3.255251   104A      3.363840   105A      4.294196  
     106A      4.518130   107A      4.611443   108A      4.716244  
     109A      4.834733   110A      4.967405  

    Final Occupation by Irrep:
              A 
    DOCC [    24 ]

  Energy converged.

  @DF-RHF Final Energy:  -270.01813114526510

   => Energetics <=

    Nuclear Repulsion Energy =            230.3644404843783775
    One-Electron Energy =                -821.9907710484053496
    Two-Electron Energy =                 321.6081994187618989
    DFT Exchange-Correlation Energy =       0.0000000000000000
    Empirical Dispersion Energy =           0.0000000000000000
    PCM Polarization Energy =               0.0000000000000000
    EFP Energy =                            0.0000000000000000
    Total Energy =                       -270.0181311452650448

    Alert: EFP and PCM quantities not currently incorporated into SCF psivars.

Properties will be evaluated at   0.000000,   0.000000,   0.000000 Bohr
  ==> Properties <==


Properties computed using the SCF density matrix

  Nuclear Dipole Moment: (a.u.)
     X:    -9.8179      Y:     2.0007      Z:     1.5141

  Electronic Dipole Moment: (a.u.)
     X:     9.0964      Y:    -1.3646      Z:    -0.8437

  Dipole Moment: (a.u.)
     X:    -0.7215      Y:     0.6361      Z:     0.6704     Total:     1.1724

  Dipole Moment: (Debye)
     X:    -1.8338      Y:     1.6168      Z:     1.7040     Total:     2.9800


  Saving occupied orbitals to File 180.

*** tstop() called on cx1-5-5-2.cx1.hpc.ic.ac.uk at Fri Sep  2 13:20:40 2016
Module time:
	user time   =      13.32 seconds =       0.22 minutes
	system time =       0.16 seconds =       0.00 minutes
	total time  =          4 seconds =       0.07 minutes
Total time:
	user time   =      13.32 seconds =       0.22 minutes
	system time =       0.16 seconds =       0.00 minutes
	total time  =          4 seconds =       0.07 minutes

*** tstart() called on cx1-5-5-2.cx1.hpc.ic.ac.uk
*** at Fri Sep  2 13:20:40 2016


         ------------------------------------------------------------
                                   SCF GRAD                          
                          Rob Parrish, Justin Turney,                
                       Andy Simmonett, and Alex Sokolov              
         ------------------------------------------------------------

  ==> Geometry <==

    Molecular point group: c1
    Full point group: C1

    Geometry (in Angstrom), charge = 0, multiplicity = 1:

       Center              X                  Y                   Z               Mass       
    ------------   -----------------  -----------------  -----------------  -----------------
           H          2.486352183382    -0.063412867389     1.334438731275     1.007825032070
           C          2.027084183382    -0.101560867389     0.339240731275    12.000000000000
           C          0.767993183382     0.711468132611     0.182359731275    12.000000000000
           O          2.523670183382    -0.751721867389    -0.522631268725    15.994914619560
           C         -0.482171816618    -0.175503867389     0.113354731275    12.000000000000
           H          0.867570183382     1.324123132611    -0.706020268725     1.007825032070
           H          0.692096183382     1.375337132611     1.042794731275     1.007825032070
           C         -1.775065816618     0.634441132611     0.003164731275    12.000000000000
           H         -0.400827816618    -0.843812867389    -0.740764268725     1.007825032070
           H         -0.528873816618    -0.808789867389     0.997450731275     1.007825032070
           C         -3.021017816618    -0.246426867389    -0.077371268725    12.000000000000
           H         -1.724798816618     1.272198132611    -0.875949268725     1.007825032070
           H         -1.855725816618     1.299223132611     0.860266731275     1.007825032070
           H         -2.984526816618    -0.898418867389    -0.945233268725     1.007825032070
           H         -3.920932816618     0.355356132611    -0.153481268725     1.007825032070
           H         -3.116033816618    -0.873817867389     0.804296731275     1.007825032070

  Nuclear repulsion =  230.364440484378321

  ==> Basis Set <==

  Basis Set: 6-31G*
    Number of shells: 56
    Number of basis function: 110
    Number of Cartesian functions: 110
    Spherical Harmonics?: false
    Max angular momentum: 2

  ==> DFJKGrad: Density-Fitted SCF Gradients <==

    Gradient:                    1
    J tasked:                  Yes
    K tasked:                  Yes
    wK tasked:                  No
    OpenMP threads:              4
    Integrals threads:           4
    Memory (MB):              1430
    Schwarz Cutoff:          0E+00
    Fitting Condition:       1E-12

   => Auxiliary Basis Set <=

  Basis Set: 
    Number of shells: 234
    Number of basis function: 736
    Number of Cartesian functions: 736
    Spherical Harmonics?: false
    Max angular momentum: 3


  -Total Gradient:
     Atom            X                  Y                   Z
    ------   -----------------  -----------------  -----------------
       1       -0.000495664624     0.002135623665     0.000595072623
       2       -0.004191021654     0.000084504614    -0.002619334847
       3        0.000464186123    -0.002076053798    -0.006203110132
       4        0.001784082279    -0.000169700115     0.001169909043
       5        0.001806441144     0.001868112257     0.003799546925
       6        0.001826687468     0.000601143260     0.002069560198
       7        0.000839319950    -0.000650990074     0.002875166082
       8       -0.000457254582    -0.000522299036    -0.000760262146
       9       -0.001378390460    -0.000682027818    -0.001047903272
      10       -0.000344456218    -0.000381535976    -0.000041086486
      11       -0.000146838846     0.000138360132     0.000022528954
      12       -0.000019970814    -0.000076648108     0.000195754738
      13        0.000350092628    -0.000226364034     0.000015968222
      14       -0.000036601766     0.000008730611    -0.000084765979
      15       -0.000001060415    -0.000066844336    -0.000025092442
      16        0.000000449790     0.000015988755     0.000038048519


*** tstop() called on cx1-5-5-2.cx1.hpc.ic.ac.uk at Fri Sep  2 13:20:45 2016
Module time:
	user time   =      16.14 seconds =       0.27 minutes
	system time =       0.19 seconds =       0.00 minutes
	total time  =          5 seconds =       0.08 minutes
Total time:
	user time   =      29.48 seconds =       0.49 minutes
	system time =       0.35 seconds =       0.01 minutes
	total time  =          9 seconds =       0.15 minutes
CURRENT ENERGY: -270.0181311453

			-----------------------------------------
			 OPTKING 2.0: for geometry optimizations 
			  - R.A. King,  Bethel University        
			-----------------------------------------

	Internal coordinates to be generated automatically.
	Detected frag with atoms:  1 2 3 4 5 6 7 8 9 10 11 12 13 14 15 16
	---Fragment 1 Bond Connectivity---
	 1 : 2
	 2 : 1 3 4
	 3 : 2 5 6 7
	 4 : 2
	 5 : 3 8 9 10
	 6 : 3
	 7 : 3
	 8 : 5 11 12 13
	 9 : 5
	 10 : 5
	 11 : 8 14 15 16
	 12 : 8
	 13 : 8
	 14 : 11
	 15 : 11
	 16 : 11

	Assuming in current code that numbering for constraints corresponds to unified fragment.
	Frozen dihedral atom list: 
	     4     2     3     6
	---Fragment 1 Geometry and Gradient---
	 H           4.6985246965       -0.1198329527        2.5217237432
	 C           3.8306339549       -0.1919222252        0.6410720752
	 C           1.4512967885        1.3444799229        0.3446099498
	 O           4.7690454963       -1.4205484575       -0.9876299664
	 C          -0.9111726824       -0.3316542446        0.2142093980
	 H           1.6394700477        2.5022300869       -1.3341849522
	 H           1.3078722442        2.5990105210        1.9705964549
	 C          -3.3543882613        1.1989199881        0.0059804754
	 H          -0.7574547998       -1.5945752268       -1.3998415969
	 H          -0.9994266723       -1.5283913484        1.8849087132
	 C          -5.7088963160       -0.4656792911       -0.1462105084
	 H          -3.2593973977        2.4041060574       -1.6553042242
	 H          -3.5068135711        2.4551759061        1.6256685233
	 H          -5.6399383197       -1.6977656120       -1.7862320096
	 H          -7.4094892089        0.6715257703       -0.2900375644
	 H          -5.8884505342       -1.6512764594        1.5199005517
	            -0.0004956646        0.0021356237        0.0005950726
	            -0.0041910217        0.0000845046       -0.0026193348
	             0.0004641861       -0.0020760538       -0.0062031101
	             0.0017840823       -0.0001697001        0.0011699090
	             0.0018064411        0.0018681123        0.0037995469
	             0.0018266875        0.0006011433        0.0020695602
	             0.0008393199       -0.0006509901        0.0028751661
	            -0.0004572546       -0.0005222990       -0.0007602621
	            -0.0013783905       -0.0006820278       -0.0010479033
	            -0.0003444562       -0.0003815360       -0.0000410865
	            -0.0001468388        0.0001383601        0.0000225290
	            -0.0000199708       -0.0000766481        0.0001957547
	             0.0003500926       -0.0002263640        0.0000159682
	            -0.0000366018        0.0000087306       -0.0000847660
	            -0.0000010604       -0.0000668443       -0.0000250924
	             0.0000004498        0.0000159888        0.0000380485

	Previous optimization step data not found.  Starting new optimization.

	---Fragment 1 Intrafragment Coordinates---
	 - Coordinate -           - BOHR/RAD -       - ANG/DEG -
	 R(1,2)           =         2.072506	       1.096723
	 R(2,3)           =         2.847748	       1.506963
	 R(2,4)           =         2.245620	       1.188331
	 R(3,5)           =         2.899602	       1.534403
	 R(3,6)           =         2.047962	       1.083735
	 R(3,7)           =         2.058701	       1.089418
	 R(5,8)           =         2.890557	       1.529617
	 R(5,9)           =         2.055179	       1.087554
	 R(5,10)          =         2.056989	       1.088512
	 R(8,11)          =         2.887518	       1.528009
	 R(8,12)          =         2.054596	       1.087245
	 R(8,13)          =         2.055432	       1.087688
	 R(11,14)         =         2.052428	       1.086098
	 R(11,15)         =         2.050838	       1.085257
	 R(11,16)         =         2.052756	       1.086272
	 B(1,2,3)         =         2.010404	     115.187662
	 B(1,2,4)         =         2.096908	     120.144003
	 B(2,3,5)         =         1.953633	     111.934922
	 B(2,3,6)         =         1.889742	     108.274266
	 B(2,3,7)         =         1.880478	     107.743427
	 B(3,2,4)         =         2.175873	     124.668335
	 B(3,5,8)         =         1.966892	     112.694589
	 B(3,5,9)         =         1.906675	     109.244417
	 B(3,5,10)        =         1.912124	     109.556618
	 B(5,3,6)         =         1.944196	     111.394240
	 B(5,3,7)         =         1.908173	     109.330288
	 B(5,8,11)        =         1.968999	     112.815311
	 B(5,8,12)        =         1.906855	     109.254730
	 B(5,8,13)        =         1.906617	     109.241108
	 B(6,3,7)         =         1.885303	     108.019926
	 B(8,5,9)         =         1.909252	     109.392108
	 B(8,5,10)        =         1.907426	     109.287465
	 B(8,11,14)       =         1.939906	     111.148406
	 B(8,11,15)       =         1.939263	     111.111587
	 B(8,11,16)       =         1.940672	     111.192291
	 B(9,5,10)        =         1.858309	     106.473236
	 B(11,8,12)       =         1.910529	     109.465231
	 B(11,8,13)       =         1.910707	     109.475439
	 B(12,8,13)       =         1.856751	     106.384000
	 B(14,11,15)      =         1.880415	     107.739858
	 B(14,11,16)      =         1.880504	     107.744965
	 B(15,11,16)      =         1.880371	     107.737299
	 D(1,2,3,5)       =        -1.864648	    -106.836472
	 D(1,2,3,6)       =         2.268822	     129.993934
	 D(1,2,3,7)       =         0.233822	      13.396989
	 D(2,3,5,8)       =         3.106610	     177.995666
	 D(2,3,5,9)       =        -1.050485	     -60.188354
	 D(2,3,5,10)      =         0.978977	      56.091230
	 D(3,5,8,11)      =         3.133313	     179.525623
	 D(3,5,8,12)      =         1.004050	      57.527814
	 D(3,5,8,13)      =        -1.020551	     -58.473256
	 D(4,2,3,5)       =         1.277050	      73.169572
	*D(4,2,3,6)       =        -0.872665	     -50.000022
	 D(4,2,3,7)       =        -2.907666	    -166.596967
	 D(5,8,11,14)     =        -1.048858	     -60.095163
	 D(5,8,11,15)     =         3.140436	     179.933727
	 D(5,8,11,16)     =         1.046089	      59.936483
	 D(6,3,5,8)       =        -1.057960	     -60.616663
	 D(6,3,5,9)       =         1.068130	      61.199317
	 D(6,3,5,10)      =         3.097591	     177.478901
	 D(7,3,5,8)       =         1.024378	      58.692521
	 D(7,3,5,9)       =        -3.132718	    -179.491499
	 D(7,3,5,10)      =        -1.103256	     -63.211915
	 D(9,5,8,11)      =         1.008682	      57.793229
	 D(9,5,8,12)      =        -1.120581	     -64.204580
	 D(9,5,8,13)      =         3.138003	     179.794350
	 D(10,5,8,11)     =        -1.019586	     -58.417954
	 D(10,5,8,12)     =         3.134336	     179.584237
	 D(10,5,8,13)     =         1.109736	      63.583168
	 D(12,8,11,14)    =         1.078334	      61.783995
	 D(12,8,11,15)    =        -1.015557	     -58.187115
	 D(12,8,11,16)    =        -3.109904	    -178.184359
	 D(13,8,11,14)    =         3.107311	     178.035803
	 D(13,8,11,15)    =         1.013420	      58.064693
	 D(13,8,11,16)    =        -1.080927	     -61.932551

	Current energy   :      -270.0181311453

	Generating empirical Hessian (Schlegel '84) for each fragment.
	Taking RFO optimization step.
	Going to follow RFO solution 1.
	Using RFO vector 1.
	Norm of target step-size    0.33924
	Projected energy change by RFO approximation:        -0.0052804425

	Back-transformation to cartesian coordinates...
	Successfully converged to displaced geometry.

	Back-transformation to cartesian coordinates to adjust frozen coordinates...
	Successfully converged to displaced geometry.

	--- Internal Coordinate Step in ANG or DEG, aJ/ANG or AJ/DEG ---
	 ---------------------------------------------------------------------------
	   Coordinate                Previous        Force       Change         New 
	   ----------                --------       ------       ------       ------
	    1 R(1,2)          =      1.096723    -0.003351    -0.000630     1.096093
	    2 R(2,3)          =      1.506963     0.029827     0.006029     1.512993
	    3 R(2,4)          =      1.188331     0.000083     0.000005     1.188336
	    4 R(3,5)          =      1.534403    -0.000386    -0.000085     1.534318
	    5 R(3,6)          =      1.083735     0.009794     0.001764     1.085499
	    6 R(3,7)          =      1.089418    -0.014959    -0.002745     1.086672
	    7 R(5,8)          =      1.529617     0.000659     0.000143     1.529760
	    8 R(5,9)          =      1.087554    -0.009384    -0.001712     1.085842
	    9 R(5,10)         =      1.088512    -0.001676    -0.000307     1.088205
	   10 R(8,11)         =      1.528009    -0.000801    -0.000173     1.527836
	   11 R(8,12)         =      1.087245     0.001682     0.000306     1.087552
	   12 R(8,13)         =      1.087688     0.001250     0.000228     1.087916
	   13 R(11,14)        =      1.086098    -0.000505    -0.000092     1.086007
	   14 R(11,15)        =      1.085257     0.000284     0.000051     1.085308
	   15 R(11,16)        =      1.086272    -0.000178    -0.000032     1.086239
	   16 B(1,2,3)        =    115.187662     0.000313     1.006617   116.194280
	   17 B(1,2,4)        =    120.144003     0.000021    -0.362539   119.781463
	   18 B(2,3,5)        =    111.934922    -0.000144    -0.559105   111.375816
	   19 B(2,3,6)        =    108.274266     0.000077    -0.396048   107.878217
	   20 B(2,3,7)        =    107.743427     0.000152     2.018045   109.761472
	   21 B(3,2,4)        =    124.668335    -0.000334    -1.382770   123.285565
	   22 B(3,5,8)        =    112.694589    -0.000013    -0.065713   112.628876
	   23 B(3,5,9)        =    109.244417    -0.000067    -0.503267   108.741150
	   24 B(3,5,10)       =    109.556618    -0.000010    -0.246315   109.310303
	   25 B(5,3,6)        =    111.394240    -0.000105    -1.960913   109.433327
	   26 B(5,3,7)        =    109.330288     0.000077     0.953331   110.283619
	   27 B(5,8,11)       =    112.815311    -0.000037    -0.129618   112.685693
	   28 B(5,8,12)       =    109.254730     0.000003    -0.043460   109.211269
	   29 B(5,8,13)       =    109.241108     0.000035     0.255586   109.496693
	   30 B(6,3,7)        =    108.019926    -0.000046    -0.003923   108.016002
	   31 B(8,5,9)        =    109.392108     0.000079     0.634270   110.026378
	   32 B(8,5,10)       =    109.287465     0.000010     0.110717   109.398182
	   33 B(8,11,14)      =    111.148406    -0.000000    -0.000407   111.147999
	   34 B(8,11,15)      =    111.111587    -0.000006    -0.021290   111.090297
	   35 B(8,11,16)      =    111.192291     0.000003     0.006635   111.198926
	   36 B(9,5,10)       =    106.473236     0.000003     0.075713   106.548949
	   37 B(11,8,12)      =    109.465231     0.000014    -0.023635   109.441596
	   38 B(11,8,13)      =    109.475439    -0.000006    -0.039510   109.435929
	   39 B(12,8,13)      =    106.384000    -0.000008    -0.012434   106.371566
	   40 B(14,11,15)     =    107.739858     0.000005     0.032100   107.771958
	   41 B(14,11,16)     =    107.744965    -0.000003    -0.022195   107.722769
	   42 B(15,11,16)     =    107.737299     0.000001     0.006084   107.743383
	   43 D(1,2,3,5)      =   -106.836472    -0.000008     6.837797   -99.998675
	   44 D(1,2,3,6)      =    129.993934     0.000032     9.896622   139.890557
	   45 D(1,2,3,7)      =     13.396989     0.000017     9.029056    22.426045
	   46 D(2,3,5,8)      =    177.995666     0.000015     5.023545   183.019212
	   47 D(2,3,5,9)      =    -60.188354     0.000026     5.430677   -54.757677
	   48 D(2,3,5,10)     =     56.091230     0.000016     5.101661    61.192891
	   49 D(3,5,8,11)     =    179.525623    -0.000001     0.433467   179.959089
	   50 D(3,5,8,12)     =     57.527814    -0.000000     0.581685    58.109498
	   51 D(3,5,8,13)     =    -58.473256    -0.000003     0.477831   -57.995425
	   52 D(4,2,3,5)      =     73.169572    -0.000040    -3.058825    70.110747
	   53 *D(4,2,3,6)     =    -50.000022    -0.000000     0.000000   -50.000022
	   54 D(4,2,3,7)      =   -166.596967    -0.000015    -0.867566  -167.464533
	   55 D(5,8,11,14)    =    -60.095163     0.000002     0.215661   -59.879502
	   56 D(5,8,11,15)    =    179.933727     0.000002     0.189619   180.123345
	   57 D(5,8,11,16)    =     59.936483     0.000002     0.191760    60.128243
	   58 D(6,3,5,8)      =    -60.616663    -0.000002     2.824231   -57.792432
	   59 D(6,3,5,9)      =     61.199317     0.000008     3.231363    64.430680
	   60 D(6,3,5,10)     =    177.478901    -0.000001     2.902347   180.381247
	   61 D(7,3,5,8)      =     58.692521    -0.000019     2.203264    60.895785
	   62 D(7,3,5,9)      =   -179.491499    -0.000009     2.610396  -176.881103
	   63 D(7,3,5,10)     =    -63.211915    -0.000018     2.281380   -60.930535
	   64 D(9,5,8,11)     =     57.793229     0.000007     0.670396    58.463625
	   65 D(9,5,8,12)     =    -64.204580     0.000009     0.818614   -63.385966
	   66 D(9,5,8,13)     =    179.794350     0.000006     0.714760   180.509111
	   67 D(10,5,8,11)    =    -58.417954    -0.000005     0.153581   -58.264373
	   68 D(10,5,8,12)    =    179.584237    -0.000004     0.301799   179.886036
	   69 D(10,5,8,13)    =     63.583168    -0.000006     0.197945    63.781113
	   70 D(12,8,11,14)   =     61.783995    -0.000000     0.055732    61.839727
	   71 D(12,8,11,15)   =    -58.187115    -0.000001     0.029689   -58.157426
	   72 D(12,8,11,16)   =   -178.184359    -0.000000     0.031831  -178.152528
	   73 D(13,8,11,14)   =    178.035803    -0.000001     0.004922   178.040725
	   74 D(13,8,11,15)   =     58.064693    -0.000002    -0.021121    58.043572
	   75 D(13,8,11,16)   =    -61.932551    -0.000002    -0.018979   -61.951530
	 ---------------------------------------------------------------------------

  ==> Convergence Check <==

  Measures of convergence in internal coordinates in au.
  Criteria marked as inactive (o), active & met (*), and active & unmet ( ).
  --------------------------------------------------------------------------------------------- ~
   Step     Total Energy     Delta E     MAX Force     RMS Force      MAX Disp      RMS Disp    ~
  --------------------------------------------------------------------------------------------- ~
    Convergence Criteria    1.00e-06 *    3.00e-04 *             o    1.20e-03 *             o  ~
  --------------------------------------------------------------------------------------------- ~
      1    -270.01813115   -2.70e+02      4.39e-03      1.08e-03 o    1.73e-01      3.91e-02 o  ~
  ---------------------------------------------------------------------------------------------

	Writing optimization data to binary file.
	Structure for next step:
	Cartesian Geometry (in Angstrom)
	    H     2.4732359589  -0.1985936642   1.3034739416
	    C     2.0356176785  -0.0827947914   0.3052249153
	    C     0.7665552264   0.7369126595   0.2233313946
	    O     2.4582730679  -0.7228841913  -0.6024038599
	    C    -0.4753011908  -0.1610121112   0.1481192324
	    H     0.8232441637   1.3504858121  -0.6703249528
	    H     0.7009845533   1.3993605460   1.0822377410
	    C    -1.7704195402   0.6376591516  -0.0098629802
	    H    -0.3586776479  -0.8487363658  -0.6840391286
	    H    -0.5338662683  -0.7702736669   1.0478754542
	    C    -3.0078129200  -0.2552904068  -0.0858969652
	    H    -1.7078293513   1.2468144310  -0.9086294891
	    H    -1.8740846900   1.3297813362   0.8230727074
	    H    -2.9488315239  -0.9354932700  -0.9304418423
	    H    -3.9102593065   0.3367532022  -0.1997785883
	    H    -3.1160380732  -0.8540073805   0.8139592467
			--------------------------
			 OPTKING Finished Execution 
			--------------------------

    Structure for next step:
    Molecular point group: c1
    Full point group: C1

    Geometry (in Angstrom), charge = 0, multiplicity = 1:

    H            2.480559439917    -0.210390624156     1.314788404908
    C            2.042941192941    -0.094591760161     0.316539454761
    C            0.773878837788     0.725115628161     0.234645940388
    O            2.465596550087    -0.734681111153    -0.591089251105
    C           -0.467977484545    -0.172809073968     0.159433783867
    H            0.830567770783     1.338688733897    -0.659010338812
    H            0.708308169650     1.387563464049     1.093552221178
    C           -1.763095735100     0.625862127846     0.001451583316
    H           -0.351353950576    -0.860533276106    -0.672724513546
    H           -0.526542557597    -0.782070583166     1.059189936973
    C           -3.000489020374    -0.267087362401    -0.074582395815
    H           -1.700505550950     1.235017360706    -0.897314856905
    H           -1.866760876954     1.317984259615     0.834387207394
    H           -2.941507628839    -0.947290173662    -0.919127208422
    H           -3.902935337983     0.324956201429    -0.188464010186
    H           -3.108714165362    -0.865804290385     0.825273747396

gradient() will perform analytic gradient computation.

*** tstart() called on cx1-5-5-2.cx1.hpc.ic.ac.uk
*** at Fri Sep  2 13:20:46 2016


         ---------------------------------------------------------
                                   SCF
            by Justin Turney, Rob Parrish, and Andy Simmonett
                              RHF Reference
                        4 Threads,   2000 MiB Core
         ---------------------------------------------------------

  ==> Geometry <==

    Molecular point group: c1
    Full point group: C1

    Geometry (in Angstrom), charge = 0, multiplicity = 1:

       Center              X                  Y                   Z               Mass       
    ------------   -----------------  -----------------  -----------------  -----------------
           H          2.480559439917    -0.210390624156     1.314788404908     1.007825032070
           C          2.042941192941    -0.094591760161     0.316539454761    12.000000000000
           C          0.773878837788     0.725115628161     0.234645940388    12.000000000000
           O          2.465596550087    -0.734681111153    -0.591089251105    15.994914619560
           C         -0.467977484545    -0.172809073968     0.159433783867    12.000000000000
           H          0.830567770783     1.338688733897    -0.659010338812     1.007825032070
           H          0.708308169650     1.387563464049     1.093552221178     1.007825032070
           C         -1.763095735100     0.625862127846     0.001451583316    12.000000000000
           H         -0.351353950576    -0.860533276106    -0.672724513546     1.007825032070
           H         -0.526542557597    -0.782070583166     1.059189936973     1.007825032070
           C         -3.000489020374    -0.267087362401    -0.074582395815    12.000000000000
           H         -1.700505550950     1.235017360706    -0.897314856905     1.007825032070
           H         -1.866760876954     1.317984259615     0.834387207394     1.007825032070
           H         -2.941507628839    -0.947290173662    -0.919127208422     1.007825032070
           H         -3.902935337983     0.324956201429    -0.188464010186     1.007825032070
           H         -3.108714165362    -0.865804290385     0.825273747396     1.007825032070

  Running in c1 symmetry.

  Rotational constants: A =      0.37572  B =      0.04624  C =      0.04371 [cm^-1]
  Rotational constants: A =  11263.79361  B =   1386.21847  C =   1310.29225 [MHz]
  Nuclear repulsion =  230.799336245884831

  Charge       = 0
  Multiplicity = 1
  Electrons    = 48
  Nalpha       = 24
  Nbeta        = 24

  ==> Algorithm <==

  SCF Algorithm Type is DF.
  DIIS enabled.
  MOM disabled.
  Fractional occupation disabled.
  Guess Type is READ.
  Energy threshold   = 1.00e-08
  Density threshold  = 1.00e-08
  Integral threshold = 0.00e+00

  ==> Primary Basis <==

  Basis Set: 6-31G*
    Number of shells: 56
    Number of basis function: 110
    Number of Cartesian functions: 110
    Spherical Harmonics?: false
    Max angular momentum: 2

  ==> Pre-Iterations <==

   -------------------------------------------------------
    Irrep   Nso     Nmo     Nalpha   Nbeta   Ndocc  Nsocc
   -------------------------------------------------------
     A        110     110       0       0       0       0
   -------------------------------------------------------
    Total     110     110      24      24      24       0
   -------------------------------------------------------

 OEINTS: Overlap, kinetic, potential, dipole, and quadrupole integrals
         stored in file 35.

  ==> Integral Setup <==

  ==> DFJK: Density-Fitted J/K Matrices <==

    J tasked:                  Yes
    K tasked:                  Yes
    wK tasked:                  No
    OpenMP threads:              4
    Integrals threads:           4
    Memory (MB):              1430
    Algorithm:                Core
    Integral Cache:           NONE
    Schwarz Cutoff:          1E-12
    Fitting Condition:       1E-12

   => Auxiliary Basis Set <=

  Basis Set: 
    Number of shells: 234
    Number of basis function: 736
    Number of Cartesian functions: 736
    Spherical Harmonics?: false
    Max angular momentum: 3

  Minimum eigenvalue in the overlap matrix is 3.6155190784E-03.
  Using Symmetric Orthogonalization.
  SCF Guess: Reading in previously saved MOs, projecting if necessary.

  Using orbitals from previous SCF, no projection.
  Recomputing DOCC and SOCC from number of alpha and beta electrons from previous calculation.
              A 
    DOCC [    24 ]

  ==> Iterations <==

                           Total Energy        Delta E     RMS |[F,P]|

   @DF-RHF iter   0:  -270.00286141114384   -2.70003e+02   1.55530e-03 
   @DF-RHF iter   1:  -270.01679949555933   -1.39381e-02   2.29393e-04 
   @DF-RHF iter   2:  -270.01739449668861   -5.95001e-04   8.51075e-05 DIIS
   @DF-RHF iter   3:  -270.01752028319305   -1.25787e-04   4.25768e-05 DIIS
   @DF-RHF iter   4:  -270.01754888967389   -2.86065e-05   2.12640e-05 DIIS
   @DF-RHF iter   5:  -270.01756341032859   -1.45207e-05   1.25116e-05 DIIS
   @DF-RHF iter   6:  -270.01757010288230   -6.69255e-06   3.18765e-06 DIIS
   @DF-RHF iter   7:  -270.01757044959322   -3.46711e-07   9.66959e-07 DIIS
   @DF-RHF iter   8:  -270.01757046714573   -1.75525e-08   3.25051e-07 DIIS
   @DF-RHF iter   9:  -270.01757046902037   -1.87464e-09   7.53581e-08 DIIS
   @DF-RHF iter  10:  -270.01757046913298   -1.12607e-10   2.23553e-08 DIIS
   @DF-RHF iter  11:  -270.01757046914059   -7.61702e-12   7.91692e-09 DIIS

  ==> Post-Iterations <==

    Orbital Energies (a.u.)
    -----------------------

    Doubly Occupied:                                                      

       1A    -20.562908     2A    -11.327236     3A    -11.234743  
       4A    -11.232409     5A    -11.226532     6A    -11.215878  
       7A     -1.403386     8A     -1.092407     9A     -1.015541  
      10A     -0.905252    11A     -0.812560    12A     -0.785445  
      13A     -0.682027    14A     -0.644531    15A     -0.628484  
      16A     -0.601415    17A     -0.577394    18A     -0.549994  
      19A     -0.526100    20A     -0.508509    21A     -0.484440  
      22A     -0.478462    23A     -0.474222    24A     -0.408347  

    Virtual:                                                              

      25A      0.154130    26A      0.228113    27A      0.255578  
      28A      0.265365    29A      0.287641    30A      0.289571  
      31A      0.321280    32A      0.330943    33A      0.335977  
      34A      0.343498    35A      0.348213    36A      0.390090  
      37A      0.401855    38A      0.440734    39A      0.458872  
      40A      0.498114    41A      0.691927    42A      0.725190  
      43A      0.739302    44A      0.743446    45A      0.769163  
      46A      0.802592    47A      0.843672    48A      0.856463  
      49A      0.913609    50A      0.961015    51A      0.962693  
      52A      0.995040    53A      1.026997    54A      1.060474  
      55A      1.089041    56A      1.104737    57A      1.116557  
      58A      1.130276    59A      1.135694    60A      1.173176  
      61A      1.183459    62A      1.203403    63A      1.206704  
      64A      1.210697    65A      1.226208    66A      1.259941  
      67A      1.314726    68A      1.363106    69A      1.384923  
      70A      1.435517    71A      1.598171    72A      1.644771  
      73A      1.676095    74A      1.744526    75A      1.787759  
      76A      1.837986    77A      1.855936    78A      1.970656  
      79A      2.000911    80A      2.099508    81A      2.131803  
      82A      2.157073    83A      2.186641    84A      2.224809  
      85A      2.251414    86A      2.279142    87A      2.311117  
      88A      2.354131    89A      2.364741    90A      2.473070  
      91A      2.575440    92A      2.588758    93A      2.613409  
      94A      2.687759    95A      2.719587    96A      2.753131  
      97A      2.757233    98A      2.881600    99A      2.914741  
     100A      2.971420   101A      3.046223   102A      3.150075  
     103A      3.247847   104A      3.361223   105A      4.280379  
     106A      4.517094   107A      4.612147   108A      4.717501  
     109A      4.831905   110A      4.966166  

    Final Occupation by Irrep:
              A 
    DOCC [    24 ]

  Energy converged.

  @DF-RHF Final Energy:  -270.01757046914059

   => Energetics <=

    Nuclear Repulsion Energy =            230.7993362458848310
    One-Electron Energy =                -822.8773643593217457
    Two-Electron Energy =                 322.0604576442963776
    DFT Exchange-Correlation Energy =       0.0000000000000000
    Empirical Dispersion Energy =           0.0000000000000000
    PCM Polarization Energy =               0.0000000000000000
    EFP Energy =                            0.0000000000000000
    Total Energy =                       -270.0175704691404803

    Alert: EFP and PCM quantities not currently incorporated into SCF psivars.

Properties will be evaluated at   0.000000,   0.000000,   0.000000 Bohr
  ==> Properties <==


Properties computed using the SCF density matrix

  Nuclear Dipole Moment: (a.u.)
     X:    -9.7180      Y:     1.8134      Z:     1.6757

  Electronic Dipole Moment: (a.u.)
     X:     9.0547      Y:    -1.2053      Z:    -0.9542

  Dipole Moment: (a.u.)
     X:    -0.6633      Y:     0.6081      Z:     0.7216     Total:     1.1534

  Dipole Moment: (Debye)
     X:    -1.6859      Y:     1.5456      Z:     1.8340     Total:     2.9317


  Saving occupied orbitals to File 180.

*** tstop() called on cx1-5-5-2.cx1.hpc.ic.ac.uk at Fri Sep  2 13:20:51 2016
Module time:
	user time   =      12.12 seconds =       0.20 minutes
	system time =       0.13 seconds =       0.00 minutes
	total time  =          5 seconds =       0.08 minutes
Total time:
	user time   =      43.29 seconds =       0.72 minutes
	system time =       0.55 seconds =       0.01 minutes
	total time  =         15 seconds =       0.25 minutes

*** tstart() called on cx1-5-5-2.cx1.hpc.ic.ac.uk
*** at Fri Sep  2 13:20:51 2016


         ------------------------------------------------------------
                                   SCF GRAD                          
                          Rob Parrish, Justin Turney,                
                       Andy Simmonett, and Alex Sokolov              
         ------------------------------------------------------------

  ==> Geometry <==

    Molecular point group: c1
    Full point group: C1

    Geometry (in Angstrom), charge = 0, multiplicity = 1:

       Center              X                  Y                   Z               Mass       
    ------------   -----------------  -----------------  -----------------  -----------------
           H          2.480559439917    -0.210390624156     1.314788404908     1.007825032070
           C          2.042941192941    -0.094591760161     0.316539454761    12.000000000000
           C          0.773878837788     0.725115628161     0.234645940388    12.000000000000
           O          2.465596550087    -0.734681111153    -0.591089251105    15.994914619560
           C         -0.467977484545    -0.172809073968     0.159433783867    12.000000000000
           H          0.830567770783     1.338688733897    -0.659010338812     1.007825032070
           H          0.708308169650     1.387563464049     1.093552221178     1.007825032070
           C         -1.763095735100     0.625862127846     0.001451583316    12.000000000000
           H         -0.351353950576    -0.860533276106    -0.672724513546     1.007825032070
           H         -0.526542557597    -0.782070583166     1.059189936973     1.007825032070
           C         -3.000489020374    -0.267087362401    -0.074582395815    12.000000000000
           H         -1.700505550950     1.235017360706    -0.897314856905     1.007825032070
           H         -1.866760876954     1.317984259615     0.834387207394     1.007825032070
           H         -2.941507628839    -0.947290173662    -0.919127208422     1.007825032070
           H         -3.902935337983     0.324956201429    -0.188464010186     1.007825032070
           H         -3.108714165362    -0.865804290385     0.825273747396     1.007825032070

  Nuclear repulsion =  230.799336245884831

  ==> Basis Set <==

  Basis Set: 6-31G*
    Number of shells: 56
    Number of basis function: 110
    Number of Cartesian functions: 110
    Spherical Harmonics?: false
    Max angular momentum: 2

  ==> DFJKGrad: Density-Fitted SCF Gradients <==

    Gradient:                    1
    J tasked:                  Yes
    K tasked:                  Yes
    wK tasked:                  No
    OpenMP threads:              4
    Integrals threads:           4
    Memory (MB):              1430
    Schwarz Cutoff:          0E+00
    Fitting Condition:       1E-12

   => Auxiliary Basis Set <=

  Basis Set: 
    Number of shells: 234
    Number of basis function: 736
    Number of Cartesian functions: 736
    Spherical Harmonics?: false
    Max angular momentum: 3


  -Total Gradient:
     Atom            X                  Y                   Z
    ------   -----------------  -----------------  -----------------
       1       -0.004091233534    -0.005289145866     0.001379335927
       2        0.013331247344     0.015840570438    -0.007167912460
       3       -0.004764479738    -0.006738046749     0.002878481784
       4       -0.004655617914    -0.005281734156     0.003425422144
       5       -0.000178554011     0.002136403664    -0.001098599216
       6        0.000331463651    -0.000488012024     0.000251342571
       7        0.000082522238    -0.000019184450     0.000451431235
       8       -0.000516889422    -0.000157797090    -0.000109401510
       9       -0.000001446459    -0.000606820675     0.000082554193
      10        0.000486395649     0.000351318143    -0.000061678853
      11        0.000087259149     0.000145900417    -0.000032274771
      12       -0.000016425532     0.000045142956    -0.000028543152
      13       -0.000100780530     0.000086797994     0.000030684531
      14       -0.000016929608    -0.000011539840    -0.000012001232
      15        0.000017107913     0.000001365990     0.000004776495
      16        0.000006360800    -0.000015218751     0.000006382314


*** tstop() called on cx1-5-5-2.cx1.hpc.ic.ac.uk at Fri Sep  2 13:20:55 2016
Module time:
	user time   =      15.03 seconds =       0.25 minutes
	system time =       0.17 seconds =       0.00 minutes
	total time  =          4 seconds =       0.07 minutes
Total time:
	user time   =      58.33 seconds =       0.97 minutes
	system time =       0.72 seconds =       0.01 minutes
	total time  =         19 seconds =       0.32 minutes
CURRENT ENERGY: -270.0175704691

			-----------------------------------------
			 OPTKING 2.0: for geometry optimizations 
			  - R.A. King,  Bethel University        
			-----------------------------------------

	Previous internal coordinate definitions found.
	---Fragment 1 Geometry and Gradient---
	 H           4.6875779978       -0.3975806606        2.4845900080
	 C           3.8605993602       -0.1787525211        0.5981728798
	 C           1.4624190635        1.3702699519        0.4434165655
	 O           4.6593022339       -1.3883460951       -1.1169968047
	 C          -0.8843492821       -0.3265618231        0.3012861878
	 H           1.5695456216        2.5297550842       -1.2453490591
	 H           1.3385084583        2.6221149391        2.0665142100
	 C          -3.3317680854        1.1827080186        0.0027430949
	 H          -0.6639627423       -1.6261722201       -1.2712650935
	 H          -0.9950212312       -1.4778992188        2.0015789036
	 C          -5.6701025132       -0.5047219685       -0.1409403024
	 H          -3.2134897787        2.3338445811       -1.6956793345
	 H          -3.5276668130        2.4906292981        1.5767633108
	 H          -5.5586438363       -1.7901189966       -1.7368987052
	 H          -7.3754789032        0.6140782259       -0.3561453652
	 H          -5.8746183980       -1.6361329935        1.5595413672
	            -0.0040912335       -0.0052891459        0.0013793359
	             0.0133312473        0.0158405704       -0.0071679125
	            -0.0047644797       -0.0067380467        0.0028784818
	            -0.0046556179       -0.0052817342        0.0034254221
	            -0.0001785540        0.0021364037       -0.0010985992
	             0.0003314637       -0.0004880120        0.0002513426
	             0.0000825222       -0.0000191844        0.0004514312
	            -0.0005168894       -0.0001577971       -0.0001094015
	            -0.0000014465       -0.0006068207        0.0000825542
	             0.0004863956        0.0003513181       -0.0000616789
	             0.0000872591        0.0001459004       -0.0000322748
	            -0.0000164255        0.0000451430       -0.0000285432
	            -0.0001007805        0.0000867980        0.0000306845
	            -0.0000169296       -0.0000115398       -0.0000120012
	             0.0000171079        0.0000013660        0.0000047765
	             0.0000063608       -0.0000152188        0.0000063823

	---Fragment 1 Intrafragment Coordinates---
	 - Coordinate -           - BOHR/RAD -       - ANG/DEG -
	 R(1,2)           =         2.071316	       1.096093
	 R(2,3)           =         2.859141	       1.512993
	 R(2,4)           =         2.245629	       1.188336
	 R(3,5)           =         2.899441	       1.534318
	 R(3,6)           =         2.051295	       1.085499
	 R(3,7)           =         2.053513	       1.086672
	 R(5,8)           =         2.890827	       1.529760
	 R(5,9)           =         2.051944	       1.085842
	 R(5,10)          =         2.056410	       1.088205
	 R(8,11)          =         2.887191	       1.527836
	 R(8,12)          =         2.055175	       1.087552
	 R(8,13)          =         2.055863	       1.087916
	 R(11,14)         =         2.052255	       1.086007
	 R(11,15)         =         2.050935	       1.085308
	 R(11,16)         =         2.052695	       1.086239
	 B(1,2,3)         =         2.027973	     116.194280
	 B(1,2,4)         =         2.090581	     119.781463
	 B(2,3,5)         =         1.943875	     111.375816
	 B(2,3,6)         =         1.882830	     107.878217
	 B(2,3,7)         =         1.915699	     109.761472
	 B(3,2,4)         =         2.151739	     123.285565
	 B(3,5,8)         =         1.965745	     112.628876
	 B(3,5,9)         =         1.897891	     108.741150
	 B(3,5,10)        =         1.907825	     109.310303
	 B(5,3,6)         =         1.909972	     109.433327
	 B(5,3,7)         =         1.924812	     110.283619
	 B(5,8,11)        =         1.966736	     112.685693
	 B(5,8,12)        =         1.906096	     109.211269
	 B(5,8,13)        =         1.911078	     109.496693
	 B(6,3,7)         =         1.885235	     108.016002
	 B(8,5,9)         =         1.920323	     110.026378
	 B(8,5,10)        =         1.909358	     109.398182
	 B(8,11,14)       =         1.939899	     111.147999
	 B(8,11,15)       =         1.938891	     111.090297
	 B(8,11,16)       =         1.940787	     111.198926
	 B(9,5,10)        =         1.859630	     106.548949
	 B(11,8,12)       =         1.910116	     109.441596
	 B(11,8,13)       =         1.910017	     109.435929
	 B(12,8,13)       =         1.856534	     106.371566
	 B(14,11,15)      =         1.880976	     107.771958
	 B(14,11,16)      =         1.880117	     107.722769
	 B(15,11,16)      =         1.880477	     107.743383
	 D(1,2,3,5)       =        -1.745306	     -99.998675
	 D(1,2,3,6)       =         2.441551	     139.890557
	 D(1,2,3,7)       =         0.391408	      22.426045
	 D(2,3,5,8)       =        -3.088897	    -176.980788
	 D(2,3,5,9)       =        -0.955702	     -54.757677
	 D(2,3,5,10)      =         1.068017	      61.192891
	 D(3,5,8,11)      =         3.140879	     179.959089
	 D(3,5,8,12)      =         1.014202	      58.109498
	 D(3,5,8,13)      =        -1.012211	     -57.995425
	 D(4,2,3,5)       =         1.223663	      70.110747
	*D(4,2,3,6)       =        -0.872665	     -50.000022
	 D(4,2,3,7)       =        -2.922807	    -167.464533
	 D(5,8,11,14)     =        -1.045094	     -59.879502
	 D(5,8,11,15)     =        -3.139440	    -179.876655
	 D(5,8,11,16)     =         1.049436	      60.128243
	 D(6,3,5,8)       =        -1.008668	     -57.792432
	 D(6,3,5,9)       =         1.124527	      64.430680
	 D(6,3,5,10)      =        -3.134939	    -179.618753
	 D(7,3,5,8)       =         1.062832	      60.895785
	 D(7,3,5,9)       =        -3.087158	    -176.881103
	 D(7,3,5,10)      =        -1.063438	     -60.930535
	 D(9,5,8,11)      =         1.020383	      58.463625
	 D(9,5,8,12)      =        -1.106294	     -63.385966
	 D(9,5,8,13)      =        -3.132707	    -179.490889
	 D(10,5,8,11)     =        -1.016905	     -58.264373
	 D(10,5,8,12)     =         3.139604	     179.886036
	 D(10,5,8,13)     =         1.113190	      63.781113
	 D(12,8,11,14)    =         1.079307	      61.839727
	 D(12,8,11,15)    =        -1.015039	     -58.157426
	 D(12,8,11,16)    =        -3.109348	    -178.152528
	 D(13,8,11,14)    =         3.107397	     178.040725
	 D(13,8,11,15)    =         1.013051	      58.043572
	 D(13,8,11,16)    =        -1.081258	     -61.951530

	Current energy   :      -270.0175704691

	Energy change for the previous step:
		Projected    :        -0.0052804425
		Actual       :         0.0005606761

	Performing BFGS update.
	Previous computed or guess Hessian on step 1.
	Steps to be used in Hessian update: 1
	Taking RFO optimization step.
	Going to follow RFO solution 1.
	Using RFO vector 1.
	Norm of target step-size    0.30491
	Projected energy change by RFO approximation:         0.0054007635

	Back-transformation to cartesian coordinates...
	Successfully converged to displaced geometry.

	Back-transformation to cartesian coordinates to adjust frozen coordinates...
	Successfully converged to displaced geometry.

	--- Internal Coordinate Step in ANG or DEG, aJ/ANG or AJ/DEG ---
	 ---------------------------------------------------------------------------
	   Coordinate                Previous        Force       Change         New 
	   ----------                --------       ------       ------       ------
	    1 R(1,2)          =      1.096093    -0.001496    -0.000551     1.095542
	    2 R(2,3)          =      1.512993    -0.007105     0.003715     1.516707
	    3 R(2,4)          =      1.188336     0.011758     0.000261     1.188597
	    4 R(3,5)          =      1.534318     0.007473     0.000563     1.534881
	    5 R(3,6)          =      1.085499     0.003835     0.001507     1.087006
	    6 R(3,7)          =      1.086672    -0.002802    -0.002134     1.084538
	    7 R(5,8)          =      1.529760    -0.004295    -0.000252     1.529508
	    8 R(5,9)          =      1.085842    -0.002644    -0.001392     1.084451
	    9 R(5,10)         =      1.088205     0.002256    -0.000060     1.088145
	   10 R(8,11)         =      1.527836     0.001193    -0.000025     1.527811
	   11 R(8,12)         =      1.087552    -0.000395     0.000189     1.087741
	   12 R(8,13)         =      1.087916    -0.000728     0.000111     1.088027
	   13 R(11,14)        =      1.086007    -0.000129    -0.000074     1.085933
	   14 R(11,15)        =      1.085308     0.000115     0.000044     1.085352
	   15 R(11,16)        =      1.086239    -0.000107    -0.000030     1.086209
	   16 B(1,2,3)        =    116.194280     0.000084     1.231560   117.425840
	   17 B(1,2,4)        =    119.781463    -0.000017     0.092459   119.873923
	   18 B(2,3,5)        =    111.375816    -0.000189    -0.487339   110.888477
	   19 B(2,3,6)        =    107.878217     0.000045     0.017662   107.895879
	   20 B(2,3,7)        =    109.761472     0.000017     1.053570   110.815042
	   21 B(3,2,4)        =    123.285565    -0.000001    -0.585658   122.699908
	   22 B(3,5,8)        =    112.628876    -0.000042    -0.113107   112.515769
	   23 B(3,5,9)        =    108.741150    -0.000007    -0.410797   108.330353
	   24 B(3,5,10)       =    109.310303     0.000051    -0.024852   109.285450
	   25 B(5,3,6)        =    109.433327     0.000221    -0.483874   108.949453
	   26 B(5,3,7)        =    110.283619     0.000061     0.587343   110.870962
	   27 B(5,8,11)       =    112.685693    -0.000005    -0.099690   112.586003
	   28 B(5,8,12)       =    109.211269     0.000001    -0.027951   109.183318
	   29 B(5,8,13)       =    109.496693    -0.000004     0.159784   109.656478
	   30 B(6,3,7)        =    108.016002    -0.000154    -0.728415   107.287587
	   31 B(8,5,9)        =    110.026378     0.000016     0.413821   110.440199
	   32 B(8,5,10)       =    109.398182    -0.000016     0.046469   109.444651
	   33 B(8,11,14)      =    111.147999    -0.000002    -0.004101   111.143898
	   34 B(8,11,15)      =    111.090297     0.000001    -0.012240   111.078057
	   35 B(8,11,16)      =    111.198926     0.000000     0.005149   111.204076
	   36 B(9,5,10)       =    106.548949     0.000000     0.095231   106.644180
	   37 B(11,8,12)      =    109.441596     0.000003    -0.004356   109.437240
	   38 B(11,8,13)      =    109.435929     0.000005    -0.021942   109.413987
	   39 B(12,8,13)      =    106.371566     0.000001    -0.000298   106.371267
	   40 B(14,11,15)     =    107.771958     0.000000     0.023033   107.794991
	   41 B(14,11,16)     =    107.722769     0.000001    -0.014686   107.708084
	   42 B(15,11,16)     =    107.743383    -0.000001     0.003534   107.746917
	   43 D(1,2,3,5)      =    -99.998675    -0.000056   -10.550967  -110.549642
	   44 D(1,2,3,6)      =    139.890557    -0.000099    -9.681168   130.209389
	   45 D(1,2,3,7)      =     22.426045    -0.000065    -9.400138    13.025907
	   46 D(2,3,5,8)      =   -176.980788    -0.000013     0.960681  -176.020107
	   47 D(2,3,5,9)      =    -54.757677    -0.000016     1.121681   -53.635996
	   48 D(2,3,5,10)     =     61.192891    -0.000010     0.994829    62.187720
	   49 D(3,5,8,11)     =    179.959089    -0.000004     0.196551   180.155640
	   50 D(3,5,8,12)     =     58.109498    -0.000004     0.288466    58.397964
	   51 D(3,5,8,13)     =    -57.995425    -0.000004     0.214811   -57.780614
	   52 D(4,2,3,5)      =     70.110747     0.000043    -0.869799    69.240948
	   53 *D(4,2,3,6)     =    -50.000022     0.000000     0.000000   -50.000022
	   54 D(4,2,3,7)      =   -167.464533     0.000034     0.281030  -167.183503
	   55 D(5,8,11,14)    =    -59.879502    -0.000000     0.152745   -59.726757
	   56 D(5,8,11,15)    =   -179.876655    -0.000000     0.134575  -179.742080
	   57 D(5,8,11,16)    =     60.128243    -0.000000     0.134868    60.263111
	   58 D(6,3,5,8)      =    -57.792432     0.000005     0.378168   -57.414263
	   59 D(6,3,5,9)      =     64.430680     0.000003     0.539169    64.969848
	   60 D(6,3,5,10)     =   -179.618753     0.000008     0.412317  -179.206436
	   61 D(7,3,5,8)      =     60.895785     0.000002    -0.459349    60.436437
	   62 D(7,3,5,9)      =   -176.881103    -0.000001    -0.298348  -177.179452
	   63 D(7,3,5,10)     =    -60.930535     0.000004    -0.425200   -61.355736
	   64 D(9,5,8,11)     =     58.463625     0.000002     0.506037    58.969662
	   65 D(9,5,8,12)     =    -63.385966     0.000002     0.597952   -62.788013
	   66 D(9,5,8,13)     =   -179.490889     0.000002     0.524298  -178.966592
	   67 D(10,5,8,11)    =    -58.264373     0.000002     0.121754   -58.142619
	   68 D(10,5,8,12)    =    179.886036     0.000002     0.213669   180.099705
	   69 D(10,5,8,13)    =     63.781113     0.000002     0.140014    63.921127
	   70 D(12,8,11,14)   =     61.839727    -0.000000     0.047050    61.886777
	   71 D(12,8,11,15)   =    -58.157426    -0.000000     0.028880   -58.128545
	   72 D(12,8,11,16)   =   -178.152528    -0.000000     0.029174  -178.123354
	   73 D(13,8,11,14)   =    178.040725     0.000001     0.031787   178.072512
	   74 D(13,8,11,15)   =     58.043572     0.000001     0.013617    58.057189
	   75 D(13,8,11,16)   =    -61.951530     0.000001     0.013910   -61.937620
	 ---------------------------------------------------------------------------

  ==> Convergence Check <==

  Measures of convergence in internal coordinates in au.
  Criteria marked as inactive (o), active & met (*), and active & unmet ( ).
  ---------------------------------------------------------------------------------------------
   Step     Total Energy     Delta E     MAX Force     RMS Force      MAX Disp      RMS Disp   
  ---------------------------------------------------------------------------------------------
    Convergence Criteria    1.00e-06 *    3.00e-04 *             o    1.20e-03 *             o
  ---------------------------------------------------------------------------------------------
      2    -270.01757047    5.61e-04      5.69e-03      1.13e-03 o    1.84e-01      3.52e-02 o  ~
  ---------------------------------------------------------------------------------------------

	Writing optimization data to binary file.
	Structure for next step:
	Cartesian Geometry (in Angstrom)
	    H     2.5835644637  -0.1304278219   1.2713649018
	    C     2.0320499842  -0.1230767991   0.3247975958
	    C     0.7686454222   0.7135013708   0.2588698917
	    O     2.4300428542  -0.7588564892  -0.5972375432
	    C    -0.4756297923  -0.1805859839   0.1680535472
	    H     0.8242063714   1.3327233081  -0.6327911257
	    H     0.7034609219   1.3809436947   1.1112168598
	    C    -1.7649969366   0.6251943252   0.0017818676
	    H    -0.3453280033  -0.8628176826  -0.6647816777
	    H    -0.5443209936  -0.7930415351   1.0648472909
	    C    -3.0050085930  -0.2630905402  -0.0849819485
	    H    -1.6924937798   1.2342994080  -0.8965026043
	    H    -1.8736974018   1.3176801433   0.8339179088
	    H    -2.9409124028  -0.9438891448  -0.9285789679
	    H    -3.9040807198   0.3325371642  -0.2069940107
	    H    -3.1235325305  -0.8611637428   0.8139678600
			--------------------------
			 OPTKING Finished Execution 
			--------------------------

    Structure for next step:
    Molecular point group: c1
    Full point group: C1

    Geometry (in Angstrom), charge = 0, multiplicity = 1:

    H            2.593611365601    -0.120529386447     1.268472256875
    C            2.042096928175    -0.113178364258     0.321905023140
    C            0.778692462712     0.723399741747     0.255977324123
    O            2.440089767759    -0.748958005800    -0.600130045416
    C           -0.465582656775    -0.170687544704     0.165160986477
    H            0.834253407657     1.342621631802    -0.635683625220
    H            0.713507967320     1.390842014665     1.108324227065
    C           -1.754949702598     0.635092702953    -0.001110680359
    H           -0.335280877780    -0.852919191269    -0.667674174733
    H           -0.534273852891    -0.783143049071     1.061954661740
    C           -2.994961264355    -0.253192094635    -0.087874489822
    H           -1.682446551343     1.244197739196    -0.899395083734
    H           -1.863650159506     1.327578468136     0.831025297295
    H           -2.930865079003    -0.933990647267    -0.931471444790
    H           -3.894033322481     0.342435564254    -0.209886542747
    H           -3.113485192852    -0.851265251626     0.811075249961

gradient() will perform analytic gradient computation.

*** tstart() called on cx1-5-5-2.cx1.hpc.ic.ac.uk
*** at Fri Sep  2 13:20:56 2016


         ---------------------------------------------------------
                                   SCF
            by Justin Turney, Rob Parrish, and Andy Simmonett
                              RHF Reference
                        4 Threads,   2000 MiB Core
         ---------------------------------------------------------

  ==> Geometry <==

    Molecular point group: c1
    Full point group: C1

    Geometry (in Angstrom), charge = 0, multiplicity = 1:

       Center              X                  Y                   Z               Mass       
    ------------   -----------------  -----------------  -----------------  -----------------
           H          2.593611365601    -0.120529386447     1.268472256875     1.007825032070
           C          2.042096928175    -0.113178364258     0.321905023140    12.000000000000
           C          0.778692462712     0.723399741747     0.255977324123    12.000000000000
           O          2.440089767759    -0.748958005800    -0.600130045416    15.994914619560
           C         -0.465582656775    -0.170687544704     0.165160986477    12.000000000000
           H          0.834253407657     1.342621631802    -0.635683625220     1.007825032070
           H          0.713507967320     1.390842014665     1.108324227065     1.007825032070
           C         -1.754949702598     0.635092702953    -0.001110680359    12.000000000000
           H         -0.335280877780    -0.852919191269    -0.667674174733     1.007825032070
           H         -0.534273852891    -0.783143049071     1.061954661740     1.007825032070
           C         -2.994961264355    -0.253192094635    -0.087874489822    12.000000000000
           H         -1.682446551343     1.244197739196    -0.899395083734     1.007825032070
           H         -1.863650159506     1.327578468136     0.831025297295     1.007825032070
           H         -2.930865079003    -0.933990647267    -0.931471444790     1.007825032070
           H         -3.894033322481     0.342435564254    -0.209886542747     1.007825032070
           H         -3.113485192852    -0.851265251626     0.811075249961     1.007825032070

  Running in c1 symmetry.

  Rotational constants: A =      0.37180  B =      0.04653  C =      0.04388 [cm^-1]
  Rotational constants: A =  11146.23640  B =   1394.89839  C =   1315.40177 [MHz]
  Nuclear repulsion =  230.894745941761158

  Charge       = 0
  Multiplicity = 1
  Electrons    = 48
  Nalpha       = 24
  Nbeta        = 24

  ==> Algorithm <==

  SCF Algorithm Type is DF.
  DIIS enabled.
  MOM disabled.
  Fractional occupation disabled.
  Guess Type is READ.
  Energy threshold   = 1.00e-08
  Density threshold  = 1.00e-08
  Integral threshold = 0.00e+00

  ==> Primary Basis <==

  Basis Set: 6-31G*
    Number of shells: 56
    Number of basis function: 110
    Number of Cartesian functions: 110
    Spherical Harmonics?: false
    Max angular momentum: 2

  ==> Pre-Iterations <==

   -------------------------------------------------------
    Irrep   Nso     Nmo     Nalpha   Nbeta   Ndocc  Nsocc
   -------------------------------------------------------
     A        110     110       0       0       0       0
   -------------------------------------------------------
    Total     110     110      24      24      24       0
   -------------------------------------------------------

 OEINTS: Overlap, kinetic, potential, dipole, and quadrupole integrals
         stored in file 35.

  ==> Integral Setup <==

  ==> DFJK: Density-Fitted J/K Matrices <==

    J tasked:                  Yes
    K tasked:                  Yes
    wK tasked:                  No
    OpenMP threads:              4
    Integrals threads:           4
    Memory (MB):              1430
    Algorithm:                Core
    Integral Cache:           NONE
    Schwarz Cutoff:          1E-12
    Fitting Condition:       1E-12

   => Auxiliary Basis Set <=

  Basis Set: 
    Number of shells: 234
    Number of basis function: 736
    Number of Cartesian functions: 736
    Spherical Harmonics?: false
    Max angular momentum: 3

  Minimum eigenvalue in the overlap matrix is 3.5730242338E-03.
  Using Symmetric Orthogonalization.
  SCF Guess: Reading in previously saved MOs, projecting if necessary.

  Using orbitals from previous SCF, no projection.
  Recomputing DOCC and SOCC from number of alpha and beta electrons from previous calculation.
              A 
    DOCC [    24 ]

  ==> Iterations <==

                           Total Energy        Delta E     RMS |[F,P]|

   @DF-RHF iter   0:  -270.01481633687717   -2.70015e+02   6.45049e-04 
   @DF-RHF iter   1:  -270.01778001656749   -2.96368e-03   1.46838e-04 
   @DF-RHF iter   2:  -270.01816356967515   -3.83553e-04   7.30542e-05 DIIS
   @DF-RHF iter   3:  -270.01833546003763   -1.71890e-04   3.20306e-05 DIIS
   @DF-RHF iter   4:  -270.01837089243770   -3.54324e-05   1.87056e-05 DIIS
   @DF-RHF iter   5:  -270.01838268856773   -1.17961e-05   7.54320e-06 DIIS
   @DF-RHF iter   6:  -270.01838433522960   -1.64666e-06   2.70416e-06 DIIS
   @DF-RHF iter   7:  -270.01838453832738   -2.03098e-07   8.33597e-07 DIIS
   @DF-RHF iter   8:  -270.01838455162556   -1.32982e-08   2.70639e-07 DIIS
   @DF-RHF iter   9:  -270.01838455315476   -1.52920e-09   7.69194e-08 DIIS
   @DF-RHF iter  10:  -270.01838455327436   -1.19599e-10   2.80812e-08 DIIS
   @DF-RHF iter  11:  -270.01838455329073   -1.63709e-11   7.01033e-09 DIIS

  ==> Post-Iterations <==

    Orbital Energies (a.u.)
    -----------------------

    Doubly Occupied:                                                      

       1A    -20.562546     2A    -11.327712     3A    -11.234622  
       4A    -11.230903     5A    -11.225782     6A    -11.215177  
       7A     -1.403231     8A     -1.091476     9A     -1.014389  
      10A     -0.904254    11A     -0.812694    12A     -0.784901  
      13A     -0.682104    14A     -0.644897    15A     -0.628037  
      16A     -0.600388    17A     -0.577723    18A     -0.548994  
      19A     -0.526920    20A     -0.506370    21A     -0.483981  
      22A     -0.478466    23A     -0.473355    24A     -0.408350  

    Virtual:                                                              

      25A      0.154837    26A      0.229081    27A      0.256383  
      28A      0.266048    29A      0.284974    30A      0.291461  
      31A      0.322117    32A      0.331796    33A      0.336581  
      34A      0.344459    35A      0.349620    36A      0.389528  
      37A      0.403304    38A      0.439645    39A      0.457967  
      40A      0.498696    41A      0.691774    42A      0.726530  
      43A      0.737701    44A      0.743724    45A      0.768661  
      46A      0.806502    47A      0.846282    48A      0.857298  
      49A      0.916083    50A      0.961926    51A      0.967661  
      52A      0.990413    53A      1.037695    54A      1.060595  
      55A      1.088520    56A      1.107033    57A      1.115442  
      58A      1.123050    59A      1.139296    60A      1.173624  
      61A      1.184124    62A      1.204837    63A      1.209201  
      64A      1.211868    65A      1.227704    66A      1.260634  
      67A      1.302965    68A      1.361337    69A      1.385543  
      70A      1.438921    71A      1.599494    72A      1.642528  
      73A      1.674249    74A      1.739528    75A      1.797258  
      76A      1.833666    77A      1.864834    78A      1.972745  
      79A      1.999503    80A      2.103107    81A      2.125063  
      82A      2.170108    83A      2.186842    84A      2.223337  
      85A      2.250518    86A      2.278843    87A      2.310141  
      88A      2.362127    89A      2.373853    90A      2.451496  
      91A      2.573933    92A      2.589849    93A      2.618540  
      94A      2.687159    95A      2.723660    96A      2.747283  
      97A      2.761746    98A      2.877774    99A      2.915048  
     100A      2.973866   101A      3.048179   102A      3.150057  
     103A      3.246394   104A      3.360407   105A      4.281892  
     106A      4.515459   107A      4.609888   108A      4.716223  
     109A      4.832792   110A      4.967086  

    Final Occupation by Irrep:
              A 
    DOCC [    24 ]

  Energy converged.

  @DF-RHF Final Energy:  -270.01838455329073

   => Energetics <=

    Nuclear Repulsion Energy =            230.8947459417611583
    One-Electron Energy =                -823.0917223426763485
    Two-Electron Energy =                 322.1785918476244888
    DFT Exchange-Correlation Energy =       0.0000000000000000
    Empirical Dispersion Energy =           0.0000000000000000
    PCM Polarization Energy =               0.0000000000000000
    EFP Energy =                            0.0000000000000000
    Total Energy =                       -270.0183845532907299

    Alert: EFP and PCM quantities not currently incorporated into SCF psivars.

Properties will be evaluated at   0.000000,   0.000000,   0.000000 Bohr
  ==> Properties <==


Properties computed using the SCF density matrix

  Nuclear Dipole Moment: (a.u.)
     X:    -9.5623      Y:     1.9706      Z:     1.6253

  Electronic Dipole Moment: (a.u.)
     X:     8.9442      Y:    -1.3492      Z:    -0.8919

  Dipole Moment: (a.u.)
     X:    -0.6182      Y:     0.6214      Z:     0.7333     Total:     1.1428

  Dipole Moment: (Debye)
     X:    -1.5712      Y:     1.5794      Z:     1.8639     Total:     2.9047


  Saving occupied orbitals to File 180.

*** tstop() called on cx1-5-5-2.cx1.hpc.ic.ac.uk at Fri Sep  2 13:21:00 2016
Module time:
	user time   =      11.29 seconds =       0.19 minutes
	system time =       0.13 seconds =       0.00 minutes
	total time  =          4 seconds =       0.07 minutes
Total time:
	user time   =      70.28 seconds =       1.17 minutes
	system time =       0.87 seconds =       0.01 minutes
	total time  =         24 seconds =       0.40 minutes

*** tstart() called on cx1-5-5-2.cx1.hpc.ic.ac.uk
*** at Fri Sep  2 13:21:00 2016


         ------------------------------------------------------------
                                   SCF GRAD                          
                          Rob Parrish, Justin Turney,                
                       Andy Simmonett, and Alex Sokolov              
         ------------------------------------------------------------

  ==> Geometry <==

    Molecular point group: c1
    Full point group: C1

    Geometry (in Angstrom), charge = 0, multiplicity = 1:

       Center              X                  Y                   Z               Mass       
    ------------   -----------------  -----------------  -----------------  -----------------
           H          2.593611365601    -0.120529386447     1.268472256875     1.007825032070
           C          2.042096928175    -0.113178364258     0.321905023140    12.000000000000
           C          0.778692462712     0.723399741747     0.255977324123    12.000000000000
           O          2.440089767759    -0.748958005800    -0.600130045416    15.994914619560
           C         -0.465582656775    -0.170687544704     0.165160986477    12.000000000000
           H          0.834253407657     1.342621631802    -0.635683625220     1.007825032070
           H          0.713507967320     1.390842014665     1.108324227065     1.007825032070
           C         -1.754949702598     0.635092702953    -0.001110680359    12.000000000000
           H         -0.335280877780    -0.852919191269    -0.667674174733     1.007825032070
           H         -0.534273852891    -0.783143049071     1.061954661740     1.007825032070
           C         -2.994961264355    -0.253192094635    -0.087874489822    12.000000000000
           H         -1.682446551343     1.244197739196    -0.899395083734     1.007825032070
           H         -1.863650159506     1.327578468136     0.831025297295     1.007825032070
           H         -2.930865079003    -0.933990647267    -0.931471444790     1.007825032070
           H         -3.894033322481     0.342435564254    -0.209886542747     1.007825032070
           H         -3.113485192852    -0.851265251626     0.811075249961     1.007825032070

  Nuclear repulsion =  230.894745941761158

  ==> Basis Set <==

  Basis Set: 6-31G*
    Number of shells: 56
    Number of basis function: 110
    Number of Cartesian functions: 110
    Spherical Harmonics?: false
    Max angular momentum: 2

  ==> DFJKGrad: Density-Fitted SCF Gradients <==

    Gradient:                    1
    J tasked:                  Yes
    K tasked:                  Yes
    wK tasked:                  No
    OpenMP threads:              4
    Integrals threads:           4
    Memory (MB):              1430
    Schwarz Cutoff:          0E+00
    Fitting Condition:       1E-12

   => Auxiliary Basis Set <=

  Basis Set: 
    Number of shells: 234
    Number of basis function: 736
    Number of Cartesian functions: 736
    Spherical Harmonics?: false
    Max angular momentum: 3


  -Total Gradient:
     Atom            X                  Y                   Z
    ------   -----------------  -----------------  -----------------
       1        0.001419404619     0.000038527885    -0.000331793290
       2        0.000473615055    -0.004173525659     0.000608066067
[...]
	 C           3.8498591247       -0.2002588585        0.6243229740
	 C           1.4677391253        1.3647915877        0.4264833376
	 O           4.6637280260       -1.4237502708       -1.0752645209
	 C          -0.8892225006       -0.3231080166        0.2709972567
	 H           1.6108637376        2.5150319200       -1.2666701376
	 H           1.3339442330        2.6290023954        2.0378627606
	 C          -3.3307251243        1.1988034259        0.0016227667
	 H          -0.6760818727       -1.5945910462       -1.3242978886
	 H          -1.0028160163       -1.5017292642        1.9527157783
	 C          -5.6772723839       -0.4767914874       -0.1571046850
	 H          -3.2139578214        2.3735960161       -1.6806705548
	 H          -3.5148878072        2.4846003695        1.5949318407
	 H          -5.5752652965       -1.7420176362       -1.7697016010
	 H          -7.3789949037        0.6512003328       -0.3529657196
	 H          -5.8814048584       -1.6291643340        1.5292844445
	             0.0000011628       -0.0000003408        0.0000010799
	             0.0004038960        0.0005916758       -0.0001484896
	            -0.0003452180       -0.0005527610       -0.0002278114
	            -0.0002528278       -0.0003595134        0.0001430967
	             0.0000048717        0.0000064399       -0.0000021950
	             0.0001940525        0.0003252335        0.0002367919
	             0.0000061156        0.0000001643        0.0000017011
	             0.0000000477       -0.0000055717       -0.0000036315
	            -0.0000035402       -0.0000011557       -0.0000010305
	            -0.0000072258       -0.0000011805       -0.0000029381
	            -0.0000037241        0.0000000779        0.0000043926
	             0.0000010721       -0.0000022913       -0.0000010436
	             0.0000041643       -0.0000004338       -0.0000016806
	             0.0000009787        0.0000018132        0.0000013490
	            -0.0000027651       -0.0000009420        0.0000006832
	            -0.0000010603       -0.0000012146       -0.0000002741

	---Fragment 1 Intrafragment Coordinates---
	 - Coordinate -           - BOHR/RAD -       - ANG/DEG -
	 R(1,2)           =         2.069736	       1.095257
	 R(2,3)           =         2.857100	       1.511912
	 R(2,4)           =         2.246756	       1.188932
	 R(3,5)           =         2.903179	       1.536296
	 R(3,6)           =         2.051903	       1.085820
	 R(3,7)           =         2.052480	       1.086126
	 R(5,8)           =         2.889587	       1.529104
	 R(5,9)           =         2.051113	       1.085402
	 R(5,10)          =         2.056752	       1.088386
	 R(8,11)          =         2.887749	       1.528131
	 R(8,12)          =         2.055209	       1.087570
	 R(8,13)          =         2.055681	       1.087820
	 R(11,14)         =         2.052236	       1.085996
	 R(11,15)         =         2.050996	       1.085341
	 R(11,16)         =         2.052691	       1.086238
	 B(1,2,3)         =         2.037292	     116.728226
	 B(1,2,4)         =         2.094946	     120.031549
	 B(2,3,5)         =         1.941339	     111.230538
	 B(2,3,6)         =         1.881838	     107.821360
	 B(2,3,7)         =         1.914934	     109.717651
	 B(3,2,4)         =         2.150691	     123.225525
	 B(3,5,8)         =         1.965722	     112.627592
	 B(3,5,9)         =         1.894098	     108.523827
	 B(3,5,10)        =         1.911570	     109.524895
	 B(5,3,6)         =         1.915960	     109.776404
	 B(5,3,7)         =         1.925414	     110.318120
	 B(5,8,11)        =         1.967193	     112.711879
	 B(5,8,12)        =         1.906429	     109.230322
	 B(5,8,13)        =         1.910148	     109.443428
	 B(6,3,7)         =         1.882932	     107.884081
	 B(8,5,9)         =         1.919616	     109.985881
	 B(8,5,10)        =         1.908559	     109.352403
	 B(8,11,14)       =         1.939629	     111.132554
	 B(8,11,15)       =         1.939428	     111.121023
	 B(8,11,16)       =         1.940562	     111.186041
	 B(9,5,10)        =         1.861322	     106.645897
	 B(11,8,12)       =         1.910122	     109.441949
	 B(11,8,13)       =         1.910002	     109.435052
	 B(12,8,13)       =         1.856666	     106.379100
	 B(14,11,15)      =         1.881015	     107.774223
	 B(14,11,16)      =         1.880095	     107.721488
	 B(15,11,16)      =         1.880415	     107.739861
	 D(1,2,3,5)       =        -1.888338	    -108.193825
	 D(1,2,3,6)       =         2.293311	     131.397050
	 D(1,2,3,7)       =         0.246907	      14.146725
	 D(2,3,5,8)       =        -3.116308	    -178.551295
	 D(2,3,5,9)       =        -0.986693	     -56.533364
	 D(2,3,5,10)      =         1.038982	      59.529302
	 D(3,5,8,11)      =         3.140185	     179.919325
	 D(3,5,8,12)      =         1.012958	      58.038214
	 D(3,5,8,13)      =        -1.013279	     -58.056601
	 D(4,2,3,5)       =         1.228871	      70.409104
	*D(4,2,3,6)       =        -0.872665	     -50.000022
	 D(4,2,3,7)       =        -2.919069	    -167.250347
	 D(5,8,11,14)     =        -1.043917	     -59.812022
	 D(5,8,11,15)     =        -3.138491	    -179.822272
	 D(5,8,11,16)     =         1.050254	      60.175103
	 D(6,3,5,8)       =        -1.035031	     -59.302936
	 D(6,3,5,9)       =         1.094583	      62.714995
	 D(6,3,5,10)      =         3.120259	     178.777661
	 D(7,3,5,8)       =         1.037703	      59.455999
	 D(7,3,5,9)       =        -3.115868	    -178.526070
	 D(7,3,5,10)      =        -1.090192	     -62.463404
	 D(9,5,8,11)      =         1.025058	      58.731480
	 D(9,5,8,12)      =        -1.102169	     -63.149631
	 D(9,5,8,13)      =        -3.128406	    -179.244446
	 D(10,5,8,11)     =        -1.013403	     -58.063730
	 D(10,5,8,12)     =        -3.140630	    -179.944842
	 D(10,5,8,13)     =         1.116319	      63.960343
	 D(12,8,11,14)    =         1.081221	      61.949419
	 D(12,8,11,15)    =        -1.013353	     -58.060831
	 D(12,8,11,16)    =        -3.107794	    -178.063457
	 D(13,8,11,14)    =         3.109464	     178.159179
	 D(13,8,11,15)    =         1.014890	      58.148929
	 D(13,8,11,16)    =        -1.079551	     -61.853697

	Current energy   :      -270.0185424110

	Energy change for the previous step:
		Projected    :         0.0000000798
		Actual       :        -0.0000000021

	Performing BFGS update.
	Previous computed or guess Hessian on step 1.
	Denominators (dg)(dq) or (dq)(dq) are very small.
	 Skipping Hessian update for step 7.
	Steps to be used in Hessian update: 6 5
	Taking RFO optimization step.
	Going to follow RFO solution 1.
	Using RFO vector 1.
	Norm of target step-size    0.00708
	Projected energy change by RFO approximation:        -0.0000002222

	Back-transformation to cartesian coordinates...
	Successfully converged to displaced geometry.

	Back-transformation to cartesian coordinates to adjust frozen coordinates...
	Successfully converged to displaced geometry.

	--- Internal Coordinate Step in ANG or DEG, aJ/ANG or AJ/DEG ---
	 ---------------------------------------------------------------------------
	   Coordinate                Previous        Force       Change         New 
	   ----------                --------       ------       ------       ------
	    1 R(1,2)          =      1.095257    -0.000012    -0.000003     1.095254
	    2 R(2,3)          =      1.511912     0.000003     0.000003     1.511915
	    3 R(2,4)          =      1.188932     0.000033     0.000002     1.188934
	    4 R(3,5)          =      1.536296    -0.000072    -0.000014     1.536283
	    5 R(3,6)          =      1.085820    -0.000004     0.000001     1.085821
	    6 R(3,7)          =      1.086126    -0.000009    -0.000004     1.086122
	    7 R(5,8)          =      1.529104     0.000028     0.000005     1.529108
	    8 R(5,9)          =      1.085402    -0.000009    -0.000003     1.085399
	    9 R(5,10)         =      1.088386     0.000011     0.000002     1.088389
	   10 R(8,11)         =      1.528131    -0.000042    -0.000008     1.528123
	   11 R(8,12)         =      1.087570     0.000003     0.000001     1.087571
	   12 R(8,13)         =      1.087820     0.000016     0.000003     1.087822
	   13 R(11,14)        =      1.085996     0.000018     0.000003     1.085999
	   14 R(11,15)        =      1.085341    -0.000014    -0.000002     1.085338
	   15 R(11,16)        =      1.086238    -0.000005    -0.000001     1.086237
	   16 B(1,2,3)        =    116.728226    -0.000000     0.000227   116.728454
	   17 B(1,2,4)        =    120.031549    -0.000000    -0.000269   120.031280
	   18 B(2,3,5)        =    111.230538    -0.000000    -0.002250   111.228288
	   19 B(2,3,6)        =    107.821360     0.000000    -0.000055   107.821305
	   20 B(2,3,7)        =    109.717651     0.000000     0.004616   109.722267
	   21 B(3,2,4)        =    123.225525     0.000000     0.000004   123.225530
	   22 B(3,5,8)        =    112.627592    -0.000000    -0.001280   112.626312
	   23 B(3,5,9)        =    108.523827    -0.000000    -0.004301   108.519526
	   24 B(3,5,10)       =    109.524895    -0.000000    -0.000357   109.524538
	   25 B(5,3,6)        =    109.776404     0.000000    -0.001645   109.774758
	   26 B(5,3,7)        =    110.318120    -0.000000    -0.000947   110.317172
	   27 B(5,8,11)       =    112.711879    -0.000000    -0.001318   112.710561
	   28 B(5,8,12)       =    109.230322     0.000000    -0.000077   109.230245
	   29 B(5,8,13)       =    109.443428     0.000000     0.002847   109.446275
	   30 B(6,3,7)        =    107.884081    -0.000000     0.000381   107.884463
	   31 B(8,5,9)        =    109.985881     0.000000     0.000987   109.986868
	   32 B(8,5,10)       =    109.352403     0.000000     0.004053   109.356455
	   33 B(8,11,14)      =    111.132554     0.000000     0.001117   111.133670
	   34 B(8,11,15)      =    111.121023    -0.000000    -0.001312   111.119711
	   35 B(8,11,16)      =    111.186041    -0.000000    -0.000642   111.185399
	   36 B(9,5,10)       =    106.645897     0.000000     0.000959   106.646857
	   37 B(11,8,12)      =    109.441949    -0.000000    -0.002049   109.439900
	   38 B(11,8,13)      =    109.435052     0.000000     0.000890   109.435943
	   39 B(12,8,13)      =    106.379100    -0.000000    -0.000235   106.378865
	   40 B(14,11,15)     =    107.774223     0.000000     0.000074   107.774296
	   41 B(14,11,16)     =    107.721488     0.000000     0.000370   107.721858
	   42 B(15,11,16)     =    107.739861     0.000000     0.000444   107.740305
	   43 D(1,2,3,5)      =   -108.193825     0.000000    -0.001619  -108.195444
	   44 D(1,2,3,6)      =    131.397050     0.000000     0.001791   131.398840
	   45 D(1,2,3,7)      =     14.146725    -0.000000    -0.001155    14.145570
	   46 D(2,3,5,8)      =   -178.551295     0.000000    -0.030576  -178.581871
	   47 D(2,3,5,9)      =    -56.533364     0.000000    -0.033181   -56.566545
	   48 D(2,3,5,10)     =     59.529302    -0.000000    -0.034633    59.494668
	   49 D(3,5,8,11)     =    179.919325    -0.000000    -0.134170   179.785156
	   50 D(3,5,8,12)     =     58.038214    -0.000000    -0.130618    57.907596
	   51 D(3,5,8,13)     =    -58.056601    -0.000000    -0.131891   -58.188492
	   52 D(4,2,3,5)      =     70.409104    -0.000000    -0.003409    70.405694
	   53 *D(4,2,3,6)     =    -50.000022     0.000000     0.000000   -50.000022
	   54 D(4,2,3,7)      =   -167.250347    -0.000000    -0.002946  -167.253292
	   55 D(5,8,11,14)    =    -59.812022     0.000000     0.015319   -59.796703
	   56 D(5,8,11,15)    =   -179.822272     0.000000     0.015357  -179.806915
	   57 D(5,8,11,16)    =     60.175103     0.000000     0.016106    60.191209
	   58 D(6,3,5,8)      =    -59.302936     0.000000    -0.033124   -59.336060
	   59 D(6,3,5,9)      =     62.714995     0.000000    -0.035729    62.679266
	   60 D(6,3,5,10)     =    178.777661    -0.000000    -0.037182   178.740479
	   61 D(7,3,5,8)      =     59.455999    -0.000000    -0.034256    59.421744
	   62 D(7,3,5,9)      =   -178.526070    -0.000000    -0.036861  -178.562930
	   63 D(7,3,5,10)     =    -62.463404    -0.000000    -0.038313   -62.501717
	   64 D(9,5,8,11)     =     58.731480    -0.000000    -0.128505    58.602975
	   65 D(9,5,8,12)     =    -63.149631     0.000000    -0.124954   -63.274585
	   66 D(9,5,8,13)     =   -179.244446     0.000000    -0.126227  -179.370673
	   67 D(10,5,8,11)    =    -58.063730    -0.000000    -0.132607   -58.196337
	   68 D(10,5,8,12)    =   -179.944842    -0.000000    -0.129055  -180.073897
	   69 D(10,5,8,13)    =     63.960343    -0.000000    -0.130328    63.830015
	   70 D(12,8,11,14)   =     61.949419     0.000000     0.012875    61.962294
	   71 D(12,8,11,15)   =    -58.060831     0.000000     0.012913   -58.047918
	   72 D(12,8,11,16)   =   -178.063457     0.000000     0.013662  -178.049794
	   73 D(13,8,11,14)   =    178.159179    -0.000000     0.011936   178.171115
	   74 D(13,8,11,15)   =     58.148929    -0.000000     0.011975    58.160903
	   75 D(13,8,11,16)   =    -61.853697    -0.000000     0.012723   -61.840973
	 ---------------------------------------------------------------------------

  ==> Convergence Check <==

  Measures of convergence in internal coordinates in au.
  Criteria marked as inactive (o), active & met (*), and active & unmet ( ).
  ---------------------------------------------------------------------------------------------
   Step     Total Energy     Delta E     MAX Force     RMS Force      MAX Disp      RMS Disp   
  ---------------------------------------------------------------------------------------------
    Convergence Criteria    1.00e-06 *    3.00e-04 *             o    1.20e-03 *             o
  ---------------------------------------------------------------------------------------------
      8    -270.01854241   -2.07e-09 *    8.77e-06 *    2.73e-06 o    2.34e-03      8.18e-04 o  ~
  ---------------------------------------------------------------------------------------------


  **** Optimization is complete! (in 8 steps) ****

  ==> Optimization Summary <==

  Measures of convergence in internal coordinates in au.
  --------------------------------------------------------------------------------------------------------------- ~
   Step         Total Energy             Delta E       MAX Force       RMS Force        MAX Disp        RMS Disp  ~
  --------------------------------------------------------------------------------------------------------------- ~
      1    -270.018131145265   -270.018131145265      0.00439271      0.00108344      0.17272864      0.03914307  ~
      2    -270.017570469141      0.000560676125      0.00569241      0.00112760      0.18414911      0.03517924  ~
      3    -270.018384553291     -0.000814084150      0.00305969      0.00071395      0.07684028      0.02291297  ~
      4    -270.018529566929     -0.000145013639      0.00047393      0.00009679      0.13105469      0.04172215  ~
      5    -270.018348043308      0.000181523621      0.00242704      0.00052728      0.09358067      0.02894714  ~
      6    -270.018541233105     -0.000193189796      0.00005601      0.00001712      0.00938483      0.00317842  ~
      7    -270.018542408895     -0.000001175791      0.00004672      0.00000767      0.00134641      0.00046195  ~
      8    -270.018542410963     -0.000000002068      0.00000877      0.00000273      0.00234170      0.00081752  ~
  --------------------------------------------------------------------------------------------------------------- ~

	Writing optimization data to binary file.
	Final energy is   -270.0185424109632
	Final (previous) structure:
	Cartesian Geometry (in Angstrom)
	    H     2.5456728632  -0.1087729807   1.3004780907
	    C     2.0372578606  -0.1059724318   0.3303775139
	    C     0.7766941526   0.7222166578   0.2256852794
	    O     2.4679387669  -0.7534162516  -0.5690055211
	    C    -0.4705563166  -0.1709814113   0.1434055828
	    H     0.8524324412   1.3308976726  -0.6702930188
	    H     0.7058929395   1.3912082552   1.0783906095
	    C    -1.7625439585   0.6343794990   0.0008587312
	    H    -0.3577671455  -0.8438213031  -0.7007883136
	    H    -0.5306674208  -0.7946809607   1.0333327637
	    C    -3.0042833820  -0.2523072076  -0.0831362250
	    H    -1.7007533583   1.2560530100  -0.8893726207
	    H    -1.8599986604   1.3147939884   0.8440016438
	    H    -2.9503035520  -0.9218361004  -0.9364858247
	    H    -3.9047962235   0.3446004007  -0.1867814285
	    H    -3.1123056432  -0.8621167004   0.8092625353
	Saving final (previous) structure.
			--------------------------
			 OPTKING Finished Execution 
			--------------------------

    Final optimized geometry and variables:
    Molecular point group: c1
    Full point group: C1

    Geometry (in Angstrom), charge = 0, multiplicity = 1:

    H            2.545672668840    -0.108772972347     1.300477991423
    C            2.037257705063    -0.105972423739     0.330377488638
    C            0.776694093273     0.722216602691     0.225685262124
    O            2.467938578413    -0.753416194026    -0.569005477645
    C           -0.470556280683    -0.170981398276     0.143405571849
    H            0.852432376059     1.330897570932    -0.670292967610
    H            0.705892885614     1.391208148996     1.078390527161
    C           -1.762543823869     0.634379450544     0.000858731164
    H           -0.357767118167    -0.843821238682    -0.700788260056
    H           -0.530667380242    -0.794680900065     1.033332684753
    C           -3.004283152536    -0.252307188373    -0.083136218645
    H           -1.700753228440     1.256052914114    -0.889372552766
    H           -1.859998518329     1.314793887994     0.844001579365
    H           -2.950303326733    -0.921836030047    -0.936485753230
    H           -3.904795925342     0.344600374354    -0.186781414216
    H           -3.112305405537    -0.862116634583     0.809262473473

	Cleaning optimization helper files.


Properties will be evaluated at   0.000000,   0.000000,   0.000000 Bohr

Properties computed using the  density matrix

  Nuclear Dipole Moment: (a.u.)
     X:    -9.6559      Y:     1.9710      Z:     1.5738

  Electronic Dipole Moment: (a.u.)
     X:     9.0012      Y:    -1.3410      Z:    -0.8634

  Dipole Moment: (a.u.)
     X:    -0.6547      Y:     0.6300      Z:     0.7105     Total:     1.1534

  Dipole Moment: (Debye)
     X:    -1.6640      Y:     1.6012      Z:     1.8059     Total:     2.9315

  Quadrupole Moment: (Debye Ang)
    XX:   -43.9069     YY:   -39.4658     ZZ:   -38.1389
    XY:     3.9311     XZ:     4.6296     YZ:    -1.2775

  Traceless Quadrupole Moment: (Debye Ang)
    XX:    -3.4031     YY:     1.0381     ZZ:     2.3650
    XY:     3.9311     XZ:     4.6296     YZ:    -1.2775

  Mulliken Charges: (a.u.)
   Center  Symbol    Alpha    Beta     Spin     Total
       1     H     0.42752  0.42752  0.00000  0.14495
       2     C     2.84280  2.84280  0.00000  0.31440
       3     C     3.20054  3.20054  0.00000 -0.40108
       4     O     4.23666  4.23666  0.00000 -0.47333
       5     C     3.15943  3.15943  0.00000 -0.31885
       6     H     0.40069  0.40069  0.00000  0.19862
       7     H     0.41652  0.41652  0.00000  0.16695
       8     C     3.15252  3.15252  0.00000 -0.30504
       9     H     0.40544  0.40544  0.00000  0.18912
      10     H     0.41928  0.41928  0.00000  0.16144
      11     C     3.24042  3.24042  0.00000 -0.48083
      12     H     0.41962  0.41962  0.00000  0.16077
      13     H     0.42197  0.42197  0.00000  0.15606
      14     H     0.41867  0.41867  0.00000  0.16267
      15     H     0.41729  0.41729  0.00000  0.16541
      16     H     0.42063  0.42063  0.00000  0.15874

   Total alpha = 24.00000, Total beta = 24.00000, Total charge =  0.00000


*** PSI4 exiting successfully. Buy a developer a beer!
