    -----------------------------------------------------------------------
          Psi4: An Open-Source Ab Initio Electronic Structure Package
                              Psi4 (no tag) Driver

                          Git: Rev {detached?}  

    J. M. Turney, A. C. Simmonett, R. M. Parrish, E. G. Hohenstein,
    F. A. Evangelista, J. T. Fermann, B. J. Mintz, L. A. Burns, J. J. Wilke,
    M. L. Abrams, N. J. Russ, M. L. Leininger, C. L. Janssen, E. T. Seidl,
    W. D. Allen, H. F. Schaefer, R. A. King, E. F. Valeev, C. D. Sherrill,
    and T. D. Crawford, WIREs Comput. Mol. Sci. 2, 556-565 (2012)
    (doi: 10.1002/wcms.93)

                         Additional Contributions by
    A. E. DePrince, M. Saitow, U. Bozkaya, A. Yu. Sokolov
    -----------------------------------------------------------------------


    Psi4 started on: Thu Sep  1 22:14:09 2016

    Process ID:  14135
    PSI4DATADIR: /export131/home/mjharvey/miniconda3/share
    Memory level set to 256.000 MB

  ==> Input File <==

--------------------------------------------------------------------------
set {
	reference rhf
	basis 6-31G*
}


set_num_threads( 1 )
memory 2 gb

molecule MOL {
0 1

H	 2.791914	 -0.368624	 -1.016827
N	 2.434251	 -0.367735	 -0.081097
C	 1.267428	 0.496480	 0.024474
H	 3.172113	 -0.035289	 0.510472
C	 -0.016086	 -0.325158	 -0.029487
H	 1.288818	 1.183521	 -0.816092
H	 1.267576	 1.109062	 0.929528
C	 -1.282277	 0.529072	 0.046735
H	 -0.012495	 -0.908639	 -0.945788
H	 -0.015903	 -1.041248	 0.791956
C	 -2.563920	 -0.301775	 -0.006060
H	 -1.284084	 1.244622	 -0.773004
H	 -1.271387	 1.115393	 0.963286
H	 -2.621848	 -0.873522	 -0.927727
H	 -3.445135	 0.329952	 0.047812
H	 -2.609542	 -1.004582	 0.821105

	symmetry c1
}
set optking {
	frozen_dihedral = ("
		6 3 5 9,
		12 8 5 9
	")
}

ee = energy('scf')
oeprop('DIPOLE', 'QUADRUPOLE', 'MULLIKEN_CHARGES')
f=open( 'psi4out.xyz', 'w' )
f.write( "16  " )
f.write( str(ee) + "\n" )
f.write( MOL.save_string_xyz() )
f.close()
--------------------------------------------------------------------------

  Memory set to   2.000 GiB by Python script.

*** tstart() called on cx1-3-6-1.cx1.hpc.ic.ac.uk
*** at Thu Sep  1 22:14:10 2016


         ---------------------------------------------------------
                                   SCF
            by Justin Turney, Rob Parrish, and Andy Simmonett
                              RHF Reference
                        1 Threads,   2000 MiB Core
         ---------------------------------------------------------

  ==> Geometry <==

    Molecular point group: c1
    Full point group: C1

    Geometry (in Angstrom), charge = 0, multiplicity = 1:

       Center              X                  Y                   Z               Mass       
    ------------   -----------------  -----------------  -----------------  -----------------
           H          2.789351054279    -0.373967165344    -1.001418531384     1.007825032070
           N          2.431688054279    -0.373078165344    -0.065688531384    14.003074004780
           C          1.264865054279     0.491136834656     0.039882468616    12.000000000000
           H          3.169550054279    -0.040632165344     0.525880468616     1.007825032070
           C         -0.018648945721    -0.330501165344    -0.014078531384    12.000000000000
           H          1.286255054279     1.178177834656    -0.800683531384     1.007825032070
           H          1.265013054279     1.103718834656     0.944936468616     1.007825032070
           C         -1.284839945721     0.523728834656     0.062143468616    12.000000000000
           H         -0.015057945721    -0.913982165344    -0.930379531384     1.007825032070
           H         -0.018465945721    -1.046591165344     0.807364468616     1.007825032070
           C         -2.566482945721    -0.307118165344     0.009348468616    12.000000000000
           H         -1.286646945721     1.239278834656    -0.757595531384     1.007825032070
           H         -1.273949945721     1.110049834656     0.978694468616     1.007825032070
           H         -2.624410945721    -0.878865165344    -0.912318531384     1.007825032070
           H         -3.447697945721     0.324608834656     0.063220468616     1.007825032070
           H         -2.612104945721    -1.009925165344     0.836513468616     1.007825032070

  Running in c1 symmetry.

  Rotational constants: A =      0.61290  B =      0.06519  C =      0.06210 [cm^-1]
  Rotational constants: A =  18374.18940  B =   1954.24902  C =   1861.69875 [MHz]
  Nuclear repulsion =  186.102566279407313

  Charge       = 0
  Multiplicity = 1
  Electrons    = 42
  Nalpha       = 21
  Nbeta        = 21

  ==> Algorithm <==

  SCF Algorithm Type is DF.
  DIIS enabled.
  MOM disabled.
  Fractional occupation disabled.
  Guess Type is CORE.
  Energy threshold   = 1.00e-06
  Density threshold  = 1.00e-06
  Integral threshold = 0.00e+00

  ==> Primary Basis <==

  Basis Set: 6-31G*
    Number of shells: 52
    Number of basis function: 97
    Number of Cartesian functions: 97
    Spherical Harmonics?: false
    Max angular momentum: 2

  ==> Pre-Iterations <==

   -------------------------------------------------------
    Irrep   Nso     Nmo     Nalpha   Nbeta   Ndocc  Nsocc
   -------------------------------------------------------
     A         97      97       0       0       0       0
   -------------------------------------------------------
    Total      97      97      21      21      21       0
   -------------------------------------------------------

 OEINTS: Overlap, kinetic, potential, dipole, and quadrupole integrals
         stored in file 35.

  ==> Integral Setup <==

  ==> DFJK: Density-Fitted J/K Matrices <==

    J tasked:                  Yes
    K tasked:                  Yes
    wK tasked:                  No
    OpenMP threads:              1
    Integrals threads:           1
    Memory (MB):              1430
    Algorithm:                Core
    Integral Cache:           NONE
    Schwarz Cutoff:          1E-12
    Fitting Condition:       1E-12

   => Auxiliary Basis Set <=

  Basis Set: 
    Number of shells: 219
    Number of basis function: 680
    Number of Cartesian functions: 680
    Spherical Harmonics?: false
    Max angular momentum: 3

  Minimum eigenvalue in the overlap matrix is 3.6302574958E-03.
  Using Symmetric Orthogonalization.
  SCF Guess: Core (One-Electron) Hamiltonian.

  ==> Iterations <==

                           Total Energy        Delta E     RMS |[F,P]|

   @DF-RHF iter   1:  -160.56141239714782   -1.60561e+02   7.86390e-02 
   @DF-RHF iter   2:   -84.68837745937907    7.58730e+01   9.35014e-02 DIIS
   @DF-RHF iter   3:  -174.99517920846932   -9.03068e+01   4.34272e-02 DIIS
   @DF-RHF iter   4:  -142.22570899045911    3.27695e+01   7.68045e-02 DIIS
   @DF-RHF iter   5:  -179.50603045707601   -3.72803e+01   5.27763e-02 DIIS
   @DF-RHF iter   6:  -209.34373457198990   -2.98377e+01   1.76875e-02 DIIS
   @DF-RHF iter   7:  -212.17037756408860   -2.82664e+00   4.76684e-03 DIIS
   @DF-RHF iter   8:  -212.28629727997009   -1.15920e-01   2.21704e-03 DIIS
   @DF-RHF iter   9:  -212.30826826887557   -2.19710e-02   7.49976e-04 DIIS
   @DF-RHF iter  10:  -212.31242623243639   -4.15796e-03   3.06398e-04 DIIS
   @DF-RHF iter  11:  -212.31309002394045   -6.63792e-04   9.78484e-05 DIIS
   @DF-RHF iter  12:  -212.31315810935325   -6.80854e-05   2.75270e-05 DIIS
   @DF-RHF iter  13:  -212.31316357605783   -5.46670e-06   7.02953e-06 DIIS
   @DF-RHF iter  14:  -212.31316399667486   -4.20617e-07   1.51527e-06 DIIS
   @DF-RHF iter  15:  -212.31316402076288   -2.40880e-08   5.22875e-07 DIIS

  ==> Post-Iterations <==

    Orbital Energies (a.u.)
    -----------------------

    Doubly Occupied:                                                      

       1A    -15.531515     2A    -11.240306     3A    -11.211804  
       4A    -11.205671     5A    -11.203526     6A     -1.176291  
       7A     -1.056824     8A     -0.956922     9A     -0.841670  
      10A     -0.786790    11A     -0.674381    12A     -0.623405  
      13A     -0.609664    14A     -0.576442    15A     -0.553742  
      16A     -0.531296    17A     -0.491970    18A     -0.472199  
      19A     -0.464954    20A     -0.457455    21A     -0.377255  

    Virtual:                                                              

      22A      0.223689    23A      0.243146    24A      0.269648  
      25A      0.282106    26A      0.301643    27A      0.309800  
      28A      0.333964    29A      0.347569    30A      0.352395  
      31A      0.361836    32A      0.387136    33A      0.395238  
      34A      0.434343    35A      0.450731    36A      0.494437  
      37A      0.713645    38A      0.736825    39A      0.755855  
      40A      0.760253    41A      0.777346    42A      0.847571  
      43A      0.875139    44A      0.929080    45A      0.965170  
      46A      1.013195    47A      1.020535    48A      1.039344  
      49A      1.072776    50A      1.108395    51A      1.140068  
      52A      1.160397    53A      1.178954    54A      1.196590  
      55A      1.204714    56A      1.205459    57A      1.224942  
      58A      1.227826    59A      1.236672    60A      1.257780  
      61A      1.271851    62A      1.280088    63A      1.339697  
      64A      1.575680    65A      1.649357    66A      1.691494  
      67A      1.724761    68A      1.739245    69A      1.858470  
      70A      1.963700    71A      2.067231    72A      2.086654  
      73A      2.221234    74A      2.232171    75A      2.280005  
      76A      2.311523    77A      2.346942    78A      2.360721  
      79A      2.388492    80A      2.472501    81A      2.529017  
      82A      2.579833    83A      2.629991    84A      2.652113  
      85A      2.713985    86A      2.772146    87A      2.796971  
      88A      2.915174    89A      2.937217    90A      2.980605  
      91A      3.129263    92A      3.169681    93A      4.226927  
      94A      4.588621    95A      4.708849    96A      4.818018  
      97A      4.966769  

    Final Occupation by Irrep:
              A 
    DOCC [    21 ]

  Energy converged.

  @DF-RHF Final Energy:  -212.31316402076288

   => Energetics <=

    Nuclear Repulsion Energy =            186.1025662794073128
    One-Electron Energy =                -654.7432393037781821
    Two-Electron Energy =                 256.3275090036074175
    DFT Exchange-Correlation Energy =       0.0000000000000000
    Empirical Dispersion Energy =           0.0000000000000000
    PCM Polarization Energy =               0.0000000000000000
    EFP Energy =                            0.0000000000000000
    Total Energy =                       -212.3131640207634518

    Alert: EFP and PCM quantities not currently incorporated into SCF psivars.

Properties will be evaluated at   0.000000,   0.000000,   0.000000 Bohr
  ==> Properties <==


Properties computed using the SCF density matrix

  Nuclear Dipole Moment: (a.u.)
     X:    -2.6021      Y:     0.6497      Z:    -0.2302

  Electronic Dipole Moment: (a.u.)
     X:     2.8441      Y:    -0.1140      Z:     0.0759

  Dipole Moment: (a.u.)
     X:     0.2420      Y:     0.5357      Z:    -0.1543     Total:     0.6078

  Dipole Moment: (Debye)
     X:     0.6150      Y:     1.3617      Z:    -0.3923     Total:     1.5448


  Saving occupied orbitals to File 180.

*** tstop() called on cx1-3-6-1.cx1.hpc.ic.ac.uk at Thu Sep  1 22:14:16 2016
Module time:
	user time   =       5.97 seconds =       0.10 minutes
	system time =       0.03 seconds =       0.00 minutes
	total time  =          6 seconds =       0.10 minutes
Total time:
	user time   =       5.97 seconds =       0.10 minutes
	system time =       0.03 seconds =       0.00 minutes
	total time  =          6 seconds =       0.10 minutes


Properties will be evaluated at   0.000000,   0.000000,   0.000000 Bohr

Properties computed using the  density matrix

  Nuclear Dipole Moment: (a.u.)
     X:    -2.6021      Y:     0.6497      Z:    -0.2302

  Electronic Dipole Moment: (a.u.)
     X:     2.8441      Y:    -0.1140      Z:     0.0759

  Dipole Moment: (a.u.)
     X:     0.2420      Y:     0.5357      Z:    -0.1543     Total:     0.6078

  Dipole Moment: (Debye)
     X:     0.6150      Y:     1.3617      Z:    -0.3923     Total:     1.5448

  Quadrupole Moment: (Debye Ang)
    XX:   -31.2805     YY:   -36.4928     ZZ:   -32.3215
    XY:     2.9989     XZ:    -1.0895     YZ:     0.7158

  Traceless Quadrupole Moment: (Debye Ang)
    XX:     2.0845     YY:    -3.1279     ZZ:     1.0434
    XY:     2.9989     XZ:    -1.0895     YZ:     0.7158

  Mulliken Charges: (a.u.)
   Center  Symbol    Alpha    Beta     Spin     Total
       1     H     0.33227  0.33227  0.00000  0.33545
       2     N     3.92305  3.92305  0.00000 -0.84610
       3     C     3.06954  3.06954  0.00000 -0.13908
       4     H     0.33216  0.33216  0.00000  0.33567
       5     C     3.13875  3.13875  0.00000 -0.27750
       6     H     0.43036  0.43036  0.00000  0.13928
       7     H     0.42260  0.42260  0.00000  0.15480
       8     C     3.15731  3.15731  0.00000 -0.31462
       9     H     0.42424  0.42424  0.00000  0.15152
      10     H     0.41867  0.41867  0.00000  0.16266
      11     C     3.23805  3.23805  0.00000 -0.47610
      12     H     0.42501  0.42501  0.00000  0.14998
      13     H     0.42463  0.42463  0.00000  0.15074
      14     H     0.42167  0.42167  0.00000  0.15666
      15     H     0.42050  0.42050  0.00000  0.15900
      16     H     0.42119  0.42119  0.00000  0.15762

   Total alpha = 21.00000, Total beta = 21.00000, Total charge =  0.00000


*** PSI4 exiting successfully. Buy a developer a beer!
