    -----------------------------------------------------------------------
          Psi4: An Open-Source Ab Initio Electronic Structure Package
                              Psi4 (no tag) Driver

                          Git: Rev {detached?}  

    J. M. Turney, A. C. Simmonett, R. M. Parrish, E. G. Hohenstein,
    F. A. Evangelista, J. T. Fermann, B. J. Mintz, L. A. Burns, J. J. Wilke,
    M. L. Abrams, N. J. Russ, M. L. Leininger, C. L. Janssen, E. T. Seidl,
    W. D. Allen, H. F. Schaefer, R. A. King, E. F. Valeev, C. D. Sherrill,
    and T. D. Crawford, WIREs Comput. Mol. Sci. 2, 556-565 (2012)
    (doi: 10.1002/wcms.93)

                         Additional Contributions by
    A. E. DePrince, M. Saitow, U. Bozkaya, A. Yu. Sokolov
    -----------------------------------------------------------------------


    Psi4 started on: Thu Sep  1 22:56:34 2016

    Process ID:   8600
    PSI4DATADIR: /export131/home/mjharvey/miniconda3/share
    Memory level set to 256.000 MB

  ==> Input File <==

--------------------------------------------------------------------------
set {
	reference rhf
	basis 6-31G*
}


set_num_threads( 1 )
memory 2 gb

molecule MOL {
0 1

H	 -3.420663	 1.227371	 -1.044276
O	 -3.452007	 0.283848	 -0.965577
C	 -3.181085	 -0.079926	 0.364119
C	 -1.765924	 0.277073	 0.805136
H	 -3.327791	 -1.152017	 0.410903
H	 -3.905698	 0.375695	 1.036898
C	 -0.677594	 -0.417312	 -0.014550
H	 -1.637766	 1.358238	 0.744969
H	 -1.659588	 0.017670	 1.857098
C	 0.135867	 0.551520	 -0.875261
H	 -1.134414	 -1.173380	 -0.645728
H	 -0.009029	 -0.947698	 0.661545
C	 1.227113	 -0.150084	 -1.688292
H	 -0.538538	 1.084790	 -1.541009
H	 0.594266	 1.305765	 -0.236833
C	 2.127047	 0.789364	 -2.499287
H	 0.766535	 -0.873187	 -2.359623
H	 1.852487	 -0.724600	 -1.008104
C	 1.413971	 1.535015	 -3.628859
H	 2.938693	 0.205080	 -2.926059
H	 2.592395	 1.509180	 -1.828826
H	 0.928105	 0.840301	 -4.308891
H	 2.119259	 2.123564	 -4.207666
H	 0.656213	 2.214313	 -3.252666

	symmetry c1
}
set optking {
	frozen_dihedral = ("
		20 16 13 17,
		17 13 10 7,
		13 10 7 11,
		1 2 3 5,
		7 4 3 2
	")
}

ee = energy('scf')
oeprop('DIPOLE', 'QUADRUPOLE', 'MULLIKEN_CHARGES')
f=open( 'psi4out.xyz', 'w' )
f.write( "24  " )
f.write( str(ee) + "\n" )
f.write( MOL.save_string_xyz() )
f.close()
--------------------------------------------------------------------------

  Memory set to   2.000 GiB by Python script.

*** tstart() called on cx1-3-15-4.cx1.hpc.ic.ac.uk
*** at Thu Sep  1 22:56:34 2016


         ---------------------------------------------------------
                                   SCF
            by Justin Turney, Rob Parrish, and Andy Simmonett
                              RHF Reference
                        1 Threads,   2000 MiB Core
         ---------------------------------------------------------

  ==> Geometry <==

    Molecular point group: c1
    Full point group: C1

    Geometry (in Angstrom), charge = 0, multiplicity = 1:

       Center              X                  Y                   Z               Mass       
    ------------   -----------------  -----------------  -----------------  -----------------
           H         -2.843051807829     0.865187023916     0.029460801124     1.007825032070
           O         -2.874395807829    -0.078335976084     0.108159801124    15.994914619560
           C         -2.603473807829    -0.442109976084     1.437855801124    12.000000000000
           C         -1.188312807829    -0.085110976084     1.878872801124    12.000000000000
           H         -2.750179807829    -1.514200976084     1.484639801124     1.007825032070
           H         -3.328086807829     0.013511023916     2.110634801124     1.007825032070
           C         -0.099982807829    -0.779495976084     1.059186801124    12.000000000000
           H         -1.060154807829     0.996054023916     1.818705801124     1.007825032070
           H         -1.081976807829    -0.344513976084     2.930834801124     1.007825032070
           C          0.713478192171     0.189336023916     0.198475801124    12.000000000000
           H         -0.556802807829    -1.535563976084     0.428008801124     1.007825032070
           H          0.568582192171    -1.309881976084     1.735281801124     1.007825032070
           C          1.804724192171    -0.512267976084    -0.614555198876    12.000000000000
           H          0.039073192171     0.722606023916    -0.467272198876     1.007825032070
           H          1.171877192171     0.943581023916     0.836903801124     1.007825032070
           C          2.704658192171     0.427180023916    -1.425550198876    12.000000000000
           H          1.344146192171    -1.235370976084    -1.285886198876     1.007825032070
           H          2.430098192171    -1.086783976084     0.065632801124     1.007825032070
           C          1.991582192171     1.172831023916    -2.555122198876    12.000000000000
           H          3.516304192171    -0.157103976084    -1.852322198876     1.007825032070
           H          3.170006192171     1.146996023916    -0.755089198876     1.007825032070
           H          1.505716192171     0.478117023916    -3.235154198876     1.007825032070
           H          2.696870192171     1.761380023916    -3.133929198876     1.007825032070
           H          1.233824192171     1.852129023916    -2.178929198876     1.007825032070

  Running in c1 symmetry.

  Rotational constants: A =      0.12490  B =      0.02515  C =      0.02240 [cm^-1]
  Rotational constants: A =   3744.45115  B =    754.02825  C =    671.43099 [MHz]
  Nuclear repulsion =  391.371537055885824

  Charge       = 0
  Multiplicity = 1
  Electrons    = 66
  Nalpha       = 33
  Nbeta        = 33

  ==> Algorithm <==

  SCF Algorithm Type is DF.
  DIIS enabled.
  MOM disabled.
  Fractional occupation disabled.
  Guess Type is CORE.
  Energy threshold   = 1.00e-06
  Density threshold  = 1.00e-06
  Integral threshold = 0.00e+00

  ==> Primary Basis <==

  Basis Set: 6-31G*
    Number of shells: 80
    Number of basis function: 152
    Number of Cartesian functions: 152
    Spherical Harmonics?: false
    Max angular momentum: 2

  ==> Pre-Iterations <==

   -------------------------------------------------------
    Irrep   Nso     Nmo     Nalpha   Nbeta   Ndocc  Nsocc
   -------------------------------------------------------
     A        152     152       0       0       0       0
   -------------------------------------------------------
    Total     152     152      33      33      33       0
   -------------------------------------------------------

 OEINTS: Overlap, kinetic, potential, dipole, and quadrupole integrals
         stored in file 35.

  ==> Integral Setup <==

  ==> DFJK: Density-Fitted J/K Matrices <==

    J tasked:                  Yes
    K tasked:                  Yes
    wK tasked:                  No
    OpenMP threads:              1
    Integrals threads:           1
    Memory (MB):              1430
    Algorithm:                Core
    Integral Cache:           NONE
    Schwarz Cutoff:          1E-12
    Fitting Condition:       1E-12

   => Auxiliary Basis Set <=

  Basis Set: 
    Number of shells: 336
    Number of basis function: 1048
    Number of Cartesian functions: 1048
    Spherical Harmonics?: false
    Max angular momentum: 3

  Minimum eigenvalue in the overlap matrix is 3.3980639391E-03.
  Using Symmetric Orthogonalization.
  SCF Guess: Core (One-Electron) Hamiltonian.

  ==> Iterations <==

                           Total Energy        Delta E     RMS |[F,P]|

   @DF-RHF iter   1:  -266.42882325733592   -2.66429e+02   6.17173e-02 
   @DF-RHF iter   2:   -70.77371945681114    1.95655e+02   7.62481e-02 DIIS
   @DF-RHF iter   3:  -231.54816750855855   -1.60774e+02   5.15662e-02 DIIS
   @DF-RHF iter   4:  -224.02119443613503    7.52697e+00   6.24156e-02 DIIS
   @DF-RHF iter   5:  -345.17773482795781   -1.21157e+02   1.41142e-02 DIIS
   @DF-RHF iter   6:  -347.94591654030035   -2.76818e+00   1.12007e-02 DIIS
   @DF-RHF iter   7:  -349.18175012847894   -1.23583e+00   1.94406e-03 DIIS
   @DF-RHF iter   8:  -349.23694415180375   -5.51940e-02   6.28632e-04 DIIS
   @DF-RHF iter   9:  -349.24214476869588   -5.20062e-03   1.81481e-04 DIIS
   @DF-RHF iter  10:  -349.24268753511194   -5.42766e-04   5.64643e-05 DIIS
   @DF-RHF iter  11:  -349.24275889338230   -7.13583e-05   1.56571e-05 DIIS
   @DF-RHF iter  12:  -349.24276483389906   -5.94052e-06   4.43552e-06 DIIS
   @DF-RHF iter  13:  -349.24276528818598   -4.54287e-07   1.44826e-06 DIIS
   @DF-RHF iter  14:  -349.24276533918930   -5.10033e-08   3.37268e-07 DIIS

  ==> Post-Iterations <==

    Orbital Energies (a.u.)
    -----------------------

    Doubly Occupied:                                                      

       1A    -20.554422     2A    -11.267774     3A    -11.216030  
       4A    -11.212947     5A    -11.211285     6A    -11.210539  
       7A    -11.209849     8A    -11.205989     9A     -1.360767  
      10A     -1.087632    11A     -1.047643    12A     -0.984349  
      13A     -0.914128    14A     -0.851059    15A     -0.800471  
      16A     -0.775711    17A     -0.679634    18A     -0.649241  
      19A     -0.630535    20A     -0.615690    21A     -0.599654  
      22A     -0.578035    23A     -0.557733    24A     -0.531732  
      25A     -0.528478    26A     -0.509722    27A     -0.491656  
      28A     -0.479254    29A     -0.467152    30A     -0.457951  
      31A     -0.453198    32A     -0.443101    33A     -0.419801  

    Virtual:                                                              

      34A      0.217461    35A      0.233901    36A      0.256626  
      37A      0.269952    38A      0.279639    39A      0.288174  
      40A      0.297785    41A      0.302497    42A      0.316550  
      43A      0.325399    44A      0.331955    45A      0.342329  
      46A      0.347581    47A      0.356955    48A      0.370135  
      49A      0.384144    50A      0.394016    51A      0.414137  
      52A      0.432867    53A      0.447868    54A      0.469584  
      55A      0.483176    56A      0.491294    57A      0.709065  
      58A      0.711328    59A      0.734301    60A      0.740096  
      61A      0.757680    62A      0.774033    63A      0.794952  
      64A      0.830416    65A      0.846932    66A      0.874079  
      67A      0.894849    68A      0.926423    69A      0.945112  
      70A      0.946372    71A      0.971126    72A      0.999070  
      73A      1.043218    74A      1.068451    75A      1.083296  
      76A      1.112581    77A      1.127698    78A      1.136530  
      79A      1.145919    80A      1.158968    81A      1.161985  
      82A      1.173879    83A      1.183749    84A      1.191495  
      85A      1.199918    86A      1.208249    87A      1.210773  
      88A      1.233567    89A      1.239018    90A      1.252425  
      91A      1.259963    92A      1.266733    93A      1.296406  
      94A      1.298795    95A      1.348130    96A      1.388876  
      97A      1.411198    98A      1.481898    99A      1.523186  
     100A      1.649410   101A      1.723226   102A      1.761510  
     103A      1.779245   104A      1.802895   105A      1.849548  
     106A      1.861320   107A      1.910075   108A      1.939001  
     109A      1.991194   110A      2.027571   111A      2.077539  
     112A      2.109234   113A      2.136604   114A      2.190496  
     115A      2.211624   116A      2.254188   117A      2.278056  
     118A      2.292073   119A      2.315500   120A      2.322838  
     121A      2.356798   122A      2.386799   123A      2.405524  
     124A      2.472909   125A      2.485230   126A      2.531315  
     127A      2.568879   128A      2.635243   129A      2.659607  
     130A      2.674952   131A      2.715821   132A      2.731519  
     133A      2.758879   134A      2.775769   135A      2.792888  
     136A      2.820712   137A      2.889837   138A      2.955504  
     139A      2.978356   140A      2.995752   141A      3.052777  
     142A      3.127383   143A      3.178537   144A      3.211676  
     145A      4.180109   146A      4.552945   147A      4.616661  
     148A      4.700899   149A      4.801256   150A      4.879009  
     151A      4.934629   152A      5.011022  

    Final Occupation by Irrep:
              A 
    DOCC [    33 ]

  Energy converged.

  @DF-RHF Final Energy:  -349.24276533918930

   => Energetics <=

    Nuclear Repulsion Energy =            391.3715370558858240
    One-Electron Energy =               -1249.2221871441765870
    Two-Electron Energy =                 508.6078847491015722
    DFT Exchange-Correlation Energy =       0.0000000000000000
    Empirical Dispersion Energy =           0.0000000000000000
    PCM Polarization Energy =               0.0000000000000000
    EFP Energy =                            0.0000000000000000
    Total Energy =                       -349.2427653391891909

    Alert: EFP and PCM quantities not currently incorporated into SCF psivars.

Properties will be evaluated at   0.000000,   0.000000,   0.000000 Bohr
  ==> Properties <==


Properties computed using the SCF density matrix

  Nuclear Dipole Moment: (a.u.)
     X:     5.6637      Y:     1.4960      Z:    -1.3761

  Electronic Dipole Moment: (a.u.)
     X:    -5.4867      Y:    -1.0834      Z:     1.8849

  Dipole Moment: (a.u.)
     X:     0.1770      Y:     0.4125      Z:     0.5088     Total:     0.6785

  Dipole Moment: (Debye)
     X:     0.4499      Y:     1.0485      Z:     1.2932     Total:     1.7245


  Saving occupied orbitals to File 180.

*** tstop() called on cx1-3-15-4.cx1.hpc.ic.ac.uk at Thu Sep  1 22:56:52 2016
Module time:
	user time   =      17.99 seconds =       0.30 minutes
	system time =       0.17 seconds =       0.00 minutes
	total time  =         18 seconds =       0.30 minutes
Total time:
	user time   =      17.99 seconds =       0.30 minutes
	system time =       0.17 seconds =       0.00 minutes
	total time  =         18 seconds =       0.30 minutes


Properties will be evaluated at   0.000000,   0.000000,   0.000000 Bohr

Properties computed using the  density matrix

  Nuclear Dipole Moment: (a.u.)
     X:     5.6637      Y:     1.4960      Z:    -1.3761

  Electronic Dipole Moment: (a.u.)
     X:    -5.4867      Y:    -1.0834      Z:     1.8849

  Dipole Moment: (a.u.)
     X:     0.1770      Y:     0.4125      Z:     0.5088     Total:     0.6785

  Dipole Moment: (Debye)
     X:     0.4499      Y:     1.0485      Z:     1.2932     Total:     1.7245

  Quadrupole Moment: (Debye Ang)
    XX:   -56.5511     YY:   -51.5784     ZZ:   -52.2966
    XY:    -3.6021     XZ:    -3.1886     YZ:    -0.6110

  Traceless Quadrupole Moment: (Debye Ang)
    XX:    -3.0757     YY:     1.8970     ZZ:     1.1788
    XY:    -3.6021     XZ:    -3.1886     YZ:    -0.6110

  Mulliken Charges: (a.u.)
   Center  Symbol    Alpha    Beta     Spin     Total
       1     H     0.28304  0.28304  0.00000  0.43392
       2     O     4.36849  4.36849  0.00000 -0.73698
       3     C     2.99901  2.99901  0.00000  0.00197
       4     C     3.17112  3.17112  0.00000 -0.34224
       5     H     0.41593  0.41593  0.00000  0.16813
       6     H     0.42901  0.42901  0.00000  0.14198
       7     C     3.15211  3.15211  0.00000 -0.30423
       8     H     0.42511  0.42511  0.00000  0.14978
       9     H     0.41976  0.41976  0.00000  0.16049
      10     C     3.15566  3.15566  0.00000 -0.31131
      11     H     0.41183  0.41183  0.00000  0.17635
      12     H     0.42269  0.42269  0.00000  0.15461
      13     C     3.15343  3.15343  0.00000 -0.30685
      14     H     0.42026  0.42026  0.00000  0.15947
      15     H     0.42600  0.42600  0.00000  0.14801
      16     C     3.15235  3.15235  0.00000 -0.30469
      17     H     0.42212  0.42212  0.00000  0.15575
      18     H     0.42326  0.42326  0.00000  0.15347
      19     C     3.24053  3.24053  0.00000 -0.48107
      20     H     0.42139  0.42139  0.00000  0.15721
      21     H     0.42439  0.42439  0.00000  0.15121
      22     H     0.42108  0.42108  0.00000  0.15783
      23     H     0.42003  0.42003  0.00000  0.15993
      24     H     0.42138  0.42138  0.00000  0.15724

   Total alpha = 33.00000, Total beta = 33.00000, Total charge = -0.00000


*** PSI4 exiting successfully. Buy a developer a beer!
