    -----------------------------------------------------------------------
          Psi4: An Open-Source Ab Initio Electronic Structure Package
                              Psi4 (no tag) Driver

                          Git: Rev {detached?}  

    J. M. Turney, A. C. Simmonett, R. M. Parrish, E. G. Hohenstein,
    F. A. Evangelista, J. T. Fermann, B. J. Mintz, L. A. Burns, J. J. Wilke,
    M. L. Abrams, N. J. Russ, M. L. Leininger, C. L. Janssen, E. T. Seidl,
    W. D. Allen, H. F. Schaefer, R. A. King, E. F. Valeev, C. D. Sherrill,
    and T. D. Crawford, WIREs Comput. Mol. Sci. 2, 556-565 (2012)
    (doi: 10.1002/wcms.93)

                         Additional Contributions by
    A. E. DePrince, M. Saitow, U. Bozkaya, A. Yu. Sokolov
    -----------------------------------------------------------------------


    Psi4 started on: Thu Sep  1 23:14:15 2016

    Process ID:  16935
    PSI4DATADIR: /export131/home/mjharvey/miniconda3/share
    Memory level set to 256.000 MB

  ==> Input File <==

--------------------------------------------------------------------------
set {
	reference rhf
	basis 6-31G*
}


set_num_threads( 1 )
memory 2 gb

molecule MOL {
0 1

O	 3.225979	 0.970355	 -0.599647
C	 2.701189	 0.057885	 -0.047330
C	 1.245376	 -0.013843	 0.345420
O	 3.347903	 -1.046386	 0.304773
C	 0.455112	 1.231400	 -0.050772
H	 0.838542	 -0.913825	 -0.103701
H	 1.208210	 -0.175333	 1.419774
C	 -0.998893	 1.219485	 0.433193
H	 0.482531	 1.345121	 -1.130325
H	 0.957290	 2.103070	 0.354729
C	 -1.883438	 0.145884	 -0.207175
H	 -1.431207	 2.195402	 0.224832
H	 -1.019646	 1.105716	 1.516076
C	 -2.957635	 0.730637	 -1.126503
H	 -1.257941	 -0.540256	 -0.776196
H	 -2.367321	 -0.449651	 0.563647
C	 -3.850898	 -0.332756	 -1.767915
H	 -2.480463	 1.317727	 -1.909361
H	 -3.576805	 1.425013	 -0.560668
C	 -4.918485	 0.259215	 -2.687442
H	 -3.233668	 -1.028059	 -2.332913
H	 -4.332121	 -0.917812	 -0.986944
H	 -5.535268	 -0.518776	 -3.126665
H	 -4.467721	 0.821991	 -3.500024
H	 -5.574190	 0.933533	 -2.143731
C	 4.728119	 -1.109107	 -0.004993
H	 4.882018	 -1.033965	 -1.071845
H	 5.068212	 -2.067527	 0.355250
H	 5.265056	 -0.311663	 0.488280

	symmetry c1
}
set optking {
	frozen_dihedral = ("
		21 17 14 11,
		17 14 11 15,
		6 3 5 9,
		11 8 5 9,
		2 4 26 27,
		1 2 4 26,
		6 3 2 1
	")
}

ee = energy('scf')
oeprop('DIPOLE', 'QUADRUPOLE', 'MULLIKEN_CHARGES')
f=open( 'psi4out.xyz', 'w' )
f.write( "29  " )
f.write( str(ee) + "\n" )
f.write( MOL.save_string_xyz() )
f.close()
--------------------------------------------------------------------------

  Memory set to   2.000 GiB by Python script.

*** tstart() called on cx1-3-2-1.cx1.hpc.ic.ac.uk
*** at Thu Sep  1 23:14:15 2016


         ---------------------------------------------------------
                                   SCF
            by Justin Turney, Rob Parrish, and Andy Simmonett
                              RHF Reference
                        1 Threads,   2000 MiB Core
         ---------------------------------------------------------

  ==> Geometry <==

    Molecular point group: c1
    Full point group: C1

    Geometry (in Angstrom), charge = 0, multiplicity = 1:

       Center              X                  Y                   Z               Mass       
    ------------   -----------------  -----------------  -----------------  -----------------
           O          3.082490984872     0.790972058249    -0.100705199012    15.994914619560
           C          2.557700984872    -0.121497941751     0.451611800988    12.000000000000
           C          1.101887984872    -0.193225941751     0.844361800988    12.000000000000
           O          3.204414984872    -1.225768941751     0.803714800988    15.994914619560
           C          0.311623984872     1.052017058249     0.448169800988    12.000000000000
           H          0.695053984872    -1.093207941751     0.395240800988     1.007825032070
           H          1.064721984872    -0.354715941751     1.918715800988     1.007825032070
           C         -1.142381015128     1.040102058249     0.932134800988    12.000000000000
           H          0.339042984872     1.165738058249    -0.631383199012     1.007825032070
           H          0.813801984872     1.923687058249     0.853670800988     1.007825032070
           C         -2.026926015128    -0.033498941751     0.291766800988    12.000000000000
           H         -1.574695015128     2.016019058249     0.723773800988     1.007825032070
           H         -1.163134015128     0.926333058249     2.015017800988     1.007825032070
           C         -3.101123015128     0.551254058249    -0.627561199012    12.000000000000
           H         -1.401429015128    -0.719638941751    -0.277254199012     1.007825032070
           H         -2.510809015128    -0.629033941751     1.062588800988     1.007825032070
           C         -3.994386015128    -0.512138941751    -1.268973199012    12.000000000000
           H         -2.623951015128     1.138344058249    -1.410419199012     1.007825032070
           H         -3.720293015128     1.245630058249    -0.061726199012     1.007825032070
           C         -5.061973015128     0.079832058249    -2.188500199012    12.000000000000
           H         -3.377156015128    -1.207441941751    -1.833971199012     1.007825032070
           H         -4.475609015128    -1.097194941751    -0.488002199012     1.007825032070
           H         -5.678756015128    -0.698158941751    -2.627723199012     1.007825032070
           H         -4.611209015128     0.642608058249    -3.001082199012     1.007825032070
           H         -5.717678015128     0.754150058249    -1.644789199012     1.007825032070
           C          4.584630984872    -1.288489941751     0.493948800988    12.000000000000
           H          4.738529984872    -1.213347941751    -0.572903199012     1.007825032070
           H          4.924723984872    -2.246909941751     0.854191800988     1.007825032070
           H          5.121567984872    -0.491045941751     0.987221800988     1.007825032070

  Running in c1 symmetry.

  Rotational constants: A =      0.09296  B =      0.00977  C =      0.00950 [cm^-1]
  Rotational constants: A =   2786.95828  B =    293.01513  C =    284.72050 [MHz]
  Nuclear repulsion =  613.741537418251255

  Charge       = 0
  Multiplicity = 1
  Electrons    = 88
  Nalpha       = 44
  Nbeta        = 44

  ==> Algorithm <==

  SCF Algorithm Type is DF.
  DIIS enabled.
  MOM disabled.
  Fractional occupation disabled.
  Guess Type is CORE.
  Energy threshold   = 1.00e-06
  Density threshold  = 1.00e-06
  Integral threshold = 0.00e+00

  ==> Primary Basis <==

  Basis Set: 6-31G*
    Number of shells: 102
    Number of basis function: 201
    Number of Cartesian functions: 201
    Spherical Harmonics?: false
    Max angular momentum: 2

  ==> Pre-Iterations <==

   -------------------------------------------------------
    Irrep   Nso     Nmo     Nalpha   Nbeta   Ndocc  Nsocc
   -------------------------------------------------------
     A        201     201       0       0       0       0
   -------------------------------------------------------
    Total     201     201      44      44      44       0
   -------------------------------------------------------

 OEINTS: Overlap, kinetic, potential, dipole, and quadrupole integrals
         stored in file 35.

  ==> Integral Setup <==

  ==> DFJK: Density-Fitted J/K Matrices <==

    J tasked:                  Yes
    K tasked:                  Yes
    wK tasked:                  No
    OpenMP threads:              1
    Integrals threads:           1
    Memory (MB):              1430
    Algorithm:                Core
    Integral Cache:           NONE
    Schwarz Cutoff:          1E-12
    Fitting Condition:       1E-12

   => Auxiliary Basis Set <=

  Basis Set: 
    Number of shells: 426
    Number of basis function: 1341
    Number of Cartesian functions: 1341
    Spherical Harmonics?: false
    Max angular momentum: 3

  Minimum eigenvalue in the overlap matrix is 2.6899021330E-03.
  Using Symmetric Orthogonalization.
  SCF Guess: Core (One-Electron) Hamiltonian.

  ==> Iterations <==

                           Total Energy        Delta E     RMS |[F,P]|

   @DF-RHF iter   1:  -323.03881262172308   -3.23039e+02   5.95680e-02 
   @DF-RHF iter   2:   120.59415801148947    4.43633e+02   7.64683e-02 DIIS
   @DF-RHF iter   3:  -191.47806900554724   -3.12072e+02   5.81048e-02 DIIS
   @DF-RHF iter   4:  -293.83113093557313   -1.02353e+02   6.16477e-02 DIIS
   @DF-RHF iter   5:  -445.31804259205501   -1.51487e+02   3.63249e-02 DIIS
   @DF-RHF iter   6:  -439.36567401591606    5.95237e+00   3.20936e-02 DIIS
   @DF-RHF iter   7:  -470.96619960053431   -3.16005e+01   2.07985e-02 DIIS
   @DF-RHF iter   8:  -465.95186611581266    5.01433e+00   2.18889e-02 DIIS
   @DF-RHF iter   9:  -500.55582073631354   -3.46040e+01   5.23860e-03 DIIS
   @DF-RHF iter  10:  -500.98594443528941   -4.30124e-01   1.67779e-03 DIIS
   @DF-RHF iter  11:  -501.03271767126739   -4.67732e-02   5.01069e-04 DIIS
   @DF-RHF iter  12:  -501.03743579873912   -4.71813e-03   2.08557e-04 DIIS
   @DF-RHF iter  13:  -501.03833889203247   -9.03093e-04   9.70904e-05 DIIS
   @DF-RHF iter  14:  -501.03852538064211   -1.86489e-04   5.19113e-05 DIIS
   @DF-RHF iter  15:  -501.03860806151692   -8.26809e-05   1.83107e-05 DIIS
   @DF-RHF iter  16:  -501.03861820875431   -1.01472e-05   5.89992e-06 DIIS
   @DF-RHF iter  17:  -501.03861934479801   -1.13604e-06   1.60359e-06 DIIS
   @DF-RHF iter  18:  -501.03861944872051   -1.03923e-07   3.41735e-07 DIIS

  ==> Post-Iterations <==

    Orbital Energies (a.u.)
    -----------------------

    Doubly Occupied:                                                      

       1A    -20.603534     2A    -20.545386     3A    -11.372258  
       4A    -11.280789     5A    -11.234919     6A    -11.219412  
       7A    -11.216058     8A    -11.215131     9A    -11.214623  
      10A    -11.214033    11A    -11.208516    12A     -1.469244  
      13A     -1.362694    14A     -1.098514    15A     -1.066199  
      16A     -1.019236    17A     -0.976746    18A     -0.927917  
      19A     -0.863170    20A     -0.801458    21A     -0.788494  
      22A     -0.762534    23A     -0.700460    24A     -0.682986  
      25A     -0.671664    26A     -0.650620    27A     -0.628446  
      28A     -0.606578    29A     -0.593719    30A     -0.576138  
      31A     -0.565744    32A     -0.557303    33A     -0.531699  
      34A     -0.526437    35A     -0.521220    36A     -0.511568  
      37A     -0.494031    38A     -0.477176    39A     -0.472798  
      40A     -0.459249    41A     -0.456386    42A     -0.454235  
      43A     -0.440714    44A     -0.435200  

    Virtual:                                                              

      45A      0.198415    46A      0.224059    47A      0.238979  
      48A      0.258304    49A      0.262826    50A      0.267411  
      51A      0.281997    52A      0.295641    53A      0.308141  
      54A      0.309947    55A      0.314916    56A      0.320061  
      57A      0.324423    58A      0.328136    59A      0.334363  
      60A      0.340232    61A      0.344692    62A      0.360214  
      63A      0.365605    64A      0.384734    65A      0.398310  
      66A      0.411750    67A      0.437648    68A      0.459168  
      69A      0.470285    70A      0.473063    71A      0.498213  
      72A      0.532922    73A      0.581037    74A      0.702475  
      75A      0.719323    76A      0.725952    77A      0.733058  
      78A      0.749895    79A      0.754647    80A      0.756203  
      81A      0.768396    82A      0.780801    83A      0.797862  
      84A      0.823162    85A      0.832830    86A      0.853025  
      87A      0.885003    88A      0.904688    89A      0.930407  
      90A      0.958460    91A      0.966065    92A      0.980441  
      93A      0.997967    94A      1.004916    95A      1.029193  
      96A      1.037077    97A      1.056331    98A      1.067221  
      99A      1.111331   100A      1.117131   101A      1.126453  
     102A      1.130803   103A      1.134723   104A      1.144284  
     105A      1.151284   106A      1.164090   107A      1.178356  
     108A      1.183306   109A      1.190795   110A      1.198778  
     111A      1.201749   112A      1.216746   113A      1.218662  
     114A      1.223985   115A      1.227613   116A      1.243711  
     117A      1.261560   118A      1.262803   119A      1.272252  
     120A      1.290063   121A      1.313309   122A      1.352763  
     123A      1.360321   124A      1.388510   125A      1.418879  
     126A      1.426385   127A      1.547847   128A      1.612276  
     129A      1.634583   130A      1.664575   131A      1.682694  
     132A      1.694143   133A      1.745757   134A      1.789681  
     135A      1.808065   136A      1.828223   137A      1.833390  
     138A      1.884094   139A      1.933610   140A      1.950761  
     141A      1.991726   142A      2.027981   143A      2.043611  
     144A      2.096541   145A      2.122971   146A      2.146261  
     147A      2.150850   148A      2.171355   149A      2.210158  
     150A      2.216970   151A      2.230098   152A      2.255496  
     153A      2.278945   154A      2.291243   155A      2.302109  
     156A      2.328504   157A      2.332065   158A      2.361356  
     159A      2.390434   160A      2.396902   161A      2.404574  
     162A      2.436096   163A      2.445950   164A      2.497154  
     165A      2.511524   166A      2.570639   167A      2.615573  
     168A      2.622506   169A      2.652505   170A      2.669460  
     171A      2.687770   172A      2.707702   173A      2.723379  
     174A      2.754796   175A      2.788057   176A      2.819245  
     177A      2.822675   178A      2.846350   179A      2.912705  
     180A      2.934480   181A      2.955890   182A      3.016218  
     183A      3.063049   184A      3.068656   185A      3.126543  
     186A      3.158609   187A      3.172800   188A      3.349731  
     189A      3.451015   190A      3.581142   191A      4.416521  
     192A      4.542356   193A      4.581726   194A      4.626013  
     195A      4.679353   196A      4.725649   197A      4.779795  
     198A      4.844121   199A      4.895721   200A      5.003010  
     201A      5.022714  

    Final Occupation by Irrep:
              A 
    DOCC [    44 ]

  Energy converged.

  @DF-RHF Final Energy:  -501.03861944872051

   => Energetics <=

    Nuclear Repulsion Energy =            613.7415374182512551
    One-Electron Energy =               -1898.6099761764849063
    Two-Electron Energy =                 783.8298193095171200
    DFT Exchange-Correlation Energy =       0.0000000000000000
    Empirical Dispersion Energy =           0.0000000000000000
    PCM Polarization Energy =               0.0000000000000000
    EFP Energy =                            0.0000000000000000
    Total Energy =                       -501.0386194487165312

    Alert: EFP and PCM quantities not currently incorporated into SCF psivars.

Properties will be evaluated at   0.000000,   0.000000,   0.000000 Bohr
  ==> Properties <==


Properties computed using the SCF density matrix

  Nuclear Dipole Moment: (a.u.)
     X:   -17.9292      Y:     0.0559      Z:    -3.5017

  Electronic Dipole Moment: (a.u.)
     X:    17.7822      Y:    -0.6712      Z:     3.8271

  Dipole Moment: (a.u.)
     X:    -0.1470      Y:    -0.6154      Z:     0.3255     Total:     0.7115

  Dipole Moment: (Debye)
     X:    -0.3735      Y:    -1.5641      Z:     0.8273     Total:     1.8084


  Saving occupied orbitals to File 180.

*** tstop() called on cx1-3-2-1.cx1.hpc.ic.ac.uk at Thu Sep  1 23:15:01 2016
Module time:
	user time   =      44.89 seconds =       0.75 minutes
	system time =       0.39 seconds =       0.01 minutes
	total time  =         46 seconds =       0.77 minutes
Total time:
	user time   =      44.89 seconds =       0.75 minutes
	system time =       0.39 seconds =       0.01 minutes
	total time  =         46 seconds =       0.77 minutes


Properties will be evaluated at   0.000000,   0.000000,   0.000000 Bohr

Properties computed using the  density matrix

  Nuclear Dipole Moment: (a.u.)
     X:   -17.9292      Y:     0.0559      Z:    -3.5017

  Electronic Dipole Moment: (a.u.)
     X:    17.7822      Y:    -0.6712      Z:     3.8271

  Dipole Moment: (a.u.)
     X:    -0.1470      Y:    -0.6154      Z:     0.3255     Total:     0.7115

  Dipole Moment: (Debye)
     X:    -0.3735      Y:    -1.5641      Z:     0.8273     Total:     1.8084

  Quadrupole Moment: (Debye Ang)
    XX:   -66.7449     YY:   -72.3000     ZZ:   -69.4810
    XY:    -7.3172     XZ:     1.7990     YZ:     1.6645

  Traceless Quadrupole Moment: (Debye Ang)
    XX:     2.7637     YY:    -2.7914     ZZ:     0.0276
    XY:    -7.3172     XZ:     1.7990     YZ:     1.6645

  Mulliken Charges: (a.u.)
   Center  Symbol    Alpha    Beta     Spin     Total
       1     O     4.28581  4.28581  0.00000 -0.57162
       2     C     2.60538  2.60538  0.00000  0.78924
       3     C     3.20866  3.20866  0.00000 -0.41733
       4     O     4.30738  4.30738  0.00000 -0.61475
       5     C     3.15530  3.15530  0.00000 -0.31060
       6     H     0.39911  0.39911  0.00000  0.20179
       7     H     0.40099  0.40099  0.00000  0.19803
       8     C     3.16059  3.16059  0.00000 -0.32119
       9     H     0.41343  0.41343  0.00000  0.17313
      10     H     0.40910  0.40910  0.00000  0.18180
      11     C     3.15542  3.15542  0.00000 -0.31084
      12     H     0.41547  0.41547  0.00000  0.16906
      13     H     0.42155  0.42155  0.00000  0.15690
      14     C     3.15312  3.15312  0.00000 -0.30625
      15     H     0.42303  0.42303  0.00000  0.15394
      16     H     0.42029  0.42029  0.00000  0.15942
      17     C     3.15195  3.15195  0.00000 -0.30391
      18     H     0.42286  0.42286  0.00000  0.15429
      19     H     0.42298  0.42298  0.00000  0.15404
      20     C     3.23933  3.23933  0.00000 -0.47865
      21     H     0.42325  0.42325  0.00000  0.15351
      22     H     0.42326  0.42326  0.00000  0.15348
      23     H     0.41938  0.41938  0.00000  0.16124
      24     H     0.42149  0.42149  0.00000  0.15702
      25     H     0.42180  0.42180  0.00000  0.15640
      26     C     3.09239  3.09239  0.00000 -0.18478
      27     H     0.40911  0.40911  0.00000  0.18178
      28     H     0.40847  0.40847  0.00000  0.18305
      29     H     0.40909  0.40909  0.00000  0.18182

   Total alpha = 44.00000, Total beta = 44.00000, Total charge = -0.00000


*** PSI4 exiting successfully. Buy a developer a beer!
