    -----------------------------------------------------------------------
          Psi4: An Open-Source Ab Initio Electronic Structure Package
                              Psi4 (no tag) Driver

                          Git: Rev {detached?}  

    J. M. Turney, A. C. Simmonett, R. M. Parrish, E. G. Hohenstein,
    F. A. Evangelista, J. T. Fermann, B. J. Mintz, L. A. Burns, J. J. Wilke,
    M. L. Abrams, N. J. Russ, M. L. Leininger, C. L. Janssen, E. T. Seidl,
    W. D. Allen, H. F. Schaefer, R. A. King, E. F. Valeev, C. D. Sherrill,
    and T. D. Crawford, WIREs Comput. Mol. Sci. 2, 556-565 (2012)
    (doi: 10.1002/wcms.93)

                         Additional Contributions by
    A. E. DePrince, M. Saitow, U. Bozkaya, A. Yu. Sokolov
    -----------------------------------------------------------------------


    Psi4 started on: Fri Sep  2 11:54:23 2016

    Process ID:  25749
    PSI4DATADIR: /export131/home/mjharvey/miniconda3/share
    Memory level set to 256.000 MB

  ==> Input File <==

--------------------------------------------------------------------------
set {
	reference rhf
	basis 6-31G*
}


set_num_threads( 4 )
memory 2 gb

molecule MOL {
0 1

H	 1.244419	 -2.264759	 -0.354766
C	 0.280727	 -1.787228	 -0.427687
O	 0.464886	 -0.454746	 -0.000158
H	 -0.425326	 -2.306582	 0.209327
H	 -0.059689	 -1.822928	 -1.455746
C	 -0.590998	 0.343045	 0.000118
O	 -1.699443	 -0.054298	 0.000227
H	 -0.340329	 1.404368	 0.000207

	symmetry c1
}
set optking {
	frozen_dihedral = ("
		2 3 6 7
	")
}

ee = optimize('scf')
oeprop('DIPOLE', 'QUADRUPOLE', 'MULLIKEN_CHARGES')
f=open( 'psi4out.xyz', 'w' )
f.write( "8  " )
f.write( str(ee) + "\n" )
f.write( MOL.save_string_xyz() )
f.close()
--------------------------------------------------------------------------

  Memory set to   2.000 GiB by Python script.
gradient() will perform analytic gradient computation.

*** tstart() called on cx1-5-5-2.cx1.hpc.ic.ac.uk
*** at Fri Sep  2 11:54:24 2016


         ---------------------------------------------------------
                                   SCF
            by Justin Turney, Rob Parrish, and Andy Simmonett
                              RHF Reference
                        4 Threads,   2000 MiB Core
         ---------------------------------------------------------

  ==> Geometry <==

    Molecular point group: c1
    Full point group: C1

    Geometry (in Angstrom), charge = 0, multiplicity = 1:

       Center              X                  Y                   Z               Mass       
    ------------   -----------------  -----------------  -----------------  -----------------
           H          1.628409301009    -1.756583649512    -0.242418396312     1.007825032070
           C          0.664717301009    -1.279052649512    -0.315339396312    12.000000000000
           O          0.848876301009     0.053429350488     0.112189603688    15.994914619560
           H         -0.041335698991    -1.798406649512     0.321674603688     1.007825032070
           H          0.324301301009    -1.314752649512    -1.343398396312     1.007825032070
           C         -0.207007698991     0.851220350488     0.112465603688    12.000000000000
           O         -1.315452698991     0.453877350488     0.112574603688    15.994914619560
           H          0.043661301009     1.912543350488     0.112554603688     1.007825032070

  Running in c1 symmetry.

  Rotational constants: A =      0.71053  B =      0.23036  C =      0.18103 [cm^-1]
  Rotational constants: A =  21301.00852  B =   6906.14037  C =   5427.22489 [MHz]
  Nuclear repulsion =  123.898910245288164

  Charge       = 0
  Multiplicity = 1
  Electrons    = 32
  Nalpha       = 16
  Nbeta        = 16

  ==> Algorithm <==

  SCF Algorithm Type is DF.
  DIIS enabled.
  MOM disabled.
  Fractional occupation disabled.
  Guess Type is CORE.
  Energy threshold   = 1.00e-08
  Density threshold  = 1.00e-08
  Integral threshold = 0.00e+00

  ==> Primary Basis <==

  Basis Set: 6-31G*
    Number of shells: 32
    Number of basis function: 68
    Number of Cartesian functions: 68
    Spherical Harmonics?: false
    Max angular momentum: 2

  ==> Pre-Iterations <==

   -------------------------------------------------------
    Irrep   Nso     Nmo     Nalpha   Nbeta   Ndocc  Nsocc
   -------------------------------------------------------
     A         68      68       0       0       0       0
   -------------------------------------------------------
    Total      68      68      16      16      16       0
   -------------------------------------------------------

 OEINTS: Overlap, kinetic, potential, dipole, and quadrupole integrals
         stored in file 35.

  ==> Integral Setup <==

  ==> DFJK: Density-Fitted J/K Matrices <==

    J tasked:                  Yes
    K tasked:                  Yes
    wK tasked:                  No
    OpenMP threads:              4
    Integrals threads:           4
    Memory (MB):              1430
    Algorithm:                Core
    Integral Cache:           NONE
    Schwarz Cutoff:          1E-12
    Fitting Condition:       1E-12

   => Auxiliary Basis Set <=

  Basis Set: 
    Number of shells: 132
    Number of basis function: 424
    Number of Cartesian functions: 424
    Spherical Harmonics?: false
    Max angular momentum: 3

  Minimum eigenvalue in the overlap matrix is 5.2245039561E-03.
  Using Symmetric Orthogonalization.
  SCF Guess: Core (One-Electron) Hamiltonian.

  ==> Iterations <==

                           Total Energy        Delta E     RMS |[F,P]|

   @DF-RHF iter   1:  -194.72348695470617   -1.94723e+02   8.86929e-02 
   @DF-RHF iter   2:  -162.26666053696692    3.24568e+01   8.12286e-02 DIIS
   @DF-RHF iter   3:  -210.24455387011932   -4.79779e+01   5.55451e-02 DIIS
   @DF-RHF iter   4:  -227.00823514970608   -1.67637e+01   1.91703e-02 DIIS
   @DF-RHF iter   5:  -227.73207505823518   -7.23840e-01   5.51975e-03 DIIS
   @DF-RHF iter   6:  -227.78212426605637   -5.00492e-02   1.09024e-03 DIIS
   @DF-RHF iter   7:  -227.78453952925003   -2.41526e-03   5.61068e-04 DIIS
   @DF-RHF iter   8:  -227.78509259156425   -5.53062e-04   2.71897e-04 DIIS
   @DF-RHF iter   9:  -227.78525301228245   -1.60421e-04   1.56210e-04 DIIS
   @DF-RHF iter  10:  -227.78531534199982   -6.23297e-05   4.34003e-05 DIIS
   @DF-RHF iter  11:  -227.78532107296280   -5.73096e-06   9.22179e-06 DIIS
   @DF-RHF iter  12:  -227.78532138015521   -3.07192e-07   3.18777e-06 DIIS
   @DF-RHF iter  13:  -227.78532142077330   -4.06181e-08   8.29871e-07 DIIS
   @DF-RHF iter  14:  -227.78532142565490   -4.88160e-09   2.36475e-07 DIIS
   @DF-RHF iter  15:  -227.78532142604996   -3.95062e-10   4.33477e-08 DIIS
   @DF-RHF iter  16:  -227.78532142606258   -1.26192e-11   9.50209e-09 DIIS

  ==> Post-Iterations <==

    Orbital Energies (a.u.)
    -----------------------

    Doubly Occupied:                                                      

       1A    -20.611539     2A    -20.559654     3A    -11.381132  
       4A    -11.288437     5A     -1.479599     6A     -1.376299  
       7A     -0.994093     8A     -0.818774     9A     -0.745479  
      10A     -0.681023    11A     -0.677979    12A     -0.604346  
      13A     -0.557807    14A     -0.527090    15A     -0.464419  
      16A     -0.456921  

    Virtual:                                                              

      17A      0.186610    18A      0.256406    19A      0.271807  
      20A      0.312114    21A      0.324308    22A      0.331820  
      23A      0.441536    24A      0.511749    25A      0.706949  
      26A      0.735481    27A      0.766004    28A      0.775801  
      29A      0.841972    30A      0.975524    31A      0.996490  
      32A      1.082902    33A      1.096047    34A      1.119214  
      35A      1.128464    36A      1.194962    37A      1.208122  
      38A      1.265944    39A      1.319673    40A      1.351713  
      41A      1.415590    42A      1.493362    43A      1.662840  
      44A      1.686551    45A      1.717392    46A      1.836755  
      47A      1.886318    48A      1.972575    49A      2.082505  
      50A      2.139851    51A      2.206867    52A      2.367482  
      53A      2.389514    54A      2.416797    55A      2.521897  
      56A      2.634089    57A      2.635350    58A      2.770602  
      59A      2.830660    60A      2.967155    61A      3.060470  
      62A      3.268572    63A      3.323784    64A      3.464597  
      65A      4.248591    66A      4.379289    67A      4.570314  
      68A      4.697871  

    Final Occupation by Irrep:
              A 
    DOCC [    16 ]

  Energy converged.

  @DF-RHF Final Energy:  -227.78532142606258

   => Energetics <=

    Nuclear Repulsion Energy =            123.8989102452881639
    One-Electron Energy =                -556.9192802233137627
    Two-Electron Energy =                 205.2350485519631889
    DFT Exchange-Correlation Energy =       0.0000000000000000
    Empirical Dispersion Energy =           0.0000000000000000
    PCM Polarization Energy =               0.0000000000000000
    EFP Energy =                            0.0000000000000000
    Total Energy =                       -227.7853214260624100

    Alert: EFP and PCM quantities not currently incorporated into SCF psivars.

Properties will be evaluated at   0.000000,   0.000000,   0.000000 Bohr
  ==> Properties <==


Properties computed using the SCF density matrix

  Nuclear Dipole Moment: (a.u.)
     X:     1.8305      Y:    -2.7698      Z:    -1.0785

  Electronic Dipole Moment: (a.u.)
     X:    -1.1113      Y:     2.6293      Z:     0.8426

  Dipole Moment: (a.u.)
     X:     0.7192      Y:    -0.1406      Z:    -0.2359     Total:     0.7699

  Dipole Moment: (Debye)
     X:     1.8281      Y:    -0.3572      Z:    -0.5997     Total:     1.9568


  Saving occupied orbitals to File 180.

*** tstop() called on cx1-5-5-2.cx1.hpc.ic.ac.uk at Fri Sep  2 11:54:25 2016
Module time:
	user time   =       3.94 seconds =       0.07 minutes
	system time =       0.06 seconds =       0.00 minutes
	total time  =          1 seconds =       0.02 minutes
Total time:
	user time   =       3.94 seconds =       0.07 minutes
	system time =       0.06 seconds =       0.00 minutes
	total time  =          1 seconds =       0.02 minutes

*** tstart() called on cx1-5-5-2.cx1.hpc.ic.ac.uk
*** at Fri Sep  2 11:54:25 2016


         ------------------------------------------------------------
                                   SCF GRAD                          
                          Rob Parrish, Justin Turney,                
                       Andy Simmonett, and Alex Sokolov              
         ------------------------------------------------------------

  ==> Geometry <==

    Molecular point group: c1
    Full point group: C1

    Geometry (in Angstrom), charge = 0, multiplicity = 1:

       Center              X                  Y                   Z               Mass       
    ------------   -----------------  -----------------  -----------------  -----------------
           H          1.628409301009    -1.756583649512    -0.242418396312     1.007825032070
           C          0.664717301009    -1.279052649512    -0.315339396312    12.000000000000
           O          0.848876301009     0.053429350488     0.112189603688    15.994914619560
           H         -0.041335698991    -1.798406649512     0.321674603688     1.007825032070
           H          0.324301301009    -1.314752649512    -1.343398396312     1.007825032070
           C         -0.207007698991     0.851220350488     0.112465603688    12.000000000000
           O         -1.315452698991     0.453877350488     0.112574603688    15.994914619560
           H          0.043661301009     1.912543350488     0.112554603688     1.007825032070

  Nuclear repulsion =  123.898910245288164

  ==> Basis Set <==

  Basis Set: 6-31G*
    Number of shells: 32
    Number of basis function: 68
    Number of Cartesian functions: 68
    Spherical Harmonics?: false
    Max angular momentum: 2

  ==> DFJKGrad: Density-Fitted SCF Gradients <==

    Gradient:                    1
    J tasked:                  Yes
    K tasked:                  Yes
    wK tasked:                  No
    OpenMP threads:              4
    Integrals threads:           4
    Memory (MB):              1430
    Schwarz Cutoff:          0E+00
    Fitting Condition:       1E-12

   => Auxiliary Basis Set <=

  Basis Set: 
    Number of shells: 132
    Number of basis function: 424
    Number of Cartesian functions: 424
    Spherical Harmonics?: false
    Max angular momentum: 3


  -Total Gradient:
     Atom            X                  Y                   Z
    ------   -----------------  -----------------  -----------------
       1       -0.001458040962    -0.001447602396    -0.000277829652
       2        0.003840982676     0.009055064640    -0.005678641765
       3       -0.009186017107    -0.016923918910     0.007892874443
       4       -0.000585063304    -0.001955957628     0.002211029856
       5        0.001078834873    -0.002098317222    -0.001785027497
       6       -0.003584547951     0.008310350939    -0.002664017142
       7        0.015874072449    -0.001700424505     0.003813063026
       8       -0.005980220673     0.006760805081    -0.003511451269


*** tstop() called on cx1-5-5-2.cx1.hpc.ic.ac.uk at Fri Sep  2 11:54:27 2016
Module time:
	user time   =       5.97 seconds =       0.10 minutes
	system time =       0.13 seconds =       0.00 minutes
	total time  =          2 seconds =       0.03 minutes
Total time:
	user time   =       9.93 seconds =       0.17 minutes
	system time =       0.20 seconds =       0.00 minutes
	total time  =          3 seconds =       0.05 minutes
CURRENT ENERGY: -227.7853214261

			-----------------------------------------
			 OPTKING 2.0: for geometry optimizations 
			  - R.A. King,  Bethel University        
			-----------------------------------------

	Internal coordinates to be generated automatically.
	Detected frag with atoms:  1 2 3 4 5 6 7 8
	---Fragment 1 Bond Connectivity---
	 1 : 2
	 2 : 1 3 4 5
	 3 : 2 6
	 4 : 2
	 5 : 2
	 6 : 3 7 8
	 7 : 6
	 8 : 6

	Assuming in current code that numbering for constraints corresponds to unified fragment.
	Frozen dihedral atom list: 
	     2     3     6     7
	---Fragment 1 Geometry and Gradient---
	 H           3.0772476112       -3.3194620271       -0.4581043786
	 C           1.2561336547       -2.4170592171       -0.5959050979
	 O           1.6041437296        0.1009668399        0.2120076259
	 H          -0.0781131506       -3.3984960431        0.6078769049
	 H           0.6128406434       -2.4845224401       -2.5386550564
	 C          -0.3911878585        1.6085733412        0.2125291903
	 O          -2.4858453419        0.8577038903        0.2127351705
	 H           0.0825079015        3.6141831497        0.2126973760
	            -0.0014580410       -0.0014476024       -0.0002778297
	             0.0038409827        0.0090550646       -0.0056786418
	            -0.0091860171       -0.0169239189        0.0078928744
	            -0.0005850633       -0.0019559576        0.0022110299
	             0.0010788349       -0.0020983172       -0.0017850275
	            -0.0035845480        0.0083103509       -0.0026640171
	             0.0158740724       -0.0017004245        0.0038130630
	            -0.0059802207        0.0067608051       -0.0035114513

	Previous optimization step data not found.  Starting new optimization.

	---Fragment 1 Intrafragment Coordinates---
	 - Coordinate -           - BOHR/RAD -       - ANG/DEG -
	 R(1,2)           =         2.037100	       1.077987
	 R(2,3)           =         2.667262	       1.411455
	 R(2,4)           =         2.047565	       1.083525
	 R(2,5)           =         2.047597	       1.083542
	 R(3,6)           =         2.500845	       1.323390
	 R(6,7)           =         2.225173	       1.177511
	 R(6,8)           =         2.060791	       1.090524
	 B(1,2,3)         =         1.855703	     106.323951
	 B(1,2,4)         =         1.907562	     109.295272
	 B(1,2,5)         =         1.907572	     109.295849
	 B(2,3,6)         =         2.054512	     117.714856
	 B(3,2,4)         =         1.938468	     111.066039
	 B(3,2,5)         =         1.938512	     111.068561
	 B(3,6,7)         =         2.150339	     123.205338
	 B(3,6,8)         =         1.985916	     113.784589
	 B(4,2,5)         =         1.914835	     109.711946
	 B(7,6,8)         =         2.146931	     123.010072
	 D(1,2,3,6)       =        -3.141265	    -179.981216
	*D(2,3,6,7)       =         0.349066	      19.999991
	 D(2,3,6,8)       =        -2.792498	    -159.998371
	 D(4,2,3,6)       =        -1.067775	     -61.178977
	 D(5,2,3,6)       =         1.068394	      61.214474

	Current energy   :      -227.7853214261

	Generating empirical Hessian (Schlegel '84) for each fragment.
	Taking RFO optimization step.
	Going to follow RFO solution 1.
	Using RFO vector 1.
	Norm of target step-size    0.35868
	Projected energy change by RFO approximation:        -0.0052572181

	Back-transformation to cartesian coordinates...
	Successfully converged to displaced geometry.

	Back-transformation to cartesian coordinates to adjust frozen coordinates...
	Successfully converged to displaced geometry.

	--- Internal Coordinate Step in ANG or DEG, aJ/ANG or AJ/DEG ---
	 ---------------------------------------------------------------------------
	   Coordinate                Previous        Force       Change         New 
	   ----------                --------       ------       ------       ------
	    1 R(1,2)          =      1.077987     0.005610     0.000981     1.078968
	    2 R(2,3)          =      1.411455     0.016927     0.002455     1.413910
	    3 R(2,4)          =      1.083525    -0.021574    -0.003841     1.079684
	    4 R(2,5)          =      1.083542    -0.011730    -0.002088     1.081454
	    5 R(3,6)          =      1.323390    -0.024930    -0.002599     1.320791
	    6 R(6,7)          =      1.177511     0.118381     0.006476     1.183987
	    7 R(6,8)          =      1.090524    -0.042881    -0.007812     1.082712
	    8 B(1,2,3)        =    106.323951    -0.000123    -0.418711   105.905239
	    9 B(1,2,4)        =    109.295272     0.000168     1.016370   110.311641
	   10 B(1,2,5)        =    109.295849     0.000179     0.848842   110.144691
	   11 B(2,3,6)        =    117.714856    -0.000286    -0.843251   116.871606
	   12 B(3,2,4)        =    111.066039     0.000022     0.067595   111.133633
	   13 B(3,2,5)        =    111.068561    -0.000233    -1.194542   109.874020
	   14 B(3,6,7)        =    123.205338     0.001171     3.022118   126.227456
	   15 B(3,6,8)        =    113.784589    -0.001163    -5.507958   108.276631
	   16 B(4,2,5)        =    109.711946    -0.000005    -0.285795   109.426151
	   17 B(7,6,8)        =    123.010072    -0.000007    -0.277770   122.732303
	   18 D(1,2,3,6)      =   -179.981216    -0.000017    -3.079708  -183.060924
	   19 *D(2,3,6,7)     =     19.999991     0.000000    -0.000000    19.999991
	   20 D(2,3,6,8)      =   -159.998371    -0.000116   -18.583264  -178.581634
	   21 D(4,2,3,6)      =    -61.178977     0.000015    -2.072360   -63.251337
	   22 D(5,2,3,6)      =     61.214474    -0.000020    -3.208398    58.006076
	 ---------------------------------------------------------------------------

  ==> Convergence Check <==

  Measures of convergence in internal coordinates in au.
  Criteria marked as inactive (o), active & met (*), and active & unmet ( ).
  --------------------------------------------------------------------------------------------- ~
   Step     Total Energy     Delta E     MAX Force     RMS Force      MAX Disp      RMS Disp    ~
  --------------------------------------------------------------------------------------------- ~
    Convergence Criteria    1.00e-06 *    3.00e-04 *             o    1.20e-03 *             o  ~
  --------------------------------------------------------------------------------------------- ~
      1    -227.78532143   -2.28e+02      1.54e-02      6.07e-03 o    3.24e-01      7.58e-02 o  ~
  ---------------------------------------------------------------------------------------------

	Writing optimization data to binary file.
	Structure for next step:
	Cartesian Geometry (in Angstrom)
	    H     1.6489754639  -1.7315943663  -0.2612789615
	    C     0.6688146397  -1.2825796214  -0.3042052029
	    O     0.8483938349   0.0743936101   0.0500780763
	    H    -0.0010729341  -1.7786866169   0.3819776591
	    H     0.2713951988  -1.3510715613  -1.3076538045
	    C    -0.2203439572   0.8492420923   0.0065021155
	    O    -1.3477346144   0.4881963712   0.0279777287
	    H     0.0777419251   1.8543746766   0.2769051325
			--------------------------
			 OPTKING Finished Execution 
			--------------------------

    Structure for next step:
    Molecular point group: c1
    Full point group: C1

    Geometry (in Angstrom), charge = 0, multiplicity = 1:

    H            1.658848500158    -1.744390073627    -0.207279424351
    C            0.678687750779    -1.295375363031    -0.250205662488
    O            0.858266932327     0.061597764816     0.104077589737
    H            0.008800228172    -1.791482320666     0.435977147188
    H            0.281268340272    -1.363867297712    -1.253654187403
    C           -0.210470778164     0.836446187847     0.060501632271
    O           -1.337861349253     0.475400494377     0.081977243766
    H            0.087615081392     1.841578695429     0.330904628597

gradient() will perform analytic gradient computation.

*** tstart() called on cx1-5-5-2.cx1.hpc.ic.ac.uk
*** at Fri Sep  2 11:54:28 2016


         ---------------------------------------------------------
                                   SCF
            by Justin Turney, Rob Parrish, and Andy Simmonett
                              RHF Reference
                        4 Threads,   2000 MiB Core
         ---------------------------------------------------------

  ==> Geometry <==

    Molecular point group: c1
    Full point group: C1

    Geometry (in Angstrom), charge = 0, multiplicity = 1:

       Center              X                  Y                   Z               Mass       
    ------------   -----------------  -----------------  -----------------  -----------------
           H          1.658848500158    -1.744390073627    -0.207279424351     1.007825032070
           C          0.678687750779    -1.295375363031    -0.250205662488    12.000000000000
           O          0.858266932327     0.061597764816     0.104077589737    15.994914619560
           H          0.008800228172    -1.791482320666     0.435977147188     1.007825032070
           H          0.281268340272    -1.363867297712    -1.253654187403     1.007825032070
           C         -0.210470778164     0.836446187847     0.060501632271    12.000000000000
           O         -1.337861349253     0.475400494377     0.081977243766    15.994914619560
           H          0.087615081392     1.841578695429     0.330904628597     1.007825032070

  Running in c1 symmetry.

  Rotational constants: A =      0.71613  B =      0.22672  C =      0.17861 [cm^-1]
  Rotational constants: A =  21469.06015  B =   6796.86677  C =   5354.74025 [MHz]
  Nuclear repulsion =  123.592320416237484

  Charge       = 0
  Multiplicity = 1
  Electrons    = 32
  Nalpha       = 16
  Nbeta        = 16

  ==> Algorithm <==

  SCF Algorithm Type is DF.
  DIIS enabled.
  MOM disabled.
  Fractional occupation disabled.
  Guess Type is READ.
  Energy threshold   = 1.00e-08
  Density threshold  = 1.00e-08
  Integral threshold = 0.00e+00

  ==> Primary Basis <==

  Basis Set: 6-31G*
    Number of shells: 32
    Number of basis function: 68
    Number of Cartesian functions: 68
    Spherical Harmonics?: false
    Max angular momentum: 2

  ==> Pre-Iterations <==

   -------------------------------------------------------
    Irrep   Nso     Nmo     Nalpha   Nbeta   Ndocc  Nsocc
   -------------------------------------------------------
     A         68      68       0       0       0       0
   -------------------------------------------------------
    Total      68      68      16      16      16       0
   -------------------------------------------------------

 OEINTS: Overlap, kinetic, potential, dipole, and quadrupole integrals
         stored in file 35.

  ==> Integral Setup <==

  ==> DFJK: Density-Fitted J/K Matrices <==

    J tasked:                  Yes
    K tasked:                  Yes
    wK tasked:                  No
    OpenMP threads:              4
    Integrals threads:           4
    Memory (MB):              1430
    Algorithm:                Core
    Integral Cache:           NONE
    Schwarz Cutoff:          1E-12
    Fitting Condition:       1E-12

   => Auxiliary Basis Set <=

  Basis Set: 
    Number of shells: 132
    Number of basis function: 424
    Number of Cartesian functions: 424
    Spherical Harmonics?: false
    Max angular momentum: 3

  Minimum eigenvalue in the overlap matrix is 5.4313745174E-03.
  Using Symmetric Orthogonalization.
  SCF Guess: Reading in previously saved MOs, projecting if necessary.

  Using orbitals from previous SCF, no projection.
  Recomputing DOCC and SOCC from number of alpha and beta electrons from previous calculation.
              A 
    DOCC [    16 ]

  ==> Iterations <==

                           Total Energy        Delta E     RMS |[F,P]|

   @DF-RHF iter   0:  -227.76617431225759   -2.27766e+02   2.29715e-03 
   @DF-RHF iter   1:  -227.78123035512556   -1.50560e-02   4.27121e-04 
   @DF-RHF iter   2:  -227.78211572982889   -8.85375e-04   1.80349e-04 DIIS
   @DF-RHF iter   3:  -227.78232959856388   -2.13869e-04   9.71829e-05 DIIS
   @DF-RHF iter   4:  -227.78237625981041   -4.66612e-05   3.56438e-05 DIIS
   @DF-RHF iter   5:  -227.78238837907827   -1.21193e-05   1.67133e-05 DIIS
   @DF-RHF iter   6:  -227.78239125760126   -2.87852e-06   6.59224e-06 DIIS
   @DF-RHF iter   7:  -227.78239162273474   -3.65133e-07   2.58294e-06 DIIS
   @DF-RHF iter   8:  -227.78239167521986   -5.24851e-08   7.38098e-07 DIIS
   @DF-RHF iter   9:  -227.78239167982872   -4.60886e-09   2.26133e-07 DIIS
   @DF-RHF iter  10:  -227.78239168023890   -4.10182e-10   6.49236e-08 DIIS
   @DF-RHF iter  11:  -227.78239168026823   -2.93312e-11   2.24888e-08 DIIS
   @DF-RHF iter  12:  -227.78239168027119   -2.95586e-12   7.53758e-09 DIIS

  ==> Post-Iterations <==

    Orbital Energies (a.u.)
    -----------------------

    Doubly Occupied:                                                      

       1A    -20.617133     2A    -20.562490     3A    -11.380833  
       4A    -11.289026     5A     -1.479145     6A     -1.378543  
       7A     -0.998374     8A     -0.819621     9A     -0.744000  
      10A     -0.682325    11A     -0.680504    12A     -0.600711  
      13A     -0.558644    14A     -0.533739    15A     -0.465073  
      16A     -0.458071  

    Virtual:                                                              

      17A      0.177320    18A      0.255669    19A      0.282855  
      20A      0.310614    21A      0.319544    22A      0.331708  
      23A      0.446109    24A      0.507211    25A      0.706826  
      26A      0.733510    27A      0.768540    28A      0.774019  
      29A      0.832951    30A      0.981942    31A      0.993711  
      32A      1.086853    33A      1.098974    34A      1.116945  
      35A      1.127832    36A      1.199747    37A      1.205245  
      38A      1.260915    39A      1.314463    40A      1.365538  
      41A      1.395611    42A      1.490218    43A      1.661531  
      44A      1.675114    45A      1.721364    46A      1.809775  
      47A      1.908096    48A      1.980624    49A      2.074931  
      50A      2.118094    51A      2.245267    52A      2.348993  
      53A      2.380987    54A      2.417669    55A      2.514854  
      56A      2.620054    57A      2.640266    58A      2.757832  
      59A      2.837176    60A      2.979817    61A      3.075087  
      62A      3.268130    63A      3.313470    64A      3.448169  
      65A      4.254892    66A      4.373804    67A      4.570874  
      68A      4.703298  

    Final Occupation by Irrep:
              A 
    DOCC [    16 ]

  Energy converged.

  @DF-RHF Final Energy:  -227.78239168027119

   => Energetics <=

    Nuclear Repulsion Energy =            123.5923204162374844
    One-Electron Energy =                -556.2529625645858005
    Two-Electron Energy =                 204.8782504680769989
    DFT Exchange-Correlation Energy =       0.0000000000000000
    Empirical Dispersion Energy =           0.0000000000000000
    PCM Polarization Energy =               0.0000000000000000
    EFP Energy =                            0.0000000000000000
    Total Energy =                       -227.7823916802713029

    Alert: EFP and PCM quantities not currently incorporated into SCF psivars.

Properties will be evaluated at   0.000000,   0.000000,   0.000000 Bohr
  ==> Properties <==


Properties computed using the SCF density matrix

  Nuclear Dipole Moment: (a.u.)
     X:     1.9069      Y:    -2.8644      Z:    -0.6498

  Electronic Dipole Moment: (a.u.)
     X:    -1.1464      Y:     2.6356      Z:     0.4585

  Dipole Moment: (a.u.)
     X:     0.7605      Y:    -0.2287      Z:    -0.1913     Total:     0.8169

  Dipole Moment: (Debye)
     X:     1.9330      Y:    -0.5814      Z:    -0.4862     Total:     2.0763


  Saving occupied orbitals to File 180.

*** tstop() called on cx1-5-5-2.cx1.hpc.ic.ac.uk at Fri Sep  2 11:54:30 2016
Module time:
	user time   =       6.24 seconds =       0.10 minutes
	system time =       0.09 seconds =       0.00 minutes
	total time  =          2 seconds =       0.03 minutes
Total time:
	user time   =      16.96 seconds =       0.28 minutes
	system time =       0.31 seconds =       0.01 minutes
	total time  =          6 seconds =       0.10 minutes

*** tstart() called on cx1-5-5-2.cx1.hpc.ic.ac.uk
*** at Fri Sep  2 11:54:30 2016


         ------------------------------------------------------------
                                   SCF GRAD                          
                          Rob Parrish, Justin Turney,                
                       Andy Simmonett, and Alex Sokolov              
         ------------------------------------------------------------

  ==> Geometry <==

    Molecular point group: c1
    Full point group: C1

    Geometry (in Angstrom), charge = 0, multiplicity = 1:

       Center              X                  Y                   Z               Mass       
    ------------   -----------------  -----------------  -----------------  -----------------
           H          1.658848500158    -1.744390073627    -0.207279424351     1.007825032070
           C          0.678687750779    -1.295375363031    -0.250205662488    12.000000000000
           O          0.858266932327     0.061597764816     0.104077589737    15.994914619560
           H          0.008800228172    -1.791482320666     0.435977147188     1.007825032070
           H          0.281268340272    -1.363867297712    -1.253654187403     1.007825032070
           C         -0.210470778164     0.836446187847     0.060501632271    12.000000000000
           O         -1.337861349253     0.475400494377     0.081977243766    15.994914619560
           H          0.087615081392     1.841578695429     0.330904628597     1.007825032070

  Nuclear repulsion =  123.592320416237484

  ==> Basis Set <==

  Basis Set: 6-31G*
    Number of shells: 32
    Number of basis function: 68
    Number of Cartesian functions: 68
    Spherical Harmonics?: false
    Max angular momentum: 2

  ==> DFJKGrad: Density-Fitted SCF Gradients <==

    Gradient:                    1
    J tasked:                  Yes
    K tasked:                  Yes
    wK tasked:                  No
    OpenMP threads:              4
    Integrals threads:           4
    Memory (MB):              1430
    Schwarz Cutoff:          0E+00
    Fitting Condition:       1E-12

   => Auxiliary Basis Set <=

  Basis Set: 
    Number of shells: 132
    Number of basis function: 424
    Number of Cartesian functions: 424
    Spherical Harmonics?: false
    Max angular momentum: 3


  -Total Gradient:
     Atom            X                  Y                   Z
    ------   -----------------  -----------------  -----------------
       1        0.000550247969     0.000254335438     0.000174765183
       2       -0.000677693898     0.003694398724    -0.000022075315
       3        0.001596916120    -0.002150621810     0.018736186339
       4        0.000366380329    -0.000687965908    -0.000716124482
       5       -0.000027934802     0.001381304354    -0.000197501701
       6       -0.000327487898     0.002046880070    -0.054928027036
       7       -0.000872399699     0.002138064022     0.021724772428
       8       -0.000608028124    -0.006676394889     0.015228004583


*** tstop() called on cx1-5-5-2.cx1.hpc.ic.ac.uk at Fri Sep  2 11:54:32 2016
Module time:
	user time   =       7.90 seconds =       0.13 minutes
	system time =       0.18 seconds =       0.00 minutes
	total time  =          2 seconds =       0.03 minutes
Total time:
	user time   =      24.88 seconds =       0.41 minutes
	system time =       0.49 seconds =       0.01 minutes
	total time  =          8 seconds =       0.13 minutes
CURRENT ENERGY: -227.7823916803

			-----------------------------------------
			 OPTKING 2.0: for geometry optimizations 
			  - R.A. King,  Bethel University        
			-----------------------------------------

	Previous internal coordinate definitions found.
	---Fragment 1 Geometry and Gradient---
	 H           3.1347693612       -3.2964195081       -0.3917013450
	 C           1.2825339787       -2.4479046754       -0.4728201790
	 O           1.6218894510        0.1164029059        0.1966781412
	 H           0.0166300212       -3.3854109580        0.8238774084
	 H           0.5315201330       -2.5773356743       -2.3690630795
	 C          -0.3977321297        1.5806542199        0.1143315156
	 O          -2.5281915539        0.8983767378        0.1549145398
	 H           0.1655685089        3.4800793865        0.6253191242
	             0.0005502480        0.0002543354        0.0001747652
	            -0.0006776939        0.0036943987       -0.0000220753
	             0.0015969161       -0.0021506218        0.0187361863
	             0.0003663803       -0.0006879659       -0.0007161245
	            -0.0000279348        0.0013813044       -0.0001975017
	            -0.0003274879        0.0020468801       -0.0549280270
	            -0.0008723997        0.0021380640        0.0217247724
	            -0.0006080281       -0.0066763949        0.0152280046

	---Fragment 1 Intrafragment Coordinates---
	 - Coordinate -           - BOHR/RAD -       - ANG/DEG -
	 R(1,2)           =         2.038954	       1.078968
	 R(2,3)           =         2.671903	       1.413910
	 R(2,4)           =         2.040308	       1.079684
	 R(2,5)           =         2.043651	       1.081454
	 R(3,6)           =         2.495934	       1.320791
	 R(6,7)           =         2.237411	       1.183987
	 R(6,8)           =         2.046028	       1.082712
	 B(1,2,3)         =         1.848395	     105.905239
	 B(1,2,4)         =         1.925301	     110.311641
	 B(1,2,5)         =         1.922388	     110.144691
	 B(2,3,6)         =         2.039794	     116.871606
	 B(3,2,4)         =         1.939648	     111.133633
	 B(3,2,5)         =         1.917663	     109.874020
	 B(3,6,7)         =         2.203085	     126.227456
	 B(3,6,8)         =         1.889784	     108.276631
	 B(4,2,5)         =         1.909847	     109.426151
	 B(7,6,8)         =         2.142083	     122.732303
	 D(1,2,3,6)       =         3.088169	     176.939076
	*D(2,3,6,7)       =         0.349066	      19.999991
	 D(2,3,6,8)       =        -3.116838	    -178.581634
	 D(4,2,3,6)       =        -1.103944	     -63.251337
	 D(5,2,3,6)       =         1.012397	      58.006076

	Current energy   :      -227.7823916803

	Energy change for the previous step:
		Projected    :        -0.0052572181
		Actual       :         0.0029297458

	Performing BFGS update.
	Previous computed or guess Hessian on step 1.
	Steps to be used in Hessian update: 1
	Taking RFO optimization step.
	Going to follow RFO solution 1.
	Using RFO vector 1.
	Norm of target step-size    0.31761
	Projected energy change by RFO approximation:        -0.0098405572

	Back-transformation to cartesian coordinates...
	Successfully converged to displaced geometry.

	Back-transformation to cartesian coordinates to adjust frozen coordinates...
	Successfully converged to displaced geometry.

	--- Internal Coordinate Step in ANG or DEG, aJ/ANG or AJ/DEG ---
	 ---------------------------------------------------------------------------
	   Coordinate                Previous        Force       Change         New 
	   ----------                --------       ------       ------       ------
	    1 R(1,2)          =      1.078968    -0.003303     0.000369     1.079338
	    2 R(2,3)          =      1.413910     0.035355     0.003306     1.417216
	    3 R(2,4)          =      1.079684     0.003018    -0.002070     1.077615
	    4 R(2,5)          =      1.081454    -0.000874    -0.001287     1.080167
	    5 R(3,6)          =      1.320791    -0.004896    -0.001724     1.319067
	    6 R(6,7)          =      1.183987    -0.004719     0.003749     1.187736
	    7 R(6,8)          =      1.082712     0.021110    -0.003214     1.079498
	    8 B(1,2,3)        =    105.905239     0.000053    -0.157945   105.747295
	    9 B(1,2,4)        =    110.311641     0.000003     0.559105   110.870747
	   10 B(1,2,5)        =    110.144691    -0.000050     0.449009   110.593700
	   11 B(2,3,6)        =    116.871606     0.000113    -0.375169   116.496437
	   12 B(3,2,4)        =    111.133633    -0.000164    -0.248869   110.884765
	   13 B(3,2,5)        =    109.874020     0.000183    -0.386565   109.487455
	   14 B(3,6,7)        =    126.227456    -0.000067     2.854877   129.082333
	   15 B(3,6,8)        =    108.276631     0.000639    -1.166892   107.109739
	   16 B(4,2,5)        =    109.426151    -0.000022    -0.210532   109.215619
	   17 B(7,6,8)        =    122.732303     0.000133     1.067567   123.799870
	   18 D(1,2,3,6)      =    176.939076     0.000009    -1.199462   175.739614
	   19 *D(2,3,6,7)     =     19.999991    -0.000000     0.000000    19.999991
	   20 D(2,3,6,8)      =   -178.581634     0.000537    17.564691  -161.016943
	   21 D(4,2,3,6)      =    -63.251337    -0.000003    -0.759037   -64.010373
	   22 D(5,2,3,6)      =     58.006076    -0.000006    -1.439353    56.566723
	 ---------------------------------------------------------------------------

  ==> Convergence Check <==

  Measures of convergence in internal coordinates in au.
  Criteria marked as inactive (o), active & met (*), and active & unmet ( ).
  ---------------------------------------------------------------------------------------------
   Step     Total Energy     Delta E     MAX Force     RMS Force      MAX Disp      RMS Disp   
  ---------------------------------------------------------------------------------------------
    Convergence Criteria    1.00e-06 *    3.00e-04 *             o    1.20e-03 *             o
  ---------------------------------------------------------------------------------------------
      2    -227.78239168    2.93e-03      3.08e-02      6.95e-03 o    3.07e-01      6.71e-02 o  ~
  ---------------------------------------------------------------------------------------------

	Writing optimization data to binary file.
	Structure for next step:
	Cartesian Geometry (in Angstrom)
	    H     1.6685799808  -1.7365779867  -0.2178581889
	    C     0.6838871423  -1.2956272591  -0.2480579552
	    O     0.8482281665   0.0427120779   0.1882239352
	    H     0.0044557531  -1.8290270039   0.3962334800
	    H     0.2959670856  -1.3009487765  -1.2561502492
	    C    -0.2240612351   0.8099694163   0.1501523856
	    O    -1.3688034494   0.4955655220   0.1123141449
	    H     0.1169014165   1.8338418697   0.1774413617
			--------------------------
			 OPTKING Finished Execution 
			--------------------------

    Structure for next step:
    Molecular point group: c1
    Full point group: C1

    Geometry (in Angstrom), charge = 0, multiplicity = 1:

    H            1.680349371298    -1.732002252052    -0.263256104302
    C            0.695656608032    -1.291051558060    -0.293455868308
    O            0.859997619672     0.047287676740     0.142825988801
    H            0.016225270709    -1.824451262099     0.350835517688
    H            0.307736580934    -1.296373075026    -1.301548085276
    C           -0.212291700089     0.814544956564     0.104754442120
    O           -1.357033826903     0.500141086260     0.066916204244
    H            0.128670925516     1.838417331745     0.132043416099

gradient() will perform analytic gradient computation.

*** tstart() called on cx1-5-5-2.cx1.hpc.ic.ac.uk
*** at Fri Sep  2 11:54:33 2016


         ---------------------------------------------------------
                                   SCF
            by Justin Turney, Rob Parrish, and Andy Simmonett
                              RHF Reference
                        4 Threads,   2000 MiB Core
         ---------------------------------------------------------

  ==> Geometry <==

    Molecular point group: c1
    Full point group: C1

    Geometry (in Angstrom), charge = 0, multiplicity = 1:

       Center              X                  Y                   Z               Mass       
    ------------   -----------------  -----------------  -----------------  -----------------
           H          1.680349371298    -1.732002252052    -0.263256104302     1.007825032070
           C          0.695656608032    -1.291051558060    -0.293455868308    12.000000000000
           O          0.859997619672     0.047287676740     0.142825988801    15.994914619560
           H          0.016225270709    -1.824451262099     0.350835517688     1.007825032070
           H          0.307736580934    -1.296373075026    -1.301548085276     1.007825032070
           C         -0.212291700089     0.814544956564     0.104754442120    12.000000000000
           O         -1.357033826903     0.500141086260     0.066916204244    15.994914619560
           H          0.128670925516     1.838417331745     0.132043416099     1.007825032070

  Running in c1 symmetry.

  Rotational constants: A =      0.72389  B =      0.22153  C =      0.17612 [cm^-1]
  Rotational constants: A =  21701.82584  B =   6641.22097  C =   5279.89233 [MHz]
  Nuclear repulsion =  123.178508854232192

  Charge       = 0
  Multiplicity = 1
  Electrons    = 32
  Nalpha       = 16
  Nbeta        = 16

  ==> Algorithm <==

  SCF Algorithm Type is DF.
  DIIS enabled.
  MOM disabled.
  Fractional occupation disabled.
  Guess Type is READ.
  Energy threshold   = 1.00e-08
  Density threshold  = 1.00e-08
  Integral threshold = 0.00e+00

  ==> Primary Basis <==

  Basis Set: 6-31G*
    Number of shells: 32
    Number of basis function: 68
    Number of Cartesian functions: 68
    Spherical Harmonics?: false
    Max angular momentum: 2

  ==> Pre-Iterations <==

   -------------------------------------------------------
    Irrep   Nso     Nmo     Nalpha   Nbeta   Ndocc  Nsocc
   -------------------------------------------------------
     A         68      68       0       0       0       0
   -------------------------------------------------------
    Total      68      68      16      16      16       0
   -------------------------------------------------------

 OEINTS: Overlap, kinetic, potential, dipole, and quadrupole integrals
         stored in file 35.

  ==> Integral Setup <==

  ==> DFJK: Density-Fitted J/K Matrices <==

    J tasked:                  Yes
    K tasked:                  Yes
    wK tasked:                  No
    OpenMP threads:              4
    Integrals threads:           4
    Memory (MB):              1430
    Algorithm:                Core
    Integral Cache:           NONE
    Schwarz Cutoff:          1E-12
    Fitting Condition:       1E-12

   => Auxiliary Basis Set <=

  Basis Set: 
    Number of shells: 132
    Number of basis function: 424
    Number of Cartesian functions: 424
    Spherical Harmonics?: false
    Max angular momentum: 3

  Minimum eigenvalue in the overlap matrix is 5.3748766633E-03.
  Using Symmetric Orthogonalization.
  SCF Guess: Reading in previously saved MOs, projecting if necessary.

  Using orbitals from previous SCF, no projection.
  Recomputing DOCC and SOCC from number of alpha and beta electrons from previous calculation.
              A 
    DOCC [    16 ]

  ==> Iterations <==

                           Total Energy        Delta E     RMS |[F,P]|

   @DF-RHF iter   0:  -227.77334428149669   -2.27773e+02   2.52849e-03 
   @DF-RHF iter   1:  -227.78427298831014   -1.09287e-02   4.12009e-04 
   @DF-RHF iter   2:  -227.78511793489207   -8.44947e-04   1.65501e-04 DIIS
   @DF-RHF iter   3:  -227.78533347436121   -2.15539e-04   5.68640e-05 DIIS
   @DF-RHF iter   4:  -227.78535784659334   -2.43722e-05   3.06545e-05 DIIS
   @DF-RHF iter   5:  -227.78536716208953   -9.31550e-06   1.41500e-05 DIIS
   @DF-RHF iter   6:  -227.78536894395540   -1.78187e-06   4.56609e-06 DIIS
   @DF-RHF iter   7:  -227.78536913541836   -1.91463e-07   1.47136e-06 DIIS
   @DF-RHF iter   8:  -227.78536914855579   -1.31374e-08   5.18642e-07 DIIS
   @DF-RHF iter   9:  -227.78536914968623   -1.13045e-09   1.21703e-07 DIIS
   @DF-RHF iter  10:  -227.78536914978145   -9.52127e-11   3.28848e-08 DIIS
   @DF-RHF iter  11:  -227.78536914978815   -6.70752e-12   9.39519e-09 DIIS

  ==> Post-Iterations <==

    Orbital Energies (a.u.)
    -----------------------

    Doubly Occupied:                                                      

       1A    -20.618736     2A    -20.563786     3A    -11.381710  
       4A    -11.291141     5A     -1.477628     6A     -1.379975  
       7A     -1.000322     8A     -0.822039     9A     -0.743484  
      10A     -0.683272    11A     -0.680551    12A     -0.603361  
      13A     -0.558762    14A     -0.534923    15A     -0.468580  
      16A     -0.457262  

    Virtual:                                                              

      17A      0.185932    18A      0.252627    19A      0.280555  
      20A      0.308442    21A      0.321166    22A      0.327683  
      23A      0.447073    24A      0.504683    25A      0.708075  
      26A      0.731223    27A      0.765350    28A      0.775658  
      29A      0.832920    30A      0.979949    31A      0.993382  
      32A      1.084586    33A      1.100266    34A      1.118257  
      35A      1.128933    36A      1.199801    37A      1.203936  
      38A      1.258190    39A      1.329581    40A      1.344135  
      41A      1.421068    42A      1.479783    43A      1.659601  
      44A      1.695795    45A      1.724383    46A      1.825192  
      47A      1.881925    48A      1.966576    49A      2.064310  
      50A      2.140996    51A      2.224828    52A      2.335922  
      53A      2.378019    54A      2.422059    55A      2.521531  
      56A      2.612483    57A      2.637668    58A      2.727421  
      59A      2.840591    60A      3.011740    61A      3.073298  
      62A      3.270164    63A      3.315982    64A      3.447912  
      65A      4.273795    66A      4.379507    67A      4.584486  
      68A      4.706008  

    Final Occupation by Irrep:
              A 
    DOCC [    16 ]

  Energy converged.

  @DF-RHF Final Energy:  -227.78536914978815

   => Energetics <=

    Nuclear Repulsion Energy =            123.1785088542321915
    One-Electron Energy =                -555.3966929871662614
    Two-Electron Energy =                 204.4328149831459598
    DFT Exchange-Correlation Energy =       0.0000000000000000
    Empirical Dispersion Energy =           0.0000000000000000
    PCM Polarization Energy =               0.0000000000000000
    EFP Energy =                            0.0000000000000000
    Total Energy =                       -227.7853691497881243

    Alert: EFP and PCM quantities not currently incorporated into SCF psivars.

Properties will be evaluated at   0.000000,   0.000000,   0.000000 Bohr
  ==> Properties <==


Properties computed using the SCF density matrix

  Nuclear Dipole Moment: (a.u.)
     X:     1.9972      Y:    -2.8233      Z:    -1.0133

  Electronic Dipole Moment: (a.u.)
     X:    -1.1990      Y:     2.5399      Z:     0.7970

  Dipole Moment: (a.u.)
     X:     0.7982      Y:    -0.2834      Z:    -0.2163     Total:     0.8742

  Dipole Moment: (Debye)
     X:     2.0287      Y:    -0.7204      Z:    -0.5497     Total:     2.2219


  Saving occupied orbitals to File 180.

*** tstop() called on cx1-5-5-2.cx1.hpc.ic.ac.uk at Fri Sep  2 11:54:35 2016
Module time:
	user time   =       4.97 seconds =       0.08 minutes
	system time =       0.10 seconds =       0.00 minutes
	total time  =          2 seconds =       0.03 minutes
Total time:
	user time   =      30.51 seconds =       0.51 minutes
	system time =       0.60 seconds =       0.01 minutes
	total time  =         11 seconds =       0.18 minutes

*** tstart() called on cx1-5-5-2.cx1.hpc.ic.ac.uk
*** at Fri Sep  2 11:54:35 2016


         ------------------------------------------------------------
                                   SCF GRAD                          
                          Rob Parrish, Justin Turney,                
                       Andy Simmonett, and Alex Sokolov              
         ------------------------------------------------------------

  ==> Geometry <==

    Molecular point group: c1
    Full point group: C1

    Geometry (in Angstrom), charge = 0, multiplicity = 1:

       Center              X                  Y                   Z               Mass       
    ------------   -----------------  -----------------  -----------------  -----------------
           H          1.680349371298    -1.732002252052    -0.263256104302     1.007825032070
           C          0.695656608032    -1.291051558060    -0.293455868308    12.000000000000
           O          0.859997619672     0.047287676740     0.142825988801    15.994914619560
           H          0.016225270709    -1.824451262099     0.350835517688     1.007825032070
           H          0.307736580934    -1.296373075026    -1.301548085276     1.007825032070
           C         -0.212291700089     0.814544956564     0.104754442120    12.000000000000
           O         -1.357033826903     0.500141086260     0.066916204244    15.994914619560
           H          0.128670925516     1.838417331745     0.132043416099     1.007825032070

  Nuclear repulsion =  123.178508854232192

  ==> Basis Set <==

  Basis Set: 6-31G*
    Number of shells: 32
    Number of basis function: 68
    Number of Cartesian functions: 68
    Spherical Harmonics?: false
    Max angular momentum: 2

  ==> DFJKGrad: Density-Fitted SCF Gradients <==

    Gradient:                    1
    J tasked:                  Yes
    K tasked:                  Yes
    wK tasked:                  No
    OpenMP threads:              4
    Integrals threads:           4
    Memory (MB):              1430
    Schwarz Cutoff:          0E+00
    Fitting Condition:       1E-12

   => Auxiliary Basis Set <=

  Basis Set: 
    Number of shells: 132
    Number of basis function: 424
    Number of Cartesian functions: 424
    Spherical Harmonics?: false
    Max angular momentum: 3


  -Total Gradient:
     Atom            X                  Y                   Z
    ------   -----------------  -----------------  -----------------
       1        0.001474907840     0.000902951660     0.000282709803
       2       -0.000999664520     0.002174177779    -0.003353947190
       3        0.008155633746     0.005849088270     0.009404108082
       4        0.000303468120     0.001390608380    -0.001657603723
       5       -0.000483299445     0.001385798556     0.001064959506
       6        0.003981734624    -0.011994937051    -0.007481549801
       7       -0.015946085141     0.006846239318     0.004525179674
       8        0.003513304776    -0.006553926911    -0.002783856350


*** tstop() called on cx1-5-5-2.cx1.hpc.ic.ac.uk at Fri Sep  2 11:54:37 2016
Module time:
	user time   =       6.39 seconds =       0.11 minutes
	system time =       0.15 seconds =       0.00 minutes
	total time  =          2 seconds =       0.03 minutes
Total time:
	user time   =      36.93 seconds =       0.62 minutes
	system time =       0.75 seconds =       0.01 minutes
	total time  =         13 seconds =       0.22 minutes
CURRENT ENERGY: -227.7853691498

			-----------------------------------------
			 OPTKING 2.0: for geometry optimizations 
			  - R.A. King,  Bethel University        
			-----------------------------------------

	Previous internal coordinate definitions found.
	---Fragment 1 Geometry and Gradient---
	 H           3.1754001193       -3.2730099179       -0.4974819399
	 C           1.3146004717       -2.4397338682       -0.5545512232
	 O           1.6251599761        0.0893607585        0.2699020035
	 H           0.0306613181       -3.4477132282        0.6629830461
	 H           0.5815378590       -2.4497900778       -2.4595694300
	 C          -0.4011731735        1.5392668908        0.1979572068
	 O          -2.5644222859        0.9451296808        0.1264532999
	 H           0.2431528105        3.4741052749        0.2495258941
	             0.0014749078        0.0009029517        0.0002827098
	            -0.0009996645        0.0021741778       -0.0033539472
	             0.0081556337        0.0058490883        0.0094041081
	             0.0003034681        0.0013906084       -0.0016576037
	            -0.0004832994        0.0013857986        0.0010649595
	             0.0039817346       -0.0119949371       -0.0074815498
	            -0.0159460851        0.0068462393        0.0045251797
	             0.0035133048       -0.0065539269       -0.0027838564

	---Fragment 1 Intrafragment Coordinates---
	 - Coordinate -           - BOHR/RAD -       - ANG/DEG -
	 R(1,2)           =         2.039652	       1.079338
	 R(2,3)           =         2.678150	       1.417216
	 R(2,4)           =         2.036397	       1.077615
	 R(2,5)           =         2.041219	       1.080167
	 R(3,6)           =         2.492675	       1.319067
	 R(6,7)           =         2.244495	       1.187736
	 R(6,8)           =         2.039955	       1.079498
	 B(1,2,3)         =         1.845638	     105.747295
	 B(1,2,4)         =         1.935060	     110.870747
	 B(1,2,5)         =         1.930224	     110.593700
	 B(2,3,6)         =         2.033246	     116.496437
	 B(3,2,4)         =         1.935304	     110.884765
	 B(3,2,5)         =         1.910917	     109.487455
	 B(3,6,7)         =         2.252912	     129.082333
	 B(3,6,8)         =         1.869418	     107.109739
	 B(4,2,5)         =         1.906172	     109.215619
	 B(7,6,8)         =         2.160715	     123.799870
	 D(1,2,3,6)       =         3.067235	     175.739614
	*D(2,3,6,7)       =         0.349066	      19.999991
	 D(2,3,6,8)       =        -2.810276	    -161.016943
	 D(4,2,3,6)       =        -1.117192	     -64.010373
	 D(5,2,3,6)       =         0.987276	      56.566723

	Current energy   :      -227.7853691498

	Energy change for the previous step:
		Projected    :        -0.0098405572
		Actual       :        -0.0029774695

	Performing BFGS update.
	Previous computed or guess Hessian on step 1.
	Steps to be used in Hessian update: 2 1
	Taking RFO optimization step.
	Going to follow RFO solution 1.
	Using RFO vector 1.
	Norm of target step-size    0.09618
	Projected energy change by RFO approximation:        -0.0012516206

	Back-transformation to cartesian coordinates...
	Successfully converged to displaced geometry.

	Back-transformation to cartesian coordinates to adjust frozen coordinates...
	Successfully converged to displaced geometry.

	--- Internal Coordinate Step in ANG or DEG, aJ/ANG or AJ/DEG ---
	 ---------------------------------------------------------------------------
	   Coordinate                Previous        Force       Change         New 
	   ----------                --------       ------       ------       ------
	    1 R(1,2)          =      1.079338    -0.008112    -0.000835     1.078503
	    2 R(2,3)          =      1.417216     0.036531     0.000595     1.417812
	    3 R(2,4)          =      1.077615     0.015412     0.002384     1.079999
	    4 R(2,5)          =      1.080167     0.006815     0.001229     1.081396
	    5 R(3,6)          =      1.319067    -0.001884     0.000956     1.320023
	    6 R(6,7)          =      1.187736    -0.110501    -0.004627     1.183109
	    7 R(6,8)          =      1.079498     0.042651     0.005433     1.084931
	    8 B(1,2,3)        =    105.747295     0.000106     0.286399   106.033694
	    9 B(1,2,4)        =    110.870747    -0.000120    -0.610718   110.260028
	   10 B(1,2,5)        =    110.593700    -0.000116    -0.480484   110.113216
	   11 B(2,3,6)        =    116.496437     0.000295     0.601696   117.098132
	   12 B(3,2,4)        =    110.884765    -0.000027    -0.014988   110.869776
	   13 B(3,2,5)        =    109.487455     0.000163     0.668112   110.155566
	   14 B(3,6,7)        =    129.082333    -0.001503    -3.224360   125.857973
	   15 B(3,6,8)        =    107.109739     0.001159     3.098316   110.208055
	   16 B(4,2,5)        =    109.215619    -0.000002     0.153957   109.369576
	   17 B(7,6,8)        =    123.799870     0.000337     0.036854   123.836724
	   18 D(1,2,3,6)      =    175.739614     0.000007    -0.602302   175.137313
	   19 *D(2,3,6,7)     =     19.999991     0.000000     0.000000    19.999991
	   20 D(2,3,6,8)      =   -161.016943    -0.000098    -2.471154  -163.488097
	   21 D(4,2,3,6)      =    -64.010373    -0.000014    -1.171898   -65.182271
	   22 D(5,2,3,6)      =     56.566723     0.000006    -0.547958    56.018764
	 ---------------------------------------------------------------------------

  ==> Convergence Check <==

  Measures of convergence in internal coordinates in au.
  Criteria marked as inactive (o), active & met (*), and active & unmet ( ).
  ---------------------------------------------------------------------------------------------
   Step     Total Energy     Delta E     MAX Force     RMS Force      MAX Disp      RMS Disp   
  ---------------------------------------------------------------------------------------------
    Convergence Criteria    1.00e-06 *    3.00e-04 *             o    1.20e-03 *             o
  ---------------------------------------------------------------------------------------------
      3    -227.78536915   -2.98e-03      1.97e-02      6.51e-03 o    5.63e-02      2.05e-02 o  ~
  ---------------------------------------------------------------------------------------------

	Writing optimization data to binary file.
	Structure for next step:
	Cartesian Geometry (in Angstrom)
	    H     1.6706686040  -1.7416411101  -0.2672564366
	    C     0.6904860649  -1.2925656279  -0.2944889982
	    O     0.8613626050   0.0470592855   0.1372474143
	    H     0.0168631026  -1.8249723135   0.3606244998
	    H     0.3003458015  -1.3121845561  -1.3028653237
	    C    -0.1983293325   0.8329015197   0.0929161984
	    O    -1.3252740945   0.4750574308   0.0518108769
	    H     0.1031882600   1.8728580509   0.1611271991
			--------------------------
			 OPTKING Finished Execution 
			--------------------------

    Structure for next step:
    Molecular point group: c1
    Full point group: C1

    Geometry (in Angstrom), charge = 0, multiplicity = 1:

    H            1.660787214481    -1.738405141815    -0.259734466326
    C            0.680604750163    -1.289329693892    -0.286967025845
    O            0.851481277258     0.050295117273     0.144769353708
    H            0.006981839292    -1.821736338786     0.368146422200
    H            0.290464516586    -1.308948620594    -1.295343274266
    C           -0.208210579290     0.836137291406     0.100438141207
    O           -1.335155255248     0.478293229798     0.059332822873
    H            0.093306990141     1.876093743221     0.168649136679

gradient() will perform analytic gradient computation.

*** tstart() called on cx1-5-5-2.cx1.hpc.ic.ac.uk
*** at Fri Sep  2 11:54:37 2016


         ---------------------------------------------------------
                                   SCF
            by Justin Turney, Rob Parrish, and Andy Simmonett
                              RHF Reference
                        4 Threads,   2000 MiB Core
         ---------------------------------------------------------

  ==> Geometry <==

    Molecular point group: c1
    Full point group: C1

    Geometry (in Angstrom), charge = 0, multiplicity = 1:

       Center              X                  Y                   Z               Mass       
    ------------   -----------------  -----------------  -----------------  -----------------
           H          1.660787214481    -1.738405141815    -0.259734466326     1.007825032070
           C          0.680604750163    -1.289329693892    -0.286967025845    12.000000000000
           O          0.851481277258     0.050295117273     0.144769353708    15.994914619560
           H          0.006981839292    -1.821736338786     0.368146422200     1.007825032070
           H          0.290464516586    -1.308948620594    -1.295343274266     1.007825032070
           C         -0.208210579290     0.836137291406     0.100438141207    12.000000000000
           O         -1.335155255248     0.478293229798     0.059332822873    15.994914619560
           H          0.093306990141     1.876093743221     0.168649136679     1.007825032070

  Running in c1 symmetry.

  Rotational constants: A =      0.71346  B =      0.22660  C =      0.17866 [cm^-1]
  Rotational constants: A =  21388.95480  B =   6793.27768  C =   5356.05122 [MHz]
  Nuclear repulsion =  123.522085734950934

  Charge       = 0
  Multiplicity = 1
  Electrons    = 32
  Nalpha       = 16
  Nbeta        = 16

  ==> Algorithm <==

  SCF Algorithm Type is DF.
  DIIS enabled.
  MOM disabled.
  Fractional occupation disabled.
  Guess Type is READ.
  Energy threshold   = 1.00e-08
  Density threshold  = 1.00e-08
  Integral threshold = 0.00e+00

  ==> Primary Basis <==

  Basis Set: 6-31G*
    Number of shells: 32
    Number of basis function: 68
    Number of Cartesian functions: 68
    Spherical Harmonics?: false
    Max angular momentum: 2

  ==> Pre-Iterations <==

   -------------------------------------------------------
    Irrep   Nso     Nmo     Nalpha   Nbeta   Ndocc  Nsocc
   -------------------------------------------------------
     A         68      68       0       0       0       0
   -------------------------------------------------------
    Total      68      68      16      16      16       0
   -------------------------------------------------------

 OEINTS: Overlap, kinetic, potential, dipole, and quadrupole integrals
         stored in file 35.

  ==> Integral Setup <==

  ==> DFJK: Density-Fitted J/K Matrices <==

    J tasked:                  Yes
    K tasked:                  Yes
    wK tasked:                  No
    OpenMP threads:              4
    Integrals threads:           4
    Memory (MB):              1430
    Algorithm:                Core
    Integral Cache:           NONE
    Schwarz Cutoff:          1E-12
    Fitting Condition:       1E-12

   => Auxiliary Basis Set <=

  Basis Set: 
    Number of shells: 132
    Number of basis function: 424
    Number of Cartesian functions: 424
    Spherical Harmonics?: false
    Max angular momentum: 3

  Minimum eigenvalue in the overlap matrix is 5.2668132389E-03.
  Using Symmetric Orthogonalization.
  SCF Guess: Reading in previously saved MOs, projecting if necessary.

  Using orbitals from previous SCF, no projection.
  Recomputing DOCC and SOCC from number of alpha and beta electrons from previous calculation.
              A 
    DOCC [    16 ]

  ==> Iterations <==

                           Total Energy        Delta E     RMS |[F,P]|

   @DF-RHF iter   0:  -227.78900204003165   -2.27789e+02   1.40346e-03 
   @DF-RHF iter   1:  -227.78650741056217    2.49463e-03   1.79711e-04 
   @DF-RHF iter   2:  -227.78661678390594   -1.09373e-04   7.78172e-05 DIIS
   @DF-RHF iter   3:  -227.78663432998420   -1.75461e-05   4.15208e-05 DIIS
   @DF-RHF iter   4:  -227.78664007600068   -5.74602e-06   9.62056e-06 DIIS
   @DF-RHF iter   5:  -227.78664066580595   -5.89805e-07   4.95846e-06 DIIS
   @DF-RHF iter   6:  -227.78664085195166   -1.86146e-07   2.07667e-06 DIIS
   @DF-RHF iter   7:  -227.78664089756225   -4.56106e-08   6.92270e-07 DIIS
   @DF-RHF iter   8:  -227.78664090334379   -5.78154e-09   1.84070e-07 DIIS
   @DF-RHF iter   9:  -227.78664090365837   -3.14571e-10   6.39085e-08 DIIS
   @DF-RHF iter  10:  -227.78664090368702   -2.86491e-11   2.21927e-08 DIIS
   @DF-RHF iter  11:  -227.78664090369088   -3.86535e-12   5.19552e-09 DIIS

  ==> Post-Iterations <==

    Orbital Energies (a.u.)
    -----------------------

    Doubly Occupied:                                                      

       1A    -20.615194     2A    -20.561246     3A    -11.381122  
       4A    -11.289983     5A     -1.478050     6A     -1.377286  
       7A     -0.997216     8A     -0.820216     9A     -0.744087  
      10A     -0.681532    11A     -0.679010    12A     -0.603220  
      13A     -0.558006    14A     -0.531973    15A     -0.465906  
      16A     -0.457757  

    Virtual:                                                              

      17A      0.186925    18A      0.254696    19A      0.275842  
      20A      0.310460    21A      0.322121    22A      0.328614  
      23A      0.444930    24A      0.509277    25A      0.708078  
      26A      0.733264    27A      0.766162    28A      0.773985  
      29A      0.834653    30A      0.980722    31A      0.997414  
      32A      1.086716    33A      1.095799    34A      1.117548  
      35A      1.127425    36A      1.199266    37A      1.205672  
      38A      1.262144    39A      1.329866    40A      1.346121  
      41A      1.409862    42A      1.491598    43A      1.661702  
      44A      1.688818    45A      1.716970    46A      1.830428  
      47A      1.895764    48A      1.966285    49A      2.075824  
      50A      2.139020    51A      2.218385    52A      2.348862  
      53A      2.378144    54A      2.418274    55A      2.524959  
      56A      2.621036    57A      2.638294    58A      2.748762  
      59A      2.833127    60A      2.989221    61A      3.066397  
      62A      3.269609    63A      3.318418    64A      3.455198  
      65A      4.259787    66A      4.376895    67A      4.578004  
      68A      4.701604  

    Final Occupation by Irrep:
              A 
    DOCC [    16 ]

  Energy converged.

  @DF-RHF Final Energy:  -227.78664090369088

   => Energetics <=

    Nuclear Repulsion Energy =            123.5220857349509345
    One-Electron Energy =                -556.1338460613795860
    Two-Electron Energy =                 204.8251194227377709
    DFT Exchange-Correlation Energy =       0.0000000000000000
    Empirical Dispersion Energy =           0.0000000000000000
    PCM Polarization Energy =               0.0000000000000000
    EFP Energy =                            0.0000000000000000
    Total Energy =                       -227.7866409036909090

    Alert: EFP and PCM quantities not currently incorporated into SCF psivars.

Properties will be evaluated at   0.000000,   0.000000,   0.000000 Bohr
  ==> Properties <==


Properties computed using the SCF density matrix

  Nuclear Dipole Moment: (a.u.)
     X:     1.9209      Y:    -2.8033      Z:    -0.9536

  Electronic Dipole Moment: (a.u.)
     X:    -1.1538      Y:     2.5889      Z:     0.7462

  Dipole Moment: (a.u.)
     X:     0.7671      Y:    -0.2144      Z:    -0.2074     Total:     0.8231

  Dipole Moment: (Debye)
     X:     1.9497      Y:    -0.5450      Z:    -0.5273     Total:     2.0920


  Saving occupied orbitals to File 180.

*** tstop() called on cx1-5-5-2.cx1.hpc.ic.ac.uk at Fri Sep  2 11:54:39 2016
Module time:
	user time   =       5.13 seconds =       0.09 minutes
	system time =       0.09 seconds =       0.00 minutes
	total time  =          2 seconds =       0.03 minutes
Total time:
	user time   =      42.52 seconds =       0.71 minutes
	system time =       0.86 seconds =       0.01 minutes
	total time  =         15 seconds =       0.25 minutes

*** tstart() called on cx1-5-5-2.cx1.hpc.ic.ac.uk
*** at Fri Sep  2 11:54:39 2016


         ------------------------------------------------------------
                                   SCF GRAD                          
                          Rob Parrish, Justin Turney,                
                       Andy Simmonett, and Alex Sokolov              
         ------------------------------------------------------------

  ==> Geometry <==

    Molecular point group: c1
    Full point group: C1

    Geometry (in Angstrom), charge = 0, multiplicity = 1:

       Center              X                  Y                   Z               Mass       
    ------------   -----------------  -----------------  -----------------  -----------------
           H          1.660787214481    -1.738405141815    -0.259734466326     1.007825032070
           C          0.680604750163    -1.289329693892    -0.286967025845    12.000000000000
           O          0.851481277258     0.050295117273     0.144769353708    15.994914619560
           H          0.006981839292    -1.821736338786     0.368146422200     1.007825032070
           H          0.290464516586    -1.308948620594    -1.295343274266     1.007825032070
           C         -0.208210579290     0.836137291406     0.100438141207    12.000000000000
           O         -1.335155255248     0.478293229798     0.059332822873    15.994914619560
           H          0.093306990141     1.876093743221     0.168649136679     1.007825032070

  Nuclear repulsion =  123.522085734950949

  ==> Basis Set <==

  Basis Set: 6-31G*
    Number of shells: 32
    Number of basis function: 68
    Number of Cartesian functions: 68
    Spherical Harmonics?: false
    Max angular momentum: 2

  ==> DFJKGrad: Density-Fitted SCF Gradients <==

    Gradient:                    1
    J tasked:                  Yes
    K tasked:                  Yes
    wK tasked:                  No
    OpenMP threads:              4
    Integrals threads:           4
    Memory (MB):              1430
    Schwarz Cutoff:          0E+00
    Fitting Condition:       1E-12

   => Auxiliary Basis Set <=

  Basis Set: 
    Number of shells: 132
    Number of basis function: 424
    Number of Cartesian functions: 424
    Spherical Harmonics?: false
    Max angular momentum: 3


  -Total Gradient:
     Atom            X                  Y                   Z
    ------   -----------------  -----------------  -----------------
       1        0.000064610786    -0.000313203036    -0.000152669012
       2        0.001557500218     0.002654732219    -0.004129488090
       3       -0.001273846097    -0.003514434968     0.010916155715
       4        0.000037809976    -0.000122718764    -0.000171265460
       5        0.000036311864    -0.000019899061    -0.000218401780
       6        0.000953388767     0.000451803354    -0.013483368108
       7       -0.001065078554     0.000609151483     0.007245630309
       8       -0.000310696965     0.000254568772    -0.000006593574


*** tstop() called on cx1-5-5-2.cx1.hpc.ic.ac.uk at Fri Sep  2 11:54:41 2016
Module time:
	user time   =       6.60 seconds =       0.11 minutes
	system time =       0.13 seconds =       0.00 minutes
	total time  =          2 seconds =       0.03 minutes
Total time:
	user time   =      49.14 seconds =       0.82 minutes
	system time =       0.99 seconds =       0.02 minutes
	total time  =         17 seconds =       0.28 minutes
CURRENT ENERGY: -227.7866409037

			-----------------------------------------
			 OPTKING 2.0: for geometry optimizations 
			  - R.A. King,  Bethel University        
			-----------------------------------------

	Previous internal coordinate definitions found.
	---Fragment 1 Geometry and Gradient---
	 H           3.1384330004       -3.2851096260       -0.4908270086
	 C           1.2861565825       -2.4364800165       -0.5422890880
	 O           1.6090664213        0.0950439975        0.2735744309
	 H           0.0131937642       -3.4425827666        0.6956959148
	 H           0.5488983877       -2.4735544149       -2.4478440364
	 C          -0.3934609728        1.5800704902        0.1898005802
	 O          -2.5230777773        0.9038432155        0.1121227859
	 H           0.1763246577        3.5453033743        0.3187006809
	             0.0000646108       -0.0003132030       -0.0001526690
	             0.0015575002        0.0026547322       -0.0041294881
	            -0.0012738461       -0.0035144350        0.0109161557
	             0.0000378100       -0.0001227188       -0.0001712655
	             0.0000363119       -0.0000198991       -0.0002184018
	             0.0009533888        0.0004518034       -0.0134833681
	            -0.0010650786        0.0006091515        0.0072456303
	            -0.0003106970        0.0002545688       -0.0000065936

	---Fragment 1 Intrafragment Coordinates---
	 - Coordinate -           - BOHR/RAD -       - ANG/DEG -
	 R(1,2)           =         2.038075	       1.078503
	 R(2,3)           =         2.679276	       1.417812
	 R(2,4)           =         2.040903	       1.079999
	 R(2,5)           =         2.043542	       1.081396
	 R(3,6)           =         2.494481	       1.320023
	 R(6,7)           =         2.235752	       1.183109
	 R(6,8)           =         2.050222	       1.084931
	 B(1,2,3)         =         1.850637	     106.033694
	 B(1,2,4)         =         1.924401	     110.260028
	 B(1,2,5)         =         1.921838	     110.113216
	 B(2,3,6)         =         2.043748	     117.098132
	 B(3,2,4)         =         1.935043	     110.869776
	 B(3,2,5)         =         1.922577	     110.155566
	 B(3,6,7)         =         2.196636	     125.857973
	 B(3,6,8)         =         1.923493	     110.208055
	 B(4,2,5)         =         1.908859	     109.369576
	 B(7,6,8)         =         2.161359	     123.836724
	 D(1,2,3,6)       =         3.056723	     175.137313
	*D(2,3,6,7)       =         0.349066	      19.999991
	 D(2,3,6,8)       =        -2.853406	    -163.488097
	 D(4,2,3,6)       =        -1.137645	     -65.182271
	 D(5,2,3,6)       =         0.977712	      56.018764

	Current energy   :      -227.7866409037

	Energy change for the previous step:
		Projected    :        -0.0012516206
		Actual       :        -0.0012717539
	Energy ratio indicates good step: Trust radius increased to 1.000e+00.


	Performing BFGS update.
	Previous computed or guess Hessian on step 1.
	Steps to be used in Hessian update: 3 2
	Taking RFO optimization step.
	Going to follow RFO solution 1.
	Using RFO vector 1.
	Norm of target step-size    0.02823
	Projected energy change by RFO approximation:        -0.0000253927

	Back-transformation to cartesian coordinates...
	Successfully converged to displaced geometry.

	Back-transformation to cartesian coordinates to adjust frozen coordinates...
	Successfully converged to displaced geometry.

	--- Internal Coordinate Step in ANG or DEG, aJ/ANG or AJ/DEG ---
	 ---------------------------------------------------------------------------
	   Coordinate                Previous        Force       Change         New 
	   ----------                --------       ------       ------       ------
	    1 R(1,2)          =      1.078503    -0.001526    -0.000268     1.078235
	    2 R(2,3)          =      1.417812     0.007081     0.001058     1.418870
	    3 R(2,4)          =      1.079999     0.000552     0.000076     1.080075
	    4 R(2,5)          =      1.081396    -0.001573    -0.000305     1.081091
	    5 R(3,6)          =      1.320023    -0.010974    -0.001193     1.318830
	    6 R(6,7)          =      1.183109    -0.004766    -0.000217     1.182891
	    7 R(6,8)          =      1.084931    -0.001296    -0.000306     1.084625
	    8 B(1,2,3)        =    106.033694    -0.000030    -0.150155   105.883539
	    9 B(1,2,4)        =    110.260028     0.000013     0.044705   110.304733
	   10 B(1,2,5)        =    110.113216     0.000019     0.119010   110.232225
	   11 B(2,3,6)        =    117.098132    -0.000038    -0.123749   116.974383
	   12 B(3,2,4)        =    110.869776    -0.000021    -0.111434   110.758343
	   13 B(3,2,5)        =    110.155566     0.000010     0.054096   110.209663
	   14 B(3,6,7)        =    125.857973    -0.000070    -0.206230   125.651744
	   15 B(3,6,8)        =    110.208055     0.000006    -0.053339   110.154716
	   16 B(4,2,5)        =    109.369576     0.000008     0.040757   109.410333
	   17 B(7,6,8)        =    123.836724     0.000064     0.262455   124.099179
	   18 D(1,2,3,6)      =    175.137313     0.000001    -0.831917   174.305396
	   19 *D(2,3,6,7)     =     19.999991     0.000000     0.000000    19.999991
	   20 D(2,3,6,8)      =   -163.488097    -0.000001     0.062469  -163.425628
	   21 D(4,2,3,6)      =    -65.182271    -0.000002    -0.929087   -66.111358
	   22 D(5,2,3,6)      =     56.018764    -0.000002    -0.915317    55.103447
	 ---------------------------------------------------------------------------

  ==> Convergence Check <==

  Measures of convergence in internal coordinates in au.
  Criteria marked as inactive (o), active & met (*), and active & unmet ( ).
  ---------------------------------------------------------------------------------------------
   Step     Total Energy     Delta E     MAX Force     RMS Force      MAX Disp      RMS Disp   
  ---------------------------------------------------------------------------------------------
    Convergence Criteria    1.00e-06 *    3.00e-04 *             o    1.20e-03 *             o
  ---------------------------------------------------------------------------------------------
      4    -227.78664090   -1.27e-03      1.33e-03      4.83e-04 o    1.62e-02      6.02e-03 o  ~
  ---------------------------------------------------------------------------------------------

	Writing optimization data to binary file.
	Structure for next step:
	Cartesian Geometry (in Angstrom)
	    H     1.6610390021  -1.7342433474  -0.2654570861
	    C     0.6791733466  -1.2891504358  -0.2860014053
	    O     0.8505770462   0.0498347191   0.1509543676
	    H     0.0112189943  -1.8242838352   0.3728089793
	    H     0.2820159983  -1.3059801320  -1.2913568407
	    C    -0.2070635983   0.8359879742   0.0992759914
	    O    -1.3324268456   0.4752299232   0.0478639357
	    H     0.0957269656   1.8750044978   0.1712030919
			--------------------------
			 OPTKING Finished Execution 
			--------------------------

    Structure for next step:
    Molecular point group: c1
    Full point group: C1

    Geometry (in Angstrom), charge = 0, multiplicity = 1:

    H            1.660635469657    -1.733368836481    -0.264101705905
    C            0.678769889122    -1.288275958888    -0.284646023503
    O            0.850173575616     0.050709093773     0.152309716080
    H            0.010815587816    -1.823409317444     0.374164310807
    H            0.281612571126    -1.305105653811    -1.290001382144
    C           -0.207466988128     0.836862288829     0.100631343792
[...]
    Number of Cartesian functions: 68
    Spherical Harmonics?: false
    Max angular momentum: 2

  ==> Pre-Iterations <==

   -------------------------------------------------------
    Irrep   Nso     Nmo     Nalpha   Nbeta   Ndocc  Nsocc
   -------------------------------------------------------
     A         68      68       0       0       0       0
   -------------------------------------------------------
    Total      68      68      16      16      16       0
   -------------------------------------------------------

 OEINTS: Overlap, kinetic, potential, dipole, and quadrupole integrals
         stored in file 35.

  ==> Integral Setup <==

  ==> DFJK: Density-Fitted J/K Matrices <==

    J tasked:                  Yes
    K tasked:                  Yes
    wK tasked:                  No
    OpenMP threads:              4
    Integrals threads:           4
    Memory (MB):              1430
    Algorithm:                Core
    Integral Cache:           NONE
    Schwarz Cutoff:          1E-12
    Fitting Condition:       1E-12

   => Auxiliary Basis Set <=

  Basis Set: 
    Number of shells: 132
    Number of basis function: 424
    Number of Cartesian functions: 424
    Spherical Harmonics?: false
    Max angular momentum: 3

  Minimum eigenvalue in the overlap matrix is 5.2492378130E-03.
  Using Symmetric Orthogonalization.
  SCF Guess: Reading in previously saved MOs, projecting if necessary.

  Using orbitals from previous SCF, no projection.
  Recomputing DOCC and SOCC from number of alpha and beta electrons from previous calculation.
              A 
    DOCC [    16 ]

  ==> Iterations <==

                           Total Energy        Delta E     RMS |[F,P]|

   @DF-RHF iter   0:  -227.78631703357070   -2.27786e+02   1.30545e-04 
   @DF-RHF iter   1:  -227.78664840699167   -3.31373e-04   1.76027e-05 
   @DF-RHF iter   2:  -227.78664976462045   -1.35763e-06   6.31913e-06 DIIS
   @DF-RHF iter   3:  -227.78665000119747   -2.36577e-07   2.32035e-06 DIIS
   @DF-RHF iter   4:  -227.78665001969915   -1.85017e-08   9.78774e-07 DIIS
   @DF-RHF iter   5:  -227.78665002570830   -6.00915e-09   3.32860e-07 DIIS
   @DF-RHF iter   6:  -227.78665002636643   -6.58133e-10   1.00747e-07 DIIS
   @DF-RHF iter   7:  -227.78665002641088   -4.44516e-11   3.05362e-08 DIIS
   @DF-RHF iter   8:  -227.78665002641560   -4.71800e-12   1.03997e-08 DIIS
   @DF-RHF iter   9:  -227.78665002641634   -7.38964e-13   4.35044e-09 DIIS

  ==> Post-Iterations <==

    Orbital Energies (a.u.)
    -----------------------

    Doubly Occupied:                                                      

       1A    -20.614983     2A    -20.560909     3A    -11.380802  
       4A    -11.290023     5A     -1.478224     6A     -1.376882  
       7A     -0.997205     8A     -0.820121     9A     -0.744117  
      10A     -0.681418    11A     -0.678818    12A     -0.602980  
      13A     -0.557959    14A     -0.532205    15A     -0.465755  
      16A     -0.457802  

    Virtual:                                                              

      17A      0.187342    18A      0.254656    19A      0.275861  
      20A      0.310399    21A      0.322240    22A      0.327912  
      23A      0.444901    24A      0.509941    25A      0.708169  
      26A      0.733428    27A      0.766089    28A      0.774333  
      29A      0.834312    30A      0.981100    31A      0.997569  
      32A      1.087266    33A      1.095619    34A      1.117523  
      35A      1.127631    36A      1.198765    37A      1.205829  
      38A      1.262257    39A      1.330403    40A      1.345883  
      41A      1.406792    42A      1.492981    43A      1.661855  
      44A      1.688020    45A      1.716793    46A      1.832219  
      47A      1.897247    48A      1.966179    49A      2.077376  
      50A      2.139773    51A      2.218835    52A      2.350482  
      53A      2.376272    54A      2.417620    55A      2.526862  
      56A      2.620224    57A      2.640739    58A      2.748371  
      59A      2.832676    60A      2.990179    61A      3.065547  
      62A      3.269765    63A      3.319215    64A      3.455598  
      65A      4.260163    66A      4.376699    67A      4.578888  
      68A      4.701485  

    Final Occupation by Irrep:
              A 
    DOCC [    16 ]

  Energy converged.

  @DF-RHF Final Energy:  -227.78665002641634

   => Energetics <=

    Nuclear Repulsion Energy =            123.5695299067924253
    One-Electron Energy =                -556.2319568361913298
    Two-Electron Energy =                 204.8757769029824658
    DFT Exchange-Correlation Energy =       0.0000000000000000
    Empirical Dispersion Energy =           0.0000000000000000
    PCM Polarization Energy =               0.0000000000000000
    EFP Energy =                            0.0000000000000000
    Total Energy =                       -227.7866500264164529

    Alert: EFP and PCM quantities not currently incorporated into SCF psivars.

Properties will be evaluated at   0.000000,   0.000000,   0.000000 Bohr
  ==> Properties <==


Properties computed using the SCF density matrix

  Nuclear Dipole Moment: (a.u.)
     X:     1.9199      Y:    -2.7994      Z:    -0.9383

  Electronic Dipole Moment: (a.u.)
     X:    -1.1512      Y:     2.5851      Z:     0.7374

  Dipole Moment: (a.u.)
     X:     0.7687      Y:    -0.2142      Z:    -0.2010     Total:     0.8229

  Dipole Moment: (Debye)
     X:     1.9539      Y:    -0.5446      Z:    -0.5108     Total:     2.0917


  Saving occupied orbitals to File 180.

*** tstop() called on cx1-5-5-2.cx1.hpc.ic.ac.uk at Fri Sep  2 11:54:47 2016
Module time:
	user time   =       4.64 seconds =       0.08 minutes
	system time =       0.07 seconds =       0.00 minutes
	total time  =          2 seconds =       0.03 minutes
Total time:
	user time   =      66.45 seconds =       1.11 minutes
	system time =       1.31 seconds =       0.02 minutes
	total time  =         23 seconds =       0.38 minutes

*** tstart() called on cx1-5-5-2.cx1.hpc.ic.ac.uk
*** at Fri Sep  2 11:54:47 2016


         ------------------------------------------------------------
                                   SCF GRAD                          
                          Rob Parrish, Justin Turney,                
                       Andy Simmonett, and Alex Sokolov              
         ------------------------------------------------------------

  ==> Geometry <==

    Molecular point group: c1
    Full point group: C1

    Geometry (in Angstrom), charge = 0, multiplicity = 1:

       Center              X                  Y                   Z               Mass       
    ------------   -----------------  -----------------  -----------------  -----------------
           H          1.661809891109    -1.733256706316    -0.266120157890     1.007825032070
           C          0.679318041219    -1.289478375257    -0.283449911517    12.000000000000
           O          0.849706410788     0.049821584230     0.154874729815    15.994914619560
           H          0.013837495421    -1.826159423463     0.376586890880     1.007825032070
           H          0.279044445845    -1.305139562431    -1.287409523756     1.007825032070
           C         -0.207222471946     0.836895056537     0.100525874136    12.000000000000
           O         -1.333086582917     0.478045085592     0.045494791368    15.994914619560
           H          0.095741213993     1.875760619821     0.174978260255     1.007825032070

  Nuclear repulsion =  123.569529906792425

  ==> Basis Set <==

  Basis Set: 6-31G*
    Number of shells: 32
    Number of basis function: 68
    Number of Cartesian functions: 68
    Spherical Harmonics?: false
    Max angular momentum: 2

  ==> DFJKGrad: Density-Fitted SCF Gradients <==

    Gradient:                    1
    J tasked:                  Yes
    K tasked:                  Yes
    wK tasked:                  No
    OpenMP threads:              4
    Integrals threads:           4
    Memory (MB):              1430
    Schwarz Cutoff:          0E+00
    Fitting Condition:       1E-12

   => Auxiliary Basis Set <=

  Basis Set: 
    Number of shells: 132
    Number of basis function: 424
    Number of Cartesian functions: 424
    Spherical Harmonics?: false
    Max angular momentum: 3


  -Total Gradient:
     Atom            X                  Y                   Z
    ------   -----------------  -----------------  -----------------
       1       -0.000000104334    -0.000022132676    -0.000018264616
       2        0.001422709869     0.001549639562    -0.005070798475
       3       -0.002267027019    -0.002273523734     0.011428775986
       4        0.000002744473     0.000000294886    -0.000018317248
       5       -0.000001893742    -0.000002693174    -0.000008782108
       6        0.001119935137     0.000760349968    -0.013583398428
       7       -0.000301775628     0.000023664766     0.007272998294
       8        0.000025411242    -0.000035599597    -0.000002213406


*** tstop() called on cx1-5-5-2.cx1.hpc.ic.ac.uk at Fri Sep  2 11:54:49 2016
Module time:
	user time   =       6.59 seconds =       0.11 minutes
	system time =       0.14 seconds =       0.00 minutes
	total time  =          2 seconds =       0.03 minutes
Total time:
	user time   =      73.07 seconds =       1.22 minutes
	system time =       1.45 seconds =       0.02 minutes
	total time  =         25 seconds =       0.42 minutes
CURRENT ENERGY: -227.7866500264

			-----------------------------------------
			 OPTKING 2.0: for geometry optimizations 
			  - R.A. King,  Bethel University        
			-----------------------------------------

	Previous internal coordinate definitions found.
	---Fragment 1 Geometry and Gradient---
	 H           3.1403655791       -3.2753804929       -0.5028942169
	 C           1.2837250550       -2.4367609835       -0.5356427052
	 O           1.6057124097        0.0941491497        0.2926708243
	 H           0.0261490767       -3.4509411853        0.7116460890
	 H           0.5273175816       -2.4663563382       -2.4328514208
	 C          -0.3915937206        1.5815024588        0.1899663714
	 O          -2.5191685531        0.9033742909        0.0859726962
	 H           0.1809246741        3.5446738623        0.3306609911
	            -0.0000001043       -0.0000221327       -0.0000182646
	             0.0014227099        0.0015496396       -0.0050707985
	            -0.0022670270       -0.0022735237        0.0114287760
	             0.0000027445        0.0000002949       -0.0000183172
	            -0.0000018937       -0.0000026932       -0.0000087821
	             0.0011199351        0.0007603500       -0.0135833984
	            -0.0003017756        0.0000236648        0.0072729983
	             0.0000254112       -0.0000355996       -0.0000022134

	---Fragment 1 Intrafragment Coordinates---
	 - Coordinate -           - BOHR/RAD -       - ANG/DEG -
	 R(1,2)           =         2.037515	       1.078207
	 R(2,3)           =         2.682403	       1.419467
	 R(2,4)           =         2.041026	       1.080065
	 R(2,5)           =         2.042652	       1.080925
	 R(3,6)           =         2.492388	       1.318915
	 R(6,7)           =         2.235452	       1.182951
	 R(6,8)           =         2.049784	       1.084699
	 B(1,2,3)         =         1.848346	     105.902430
	 B(1,2,4)         =         1.925286	     110.310783
	 B(1,2,5)         =         1.924525	     110.267187
	 B(2,3,6)         =         2.042201	     117.009470
	 B(3,2,4)         =         1.932734	     110.737515
	 B(3,2,5)         =         1.922959	     110.177458
	 B(3,6,7)         =         2.193926	     125.702729
	 B(3,6,8)         =         1.922916	     110.174975
	 B(4,2,5)         =         1.909466	     109.404326
	 B(7,6,8)         =         2.164645	     124.025016
	 D(1,2,3,6)       =         3.036094	     173.955376
	*D(2,3,6,7)       =         0.349066	      19.999991
	 D(2,3,6,8)       =        -2.853283	    -163.481075
	 D(4,2,3,6)       =        -1.159844	     -66.454139
	 D(5,2,3,6)       =         0.955008	      54.717954

	Current energy   :      -227.7866500264

	Energy change for the previous step:
		Projected    :        -0.0000001144
		Actual       :        -0.0000010555

	Performing BFGS update.
	Previous computed or guess Hessian on step 1.
	Steps to be used in Hessian update: 5 4
	Taking RFO optimization step.
	Going to follow RFO solution 1.
	Using RFO vector 1.
	Norm of target step-size    0.00063
	Projected energy change by RFO approximation:        -0.0000000629

	Back-transformation to cartesian coordinates...
	Successfully converged to displaced geometry.

	Back-transformation to cartesian coordinates to adjust frozen coordinates...
	Successfully converged to displaced geometry.

	--- Internal Coordinate Step in ANG or DEG, aJ/ANG or AJ/DEG ---
	 ---------------------------------------------------------------------------
	   Coordinate                Previous        Force       Change         New 
	   ----------                --------       ------       ------       ------
	    1 R(1,2)          =      1.078207    -0.000072    -0.000016     1.078191
	    2 R(2,3)          =      1.419467     0.000247     0.000067     1.419533
	    3 R(2,4)          =      1.080065     0.000107     0.000020     1.080084
	    4 R(2,5)          =      1.080925    -0.000073    -0.000023     1.080902
	    5 R(3,6)          =      1.318915    -0.000253    -0.000031     1.318884
	    6 R(6,7)          =      1.182951     0.000480     0.000030     1.182980
	    7 R(6,8)          =      1.084699     0.000224     0.000042     1.084741
	    8 B(1,2,3)        =    105.902430    -0.000003    -0.015741   105.886689
	    9 B(1,2,4)        =    110.310783     0.000000    -0.000045   110.310738
	   10 B(1,2,5)        =    110.267187     0.000001     0.010422   110.277609
	   11 B(2,3,6)        =    117.009470    -0.000004    -0.012880   116.996589
	   12 B(3,2,4)        =    110.737515    -0.000001    -0.006088   110.731428
	   13 B(3,2,5)        =    110.177458     0.000001     0.004121   110.181579
	   14 B(3,6,7)        =    125.702729    -0.000000     0.000723   125.703451
	   15 B(3,6,8)        =    110.174975     0.000003     0.013029   110.188004
	   16 B(4,2,5)        =    109.404326     0.000001     0.006814   109.411140
	   17 B(7,6,8)        =    124.025016    -0.000002    -0.014017   124.010999
	   18 D(1,2,3,6)      =    173.955376     0.000000     0.000458   173.955834
	   19 *D(2,3,6,7)     =     19.999991    -0.000000     0.000000    19.999991
	   20 D(2,3,6,8)      =   -163.481075    -0.000000    -0.005196  -163.486271
	   21 D(4,2,3,6)      =    -66.454139    -0.000000    -0.012294   -66.466433
	   22 D(5,2,3,6)      =     54.717954     0.000000    -0.005007    54.712947
	 ---------------------------------------------------------------------------

  ==> Convergence Check <==

  Measures of convergence in internal coordinates in au.
  Criteria marked as inactive (o), active & met (*), and active & unmet ( ).
  ---------------------------------------------------------------------------------------------
   Step     Total Energy     Delta E     MAX Force     RMS Force      MAX Disp      RMS Disp   
  ---------------------------------------------------------------------------------------------
    Convergence Criteria    1.00e-06 *    3.00e-04 *             o    1.20e-03 *             o
  ---------------------------------------------------------------------------------------------
      6    -227.78665003   -1.06e-06      5.83e-05 *    2.57e-05 o    2.75e-04 *    1.34e-04 o  ~
  ---------------------------------------------------------------------------------------------


  **** Optimization is complete! (in 6 steps) ****

  ==> Optimization Summary <==

  Measures of convergence in internal coordinates in au.
  --------------------------------------------------------------------------------------------------------------- ~
   Step         Total Energy             Delta E       MAX Force       RMS Force        MAX Disp        RMS Disp  ~
  --------------------------------------------------------------------------------------------------------------- ~
      1    -227.785321426063   -227.785321426063      0.01538482      0.00606879      0.32433914      0.07577661  ~
      2    -227.782391680271      0.002929745791      0.03078535      0.00694821      0.30656169      0.06705257  ~
      3    -227.785369149788     -0.002977469517      0.01974717      0.00651032      0.05627570      0.02050401  ~
      4    -227.786640903691     -0.001271753903      0.00133196      0.00048258      0.01621563      0.00601817  ~
      5    -227.786648970909     -0.000008067218      0.00043972      0.00016346      0.00672813      0.00238048  ~
      6    -227.786650026416     -0.000001055508      0.00005831      0.00002566      0.00027473      0.00013421  ~
  --------------------------------------------------------------------------------------------------------------- ~

	Writing optimization data to binary file.
	Final energy is   -227.7866500264163
	Final (previous) structure:
	Cartesian Geometry (in Angstrom)
	    H     1.6618100180  -1.7332568387  -0.2661201782
	    C     0.6793180931  -1.2894784737  -0.2834499332
	    O     0.8497064757   0.0498215880   0.1548747416
	    H     0.0138374965  -1.8261595629   0.3765869196
	    H     0.2790444672  -1.3051396621  -1.2874096221
	    C    -0.2072224878   0.8368951204   0.1005258818
	    O    -1.3330866847   0.4780451221   0.0454947948
	    H     0.0957412213   1.8757607631   0.1749782736
	Saving final (previous) structure.
			--------------------------
			 OPTKING Finished Execution 
			--------------------------

    Final optimized geometry and variables:
    Molecular point group: c1
    Full point group: C1

    Geometry (in Angstrom), charge = 0, multiplicity = 1:

    H            1.661809891109    -1.733256706316    -0.266120157890
    C            0.679318041219    -1.289478375257    -0.283449911517
    O            0.849706410788     0.049821584230     0.154874729815
    H            0.013837495421    -1.826159423463     0.376586890880
    H            0.279044445845    -1.305139562431    -1.287409523756
    C           -0.207222471946     0.836895056537     0.100525874136
    O           -1.333086582917     0.478045085592     0.045494791368
    H            0.095741213993     1.875760619821     0.174978260255

	Cleaning optimization helper files.


Properties will be evaluated at   0.000000,   0.000000,   0.000000 Bohr

Properties computed using the  density matrix

  Nuclear Dipole Moment: (a.u.)
     X:     1.9199      Y:    -2.7994      Z:    -0.9383

  Electronic Dipole Moment: (a.u.)
     X:    -1.1512      Y:     2.5851      Z:     0.7374

  Dipole Moment: (a.u.)
     X:     0.7687      Y:    -0.2142      Z:    -0.2010     Total:     0.8229

  Dipole Moment: (Debye)
     X:     1.9539      Y:    -0.5446      Z:    -0.5108     Total:     2.0917

  Quadrupole Moment: (Debye Ang)
    XX:   -28.6728     YY:   -18.5765     ZZ:   -22.6903
    XY:    -0.2452     XZ:    -0.5743     YZ:     0.6383

  Traceless Quadrupole Moment: (Debye Ang)
    XX:    -5.3596     YY:     4.7367     ZZ:     0.6228
    XY:    -0.2452     XZ:    -0.5743     YZ:     0.6383

  Mulliken Charges: (a.u.)
   Center  Symbol    Alpha    Beta     Spin     Total
       1     H     0.40552  0.40552  0.00000  0.18896
       2     C     3.09556  3.09556  0.00000 -0.19112
       3     O     4.28583  4.28583  0.00000 -0.57167
       4     H     0.40457  0.40457  0.00000  0.19086
       5     H     0.40977  0.40977  0.00000  0.18045
       6     C     2.72940  2.72940  0.00000  0.54120
       7     O     4.25871  4.25871  0.00000 -0.51742
       8     H     0.41063  0.41063  0.00000  0.17873

   Total alpha = 16.00000, Total beta = 16.00000, Total charge = -0.00000


*** PSI4 exiting successfully. Buy a developer a beer!
