    -----------------------------------------------------------------------
          Psi4: An Open-Source Ab Initio Electronic Structure Package
                              Psi4 (no tag) Driver

                          Git: Rev {detached?}  

    J. M. Turney, A. C. Simmonett, R. M. Parrish, E. G. Hohenstein,
    F. A. Evangelista, J. T. Fermann, B. J. Mintz, L. A. Burns, J. J. Wilke,
    M. L. Abrams, N. J. Russ, M. L. Leininger, C. L. Janssen, E. T. Seidl,
    W. D. Allen, H. F. Schaefer, R. A. King, E. F. Valeev, C. D. Sherrill,
    and T. D. Crawford, WIREs Comput. Mol. Sci. 2, 556-565 (2012)
    (doi: 10.1002/wcms.93)

                         Additional Contributions by
    A. E. DePrince, M. Saitow, U. Bozkaya, A. Yu. Sokolov
    -----------------------------------------------------------------------


    Psi4 started on: Thu Sep  1 22:27:33 2016

    Process ID:  28701
    PSI4DATADIR: /export131/home/mjharvey/miniconda3/share
    Memory level set to 256.000 MB

  ==> Input File <==

--------------------------------------------------------------------------
set {
	reference rhf
	basis 6-31G*
}


set_num_threads( 1 )
memory 2 gb

molecule MOL {
0 1

H	 3.243298	 -0.767972	 0.773066
N	 3.092854	 -0.246221	 -0.068770
C	 1.865559	 0.531981	 0.018834
H	 3.033582	 -0.912414	 -0.815432
C	 0.645745	 -0.382037	 -0.029944
H	 1.841966	 1.207024	 -0.831236
H	 1.815756	 1.155410	 0.915079
C	 -0.679275	 0.379305	 0.025956
H	 0.698998	 -0.976915	 -0.937203
H	 0.693479	 -1.083846	 0.802235
C	 -1.903357	 -0.536963	 -0.023547
H	 -0.726309	 1.082987	 -0.803784
H	 -0.717680	 0.977832	 0.934877
C	 -3.225172	 0.228290	 0.028445
H	 -1.867824	 -1.134999	 -0.931459
H	 -1.860449	 -1.239604	 0.805977
H	 -3.313397	 0.915643	 -0.808262
H	 -4.073500	 -0.448134	 -0.008893
H	 -3.306061	 0.809945	 0.942516

	symmetry c1
}
set optking {
	frozen_dihedral = ("
		6 3 5 9,
		12 8 5 9,
		12 8 11 15
	")
}

ee = energy('scf')
oeprop('DIPOLE', 'QUADRUPOLE', 'MULLIKEN_CHARGES')
f=open( 'psi4out.xyz', 'w' )
f.write( "19  " )
f.write( str(ee) + "\n" )
f.write( MOL.save_string_xyz() )
f.close()
--------------------------------------------------------------------------

  Memory set to   2.000 GiB by Python script.

*** tstart() called on cx1-3-6-2.cx1.hpc.ic.ac.uk
*** at Thu Sep  1 22:27:33 2016


         ---------------------------------------------------------
                                   SCF
            by Justin Turney, Rob Parrish, and Andy Simmonett
                              RHF Reference
                        1 Threads,   2000 MiB Core
         ---------------------------------------------------------

  ==> Geometry <==

    Molecular point group: c1
    Full point group: C1

    Geometry (in Angstrom), charge = 0, multiplicity = 1:

       Center              X                  Y                   Z               Mass       
    ------------   -----------------  -----------------  -----------------  -----------------
           H          3.252737074039    -0.753974727549     0.780967850574     1.007825032070
           N          3.102293074039    -0.232223727549    -0.060868149426    14.003074004780
           C          1.874998074039     0.545978272451     0.026735850574    12.000000000000
           H          3.043021074039    -0.898416727549    -0.807530149426     1.007825032070
           C          0.655184074039    -0.368039727549    -0.022042149426    12.000000000000
           H          1.851405074039     1.221021272451    -0.823334149426     1.007825032070
           H          1.825195074039     1.169407272451     0.922980850574     1.007825032070
           C         -0.669835925961     0.393302272451     0.033857850574    12.000000000000
           H          0.708437074039    -0.962917727549    -0.929301149426     1.007825032070
           H          0.702918074039    -1.069848727549     0.810136850574     1.007825032070
           C         -1.893917925961    -0.522965727549    -0.015645149426    12.000000000000
           H         -0.716869925961     1.096984272451    -0.795882149426     1.007825032070
           H         -0.708240925961     0.991829272451     0.942778850574     1.007825032070
           C         -3.215732925961     0.242287272451     0.036346850574    12.000000000000
           H         -1.858384925961    -1.121001727549    -0.923557149426     1.007825032070
           H         -1.851009925961    -1.225606727549     0.813878850574     1.007825032070
           H         -3.303957925961     0.929640272451    -0.800360149426     1.007825032070
           H         -4.064060925961    -0.434136727549    -0.000991149426     1.007825032070
           H         -3.296621925961     0.823942272451     0.950417850574     1.007825032070

  Running in c1 symmetry.

  Rotational constants: A =      0.49790  B =      0.03849  C =      0.03713 [cm^-1]
  Rotational constants: A =  14926.65220  B =   1153.76721  C =   1113.17058 [MHz]
  Nuclear repulsion =  246.266575099852560

  Charge       = 0
  Multiplicity = 1
  Electrons    = 50
  Nalpha       = 25
  Nbeta        = 25

  ==> Algorithm <==

  SCF Algorithm Type is DF.
  DIIS enabled.
  MOM disabled.
  Fractional occupation disabled.
  Guess Type is CORE.
  Energy threshold   = 1.00e-06
  Density threshold  = 1.00e-06
  Integral threshold = 0.00e+00

  ==> Primary Basis <==

  Basis Set: 6-31G*
    Number of shells: 62
    Number of basis function: 116
    Number of Cartesian functions: 116
    Spherical Harmonics?: false
    Max angular momentum: 2

  ==> Pre-Iterations <==

   -------------------------------------------------------
    Irrep   Nso     Nmo     Nalpha   Nbeta   Ndocc  Nsocc
   -------------------------------------------------------
     A        116     116       0       0       0       0
   -------------------------------------------------------
    Total     116     116      25      25      25       0
   -------------------------------------------------------

 OEINTS: Overlap, kinetic, potential, dipole, and quadrupole integrals
         stored in file 35.

  ==> Integral Setup <==

  ==> DFJK: Density-Fitted J/K Matrices <==

    J tasked:                  Yes
    K tasked:                  Yes
    wK tasked:                  No
    OpenMP threads:              1
    Integrals threads:           1
    Memory (MB):              1430
    Algorithm:                Core
    Integral Cache:           NONE
    Schwarz Cutoff:          1E-12
    Fitting Condition:       1E-12

   => Auxiliary Basis Set <=

  Basis Set: 
    Number of shells: 261
    Number of basis function: 811
    Number of Cartesian functions: 811
    Spherical Harmonics?: false
    Max angular momentum: 3

  Minimum eigenvalue in the overlap matrix is 3.1327557507E-03.
  Using Symmetric Orthogonalization.
  SCF Guess: Core (One-Electron) Hamiltonian.

  ==> Iterations <==

                           Total Energy        Delta E     RMS |[F,P]|

   @DF-RHF iter   1:  -191.10376374800518   -1.91104e+02   7.06481e-02 
   @DF-RHF iter   2:   -93.56192535842951    9.75418e+01   8.54330e-02 DIIS
   @DF-RHF iter   3:  -182.22394185107242   -8.86620e+01   6.14501e-02 DIIS
   @DF-RHF iter   4:  -192.89087564805834   -1.06669e+01   5.42190e-02 DIIS
   @DF-RHF iter   5:  -218.11613401416048   -2.52253e+01   4.56954e-02 DIIS
   @DF-RHF iter   6:  -251.12290120453838   -3.30068e+01   5.58282e-03 DIIS
   @DF-RHF iter   7:  -251.30766434778263   -1.84763e-01   2.26430e-03 DIIS
   @DF-RHF iter   8:  -251.34374654463699   -3.60822e-02   7.08023e-04 DIIS
   @DF-RHF iter   9:  -251.34861485346499   -4.86831e-03   1.92667e-04 DIIS
   @DF-RHF iter  10:  -251.34905625239440   -4.41399e-04   7.68675e-05 DIIS
   @DF-RHF iter  11:  -251.34911641269235   -6.01603e-05   2.58470e-05 DIIS
   @DF-RHF iter  12:  -251.34912525441251   -8.84172e-06   5.47214e-06 DIIS
   @DF-RHF iter  13:  -251.34912552678037   -2.72368e-07   2.45053e-06 DIIS
   @DF-RHF iter  14:  -251.34912559015373   -6.33734e-08   3.97698e-07 DIIS

  ==> Post-Iterations <==

    Orbital Energies (a.u.)
    -----------------------

    Doubly Occupied:                                                      

       1A    -15.531022     2A    -11.240824     3A    -11.216523  
       4A    -11.215037     5A    -11.212460     6A    -11.209392  
       7A     -1.178546     8A     -1.075066     9A     -0.999439  
      10A     -0.901253    11A     -0.819397    12A     -0.793247  
      13A     -0.679535    14A     -0.637469    15A     -0.600916  
      16A     -0.583096    17A     -0.574760    18A     -0.560483  
      19A     -0.519765    20A     -0.506958    21A     -0.481650  
      22A     -0.472435    23A     -0.467693    24A     -0.464257  
      25A     -0.371451  

    Virtual:                                                              

      26A      0.222849    27A      0.235509    28A      0.261234  
      29A      0.268097    30A      0.278024    31A      0.308242  
      32A      0.318700    33A      0.336498    34A      0.338666  
      35A      0.342855    36A      0.346646    37A      0.363652  
      38A      0.369441    39A      0.396368    40A      0.406715  
      41A      0.445577    42A      0.479004    43A      0.495971  
      44A      0.694670    45A      0.724801    46A      0.751028  
      47A      0.755263    48A      0.767857    49A      0.802544  
      50A      0.815231    51A      0.872700    52A      0.919020  
      53A      0.929654    54A      0.956029    55A      0.985855  
      56A      1.015638    57A      1.037686    58A      1.059268  
      59A      1.097670    60A      1.108291    61A      1.130310  
      62A      1.174334    63A      1.178065    64A      1.179746  
      65A      1.205129    66A      1.207358    67A      1.217254  
      68A      1.219114    69A      1.224603    70A      1.230335  
      71A      1.248780    72A      1.256152    73A      1.269818  
      74A      1.287610    75A      1.434834    76A      1.574051  
      77A      1.664965    78A      1.679235    79A      1.692983  
      80A      1.749611    81A      1.768067    82A      1.821641  
      83A      1.927196    84A      2.034532    85A      2.091515  
      86A      2.162006    87A      2.175556    88A      2.221506  
      89A      2.255656    90A      2.264650    91A      2.304929  
      92A      2.326051    93A      2.361580    94A      2.402253  
      95A      2.422064    96A      2.462054    97A      2.499182  
      98A      2.589613    99A      2.638718   100A      2.666954  
     101A      2.696601   102A      2.748254   103A      2.789624  
     104A      2.833283   105A      2.864017   106A      2.928653  
     107A      2.952279   108A      3.026194   109A      3.152994  
     110A      3.192527   111A      4.230231   112A      4.574257  
     113A      4.676286   114A      4.769454   115A      4.856658  
     116A      4.986832  

    Final Occupation by Irrep:
              A 
    DOCC [    25 ]

  Energy converged.

  @DF-RHF Final Energy:  -251.34912559015373

   => Energetics <=

    Nuclear Repulsion Energy =            246.2665750998525596
    One-Electron Energy =                -826.6059462212735980
    Two-Electron Energy =                 328.9902455312676466
    DFT Exchange-Correlation Energy =       0.0000000000000000
    Empirical Dispersion Energy =           0.0000000000000000
    PCM Polarization Energy =               0.0000000000000000
    EFP Energy =                            0.0000000000000000
    Total Energy =                       -251.3491255901533350

    Alert: EFP and PCM quantities not currently incorporated into SCF psivars.

Properties will be evaluated at   0.000000,   0.000000,   0.000000 Bohr
  ==> Properties <==


Properties computed using the SCF density matrix

  Nuclear Dipole Moment: (a.u.)
     X:    -4.1483      Y:    -0.2178      Z:     0.1316

  Electronic Dipole Moment: (a.u.)
     X:     3.6847      Y:    -0.1720      Z:    -0.0327

  Dipole Moment: (a.u.)
     X:    -0.4636      Y:    -0.3899      Z:     0.0989     Total:     0.6138

  Dipole Moment: (Debye)
     X:    -1.1784      Y:    -0.9909      Z:     0.2513     Total:     1.5600


  Saving occupied orbitals to File 180.

*** tstop() called on cx1-3-6-2.cx1.hpc.ic.ac.uk at Thu Sep  1 22:27:41 2016
Module time:
	user time   =       7.90 seconds =       0.13 minutes
	system time =       0.04 seconds =       0.00 minutes
	total time  =          8 seconds =       0.13 minutes
Total time:
	user time   =       7.90 seconds =       0.13 minutes
	system time =       0.04 seconds =       0.00 minutes
	total time  =          8 seconds =       0.13 minutes


Properties will be evaluated at   0.000000,   0.000000,   0.000000 Bohr

Properties computed using the  density matrix

  Nuclear Dipole Moment: (a.u.)
     X:    -4.1483      Y:    -0.2178      Z:     0.1316

  Electronic Dipole Moment: (a.u.)
     X:     3.6847      Y:    -0.1720      Z:    -0.0327

  Dipole Moment: (a.u.)
     X:    -0.4636      Y:    -0.3899      Z:     0.0989     Total:     0.6138

  Dipole Moment: (Debye)
     X:    -1.1784      Y:    -0.9909      Z:     0.2513     Total:     1.5600

  Quadrupole Moment: (Debye Ang)
    XX:   -49.8231     YY:   -40.0974     ZZ:   -38.8942
    XY:    -3.7763     XZ:     1.1444     YZ:     0.2221

  Traceless Quadrupole Moment: (Debye Ang)
    XX:    -6.8849     YY:     2.8408     ZZ:     4.0441
    XY:    -3.7763     XZ:     1.1444     YZ:     0.2221

  Mulliken Charges: (a.u.)
   Center  Symbol    Alpha    Beta     Spin     Total
       1     H     0.33518  0.33518  0.00000  0.32965
       2     N     3.91799  3.91799  0.00000 -0.83599
       3     C     3.06206  3.06206  0.00000 -0.12411
       4     H     0.33413  0.33413  0.00000  0.33174
       5     C     3.15788  3.15788  0.00000 -0.31577
       6     H     0.41835  0.41835  0.00000  0.16329
       7     H     0.41883  0.41883  0.00000  0.16233
       8     C     3.15541  3.15541  0.00000 -0.31083
       9     H     0.42695  0.42695  0.00000  0.14610
      10     H     0.42702  0.42702  0.00000  0.14596
      11     C     3.15068  3.15068  0.00000 -0.30137
      12     H     0.42323  0.42323  0.00000  0.15354
      13     H     0.42383  0.42383  0.00000  0.15234
      14     C     3.23932  3.23932  0.00000 -0.47865
      15     H     0.42312  0.42312  0.00000  0.15377
      16     H     0.42332  0.42332  0.00000  0.15336
      17     H     0.42160  0.42160  0.00000  0.15680
      18     H     0.41930  0.41930  0.00000  0.16140
      19     H     0.42178  0.42178  0.00000  0.15644

   Total alpha = 25.00000, Total beta = 25.00000, Total charge = -0.00000


*** PSI4 exiting successfully. Buy a developer a beer!
