    -----------------------------------------------------------------------
          Psi4: An Open-Source Ab Initio Electronic Structure Package
                              Psi4 (no tag) Driver

                          Git: Rev {detached?}  

    J. M. Turney, A. C. Simmonett, R. M. Parrish, E. G. Hohenstein,
    F. A. Evangelista, J. T. Fermann, B. J. Mintz, L. A. Burns, J. J. Wilke,
    M. L. Abrams, N. J. Russ, M. L. Leininger, C. L. Janssen, E. T. Seidl,
    W. D. Allen, H. F. Schaefer, R. A. King, E. F. Valeev, C. D. Sherrill,
    and T. D. Crawford, WIREs Comput. Mol. Sci. 2, 556-565 (2012)
    (doi: 10.1002/wcms.93)

                         Additional Contributions by
    A. E. DePrince, M. Saitow, U. Bozkaya, A. Yu. Sokolov
    -----------------------------------------------------------------------


    Psi4 started on: Fri Sep  2 12:58:28 2016

    Process ID:  28438
    PSI4DATADIR: /export131/home/mjharvey/miniconda3/share
    Memory level set to 256.000 MB

  ==> Input File <==

--------------------------------------------------------------------------
set {
	reference rhf
	basis 6-31G*
}


set_num_threads( 4 )
memory 2 gb

molecule MOL {
0 1

H	 -2.365627	 -1.312883	 -0.379134
C	 -1.358347	 -1.274295	 0.019669
C	 -0.681945	 0.000119	 -0.470601
H	 -0.826096	 -2.155117	 -0.321105
H	 -1.409554	 -1.292283	 1.100109
C	 -1.357790	 1.274691	 0.020220
N	 0.739525	 -0.000142	 0.006128
H	 -0.594190	 0.000341	 -1.545128
H	 -2.364980	 1.313977	 -0.378631
H	 -0.825080	 2.155361	 -0.320114
H	 -1.409060	 1.292170	 1.100671
O	 1.375949	 -0.993755	 -0.162036
O	 1.143876	 0.996478	 0.524442

	symmetry c1
}
set optking {
	frozen_dihedral = ("
		12 7 3 8
	")
}

ee = optimize('scf')
oeprop('DIPOLE', 'QUADRUPOLE', 'MULLIKEN_CHARGES')
f=open( 'psi4out.xyz', 'w' )
f.write( "13  " )
f.write( str(ee) + "\n" )
f.write( MOL.save_string_xyz() )
f.close()
--------------------------------------------------------------------------

  Memory set to   2.000 GiB by Python script.
gradient() will perform analytic gradient computation.

*** tstart() called on cx1-1-4-2.cx1.hpc.ic.ac.uk
*** at Fri Sep  2 12:58:28 2016


         ---------------------------------------------------------
                                   SCF
            by Justin Turney, Rob Parrish, and Andy Simmonett
                              RHF Reference
                        4 Threads,   2000 MiB Core
         ---------------------------------------------------------

  ==> Geometry <==

    Molecular point group: c1
    Full point group: C1

    Geometry (in Angstrom), charge = 0, multiplicity = 1:

       Center              X                  Y                   Z               Mass       
    ------------   -----------------  -----------------  -----------------  -----------------
           H         -2.365759457998    -1.313436905176    -0.378738383492     1.007825032070
           C         -1.358479457998    -1.274848905176     0.020064616508    12.000000000000
           C         -0.682077457998    -0.000434905176    -0.470205383492    12.000000000000
           H         -0.826228457998    -2.155670905176    -0.320709383492     1.007825032070
           H         -1.409686457998    -1.292836905176     1.100504616508     1.007825032070
           C         -1.357922457998     1.274137094824     0.020615616508    12.000000000000
           N          0.739392542002    -0.000695905176     0.006523616508    14.003074004780
           H         -0.594322457998    -0.000212905176    -1.544732383492     1.007825032070
           H         -2.365112457998     1.313423094824    -0.378235383492     1.007825032070
           H         -0.825212457998     2.154807094824    -0.319718383492     1.007825032070
           H         -1.409192457998     1.291616094824     1.101066616508     1.007825032070
           O          1.375816542002    -0.994308905176    -0.161640383492    15.994914619560
           O          1.143743542002     0.995924094824     0.524837616508    15.994914619560

  Running in c1 symmetry.

  Rotational constants: A =      0.17075  B =      0.12296  C =      0.07840 [cm^-1]
  Rotational constants: A =   5119.09781  B =   3686.18182  C =   2350.39362 [MHz]
  Nuclear repulsion =  257.665446219329908

  Charge       = 0
  Multiplicity = 1
  Electrons    = 48
  Nalpha       = 24
  Nbeta        = 24

  ==> Algorithm <==

  SCF Algorithm Type is DF.
  DIIS enabled.
  MOM disabled.
  Fractional occupation disabled.
  Guess Type is CORE.
  Energy threshold   = 1.00e-08
  Density threshold  = 1.00e-08
  Integral threshold = 0.00e+00

  ==> Primary Basis <==

  Basis Set: 6-31G*
    Number of shells: 50
    Number of basis function: 104
    Number of Cartesian functions: 104
    Spherical Harmonics?: false
    Max angular momentum: 2

  ==> Pre-Iterations <==

   -------------------------------------------------------
    Irrep   Nso     Nmo     Nalpha   Nbeta   Ndocc  Nsocc
   -------------------------------------------------------
     A        104     104       0       0       0       0
   -------------------------------------------------------
    Total     104     104      24      24      24       0
   -------------------------------------------------------

 OEINTS: Overlap, kinetic, potential, dipole, and quadrupole integrals
         stored in file 35.

  ==> Integral Setup <==

  ==> DFJK: Density-Fitted J/K Matrices <==

    J tasked:                  Yes
    K tasked:                  Yes
    wK tasked:                  No
    OpenMP threads:              4
    Integrals threads:           4
    Memory (MB):              1430
    Algorithm:                Core
    Integral Cache:           NONE
    Schwarz Cutoff:          1E-12
    Fitting Condition:       1E-12

   => Auxiliary Basis Set <=

  Basis Set: 
    Number of shells: 207
    Number of basis function: 661
    Number of Cartesian functions: 661
    Spherical Harmonics?: false
    Max angular momentum: 3

  Minimum eigenvalue in the overlap matrix is 2.5747354873E-03.
  Using Symmetric Orthogonalization.
  SCF Guess: Core (One-Electron) Hamiltonian.

  ==> Iterations <==

                           Total Energy        Delta E     RMS |[F,P]|

   @DF-RHF iter   1:  -237.58520216531105   -2.37585e+02   8.68559e-02 
   @DF-RHF iter   2:  -211.62747413591831    2.59577e+01   6.87171e-02 DIIS
   @DF-RHF iter   3:  -257.76276108276949   -4.61353e+01   7.15906e-02 DIIS
   @DF-RHF iter   4:  -317.51670745874964   -5.97539e+01   2.21659e-02 DIIS
   @DF-RHF iter   5:  -321.33730221620198   -3.82059e+00   7.91288e-03 DIIS
   @DF-RHF iter   6:  -321.69723094323280   -3.59929e-01   2.55803e-03 DIIS
   @DF-RHF iter   7:  -321.72761781295520   -3.03869e-02   1.15155e-03 DIIS
   @DF-RHF iter   8:  -321.73352655145385   -5.90874e-03   6.55136e-04 DIIS
   @DF-RHF iter   9:  -321.73590697168260   -2.38042e-03   2.67535e-04 DIIS
   @DF-RHF iter  10:  -321.73641732193681   -5.10350e-04   9.84935e-05 DIIS
   @DF-RHF iter  11:  -321.73648764015724   -7.03182e-05   3.85912e-05 DIIS
   @DF-RHF iter  12:  -321.73650229114577   -1.46510e-05   1.02830e-05 DIIS
   @DF-RHF iter  13:  -321.73650390814845   -1.61700e-06   4.37023e-06 DIIS
   @DF-RHF iter  14:  -321.73650437247812   -4.64330e-07   1.91629e-06 DIIS
   @DF-RHF iter  15:  -321.73650449140831   -1.18930e-07   7.09704e-07 DIIS
   @DF-RHF iter  16:  -321.73650450798965   -1.65813e-08   2.12261e-07 DIIS
   @DF-RHF iter  17:  -321.73650450895178   -9.62132e-10   6.40930e-08 DIIS
   @DF-RHF iter  18:  -321.73650450901579   -6.40057e-11   2.39689e-08 DIIS
   @DF-RHF iter  19:  -321.73650450902534   -9.54969e-12   1.26109e-08 DIIS
   @DF-RHF iter  20:  -321.73650450902750   -2.16005e-12   4.89936e-09 DIIS

  ==> Post-Iterations <==

    Orbital Energies (a.u.)
    -----------------------

    Doubly Occupied:                                                      

       1A    -20.600976     2A    -20.598837     3A    -15.844260  
       4A    -11.306797     5A    -11.243782     6A    -11.238153  
       7A     -1.629725     8A     -1.415545     9A     -1.142958  
      10A     -0.967781    11A     -0.958115    12A     -0.812760  
      13A     -0.763834    14A     -0.726087    15A     -0.720917  
      16A     -0.639316    17A     -0.593938    18A     -0.583109  
      19A     -0.571538    20A     -0.525882    21A     -0.519144  
      22A     -0.479927    23A     -0.472846    24A     -0.447590  

    Virtual:                                                              

      25A      0.121030    26A      0.221751    27A      0.262273  
      28A      0.272286    29A      0.284854    30A      0.301038  
      31A      0.329039    32A      0.337312    33A      0.348208  
      34A      0.384753    35A      0.401653    36A      0.535766  
      37A      0.614501    38A      0.678289    39A      0.695316  
      40A      0.723616    41A      0.755780    42A      0.811635  
      43A      0.842710    44A      0.892301    45A      0.934287  
      46A      0.954512    47A      0.964838    48A      1.015529  
      49A      1.053460    50A      1.075330    51A      1.108150  
      52A      1.115100    53A      1.134950    54A      1.152553  
      55A      1.169051    56A      1.191256    57A      1.204550  
      58A      1.227253    59A      1.253392    60A      1.265996  
      61A      1.314853    62A      1.322404    63A      1.374490  
      64A      1.399260    65A      1.554823    66A      1.596754  
      67A      1.698714    68A      1.734977    69A      1.832831  
      70A      1.848644    71A      1.955876    72A      2.008055  
      73A      2.015555    74A      2.076988    75A      2.126408  
      76A      2.142674    77A      2.183857    78A      2.215377  
      79A      2.249676    80A      2.292913    81A      2.350997  
      82A      2.402253    83A      2.413541    84A      2.442250  
      85A      2.520497    86A      2.571599    87A      2.592750  
      88A      2.694929    89A      2.706634    90A      2.809362  
      91A      2.889695    92A      2.918077    93A      2.945980  
      94A      3.087973    95A      3.231257    96A      3.295626  
      97A      3.330142    98A      3.512398    99A      4.125520  
     100A      4.234247   101A      4.308005   102A      4.609016  
     103A      4.722187   104A      4.950477  

    Final Occupation by Irrep:
              A 
    DOCC [    24 ]

  Energy converged.

  @DF-RHF Final Energy:  -321.73650450902750

   => Energetics <=

    Nuclear Repulsion Energy =            257.6654462193299082
    One-Electron Energy =                -949.1962613655881569
    Two-Electron Energy =                 369.7943106372307511
    DFT Exchange-Correlation Energy =       0.0000000000000000
    Empirical Dispersion Energy =           0.0000000000000000
    PCM Polarization Energy =               0.0000000000000000
    EFP Energy =                            0.0000000000000000
    Total Energy =                       -321.7365045090274407

    Alert: EFP and PCM quantities not currently incorporated into SCF psivars.

Properties will be evaluated at   0.000000,   0.000000,   0.000000 Bohr
  ==> Properties <==


Properties computed using the SCF density matrix

  Nuclear Dipole Moment: (a.u.)
     X:    -9.1730      Y:    -0.0022      Z:    -0.6925

  Electronic Dipole Moment: (a.u.)
     X:     7.6214      Y:    -0.0029      Z:     0.2375

  Dipole Moment: (a.u.)
     X:    -1.5517      Y:    -0.0051      Z:    -0.4550     Total:     1.6170

  Dipole Moment: (Debye)
     X:    -3.9439      Y:    -0.0129      Z:    -1.1565     Total:     4.1100


  Saving occupied orbitals to File 180.

*** tstop() called on cx1-1-4-2.cx1.hpc.ic.ac.uk at Fri Sep  2 12:58:31 2016
Module time:
	user time   =       9.09 seconds =       0.15 minutes
	system time =       0.11 seconds =       0.00 minutes
	total time  =          3 seconds =       0.05 minutes
Total time:
	user time   =       9.09 seconds =       0.15 minutes
	system time =       0.11 seconds =       0.00 minutes
	total time  =          3 seconds =       0.05 minutes

*** tstart() called on cx1-1-4-2.cx1.hpc.ic.ac.uk
*** at Fri Sep  2 12:58:31 2016


         ------------------------------------------------------------
                                   SCF GRAD                          
                          Rob Parrish, Justin Turney,                
                       Andy Simmonett, and Alex Sokolov              
         ------------------------------------------------------------

  ==> Geometry <==

    Molecular point group: c1
    Full point group: C1

    Geometry (in Angstrom), charge = 0, multiplicity = 1:

       Center              X                  Y                   Z               Mass       
    ------------   -----------------  -----------------  -----------------  -----------------
           H         -2.365759457998    -1.313436905176    -0.378738383492     1.007825032070
           C         -1.358479457998    -1.274848905176     0.020064616508    12.000000000000
           C         -0.682077457998    -0.000434905176    -0.470205383492    12.000000000000
           H         -0.826228457998    -2.155670905176    -0.320709383492     1.007825032070
           H         -1.409686457998    -1.292836905176     1.100504616508     1.007825032070
           C         -1.357922457998     1.274137094824     0.020615616508    12.000000000000
           N          0.739392542002    -0.000695905176     0.006523616508    14.003074004780
           H         -0.594322457998    -0.000212905176    -1.544732383492     1.007825032070
           H         -2.365112457998     1.313423094824    -0.378235383492     1.007825032070
           H         -0.825212457998     2.154807094824    -0.319718383492     1.007825032070
           H         -1.409192457998     1.291616094824     1.101066616508     1.007825032070
           O          1.375816542002    -0.994308905176    -0.161640383492    15.994914619560
           O          1.143743542002     0.995924094824     0.524837616508    15.994914619560

  Nuclear repulsion =  257.665446219329851

  ==> Basis Set <==

  Basis Set: 6-31G*
    Number of shells: 50
    Number of basis function: 104
    Number of Cartesian functions: 104
    Spherical Harmonics?: false
    Max angular momentum: 2

  ==> DFJKGrad: Density-Fitted SCF Gradients <==

    Gradient:                    1
    J tasked:                  Yes
    K tasked:                  Yes
    wK tasked:                  No
    OpenMP threads:              4
    Integrals threads:           4
    Memory (MB):              1430
    Schwarz Cutoff:          0E+00
    Fitting Condition:       1E-12

   => Auxiliary Basis Set <=

  Basis Set: 
    Number of shells: 207
    Number of basis function: 661
    Number of Cartesian functions: 661
    Spherical Harmonics?: false
    Max angular momentum: 3


  -Total Gradient:
     Atom            X                  Y                   Z
    ------   -----------------  -----------------  -----------------
       1        0.000452247430    -0.000730500803    -0.001285075014
       2       -0.000905845302     0.004194471327     0.006523335969
       3        0.003263401721    -0.004812362201    -0.008674338135
       4        0.001201954156    -0.002282939979    -0.001312693268
       5        0.000497005029    -0.000257769686    -0.001590191277
       6        0.002247379160    -0.001354778057     0.006766197961
       7       -0.001766853770    -0.004400124678    -0.004501478975
       8       -0.000402623513     0.001385028778     0.003161710918
       9        0.000999271309     0.001208638230    -0.000327730163
      10        0.002210220404     0.002076986317    -0.001851400443
      11        0.000143552570    -0.000776610193    -0.000020382124
      12       -0.001969368995     0.000170999716     0.001877977691
      13       -0.005970340198     0.005578961231     0.001234066859


*** tstop() called on cx1-1-4-2.cx1.hpc.ic.ac.uk at Fri Sep  2 12:58:35 2016
Module time:
	user time   =      11.25 seconds =       0.19 minutes
	system time =       0.15 seconds =       0.00 minutes
	total time  =          4 seconds =       0.07 minutes
Total time:
	user time   =      20.36 seconds =       0.34 minutes
	system time =       0.26 seconds =       0.00 minutes
	total time  =          7 seconds =       0.12 minutes
CURRENT ENERGY: -321.7365045090

			-----------------------------------------
			 OPTKING 2.0: for geometry optimizations 
			  - R.A. King,  Bethel University        
			-----------------------------------------

	Internal coordinates to be generated automatically.
	Detected frag with atoms:  1 2 3 4 5 6 7 8 9 10 11 12 13
	---Fragment 1 Bond Connectivity---
	 1 : 2
	 2 : 1 3 4 5
	 3 : 2 6 7 8
	 4 : 2
	 5 : 2
	 6 : 3 9 10 11
	 7 : 3 12 13
	 8 : 3
	 9 : 6
	 10 : 6
	 11 : 6
	 12 : 7
	 13 : 7

	Assuming in current code that numbering for constraints corresponds to unified fragment.
	Frozen dihedral atom list: 
	    12     7     3     8
	---Fragment 1 Geometry and Gradient---
	 H          -4.4706374719       -2.4820360436       -0.7157118208
	 C          -2.5671541328       -2.4091152916        0.0379166302
	 C          -1.2889395970       -0.0008218517       -0.8885594010
	 H          -1.5613455088       -4.0736276434       -0.6060529030
	 H          -2.6639213389       -2.4431076853        2.0796523332
	 C          -2.5661015553        2.4077701650        0.0389578693
	 N           1.3972494091       -0.0013150702        0.0123278486
	 H          -1.1231066802       -0.0004023325       -2.9191211534
	 H          -4.4694148191        2.4820099458       -0.7147612886
	 H          -1.5594255471        4.0719952784       -0.6041801844
	 H          -2.6629878141        2.4408006880        2.0807143593
	 O           2.5999164735       -1.8789715223       -0.3054560568
	 O           2.1613620606        1.8820237884        0.9917993594
	             0.0004522474       -0.0007305008       -0.0012850750
	            -0.0009058453        0.0041944713        0.0065233360
	             0.0032634017       -0.0048123622       -0.0086743381
	             0.0012019542       -0.0022829400       -0.0013126933
	             0.0004970050       -0.0002577697       -0.0015901913
	             0.0022473792       -0.0013547781        0.0067661980
	            -0.0017668538       -0.0044001247       -0.0045014790
	            -0.0004026235        0.0013850288        0.0031617109
	             0.0009992713        0.0012086382       -0.0003277302
	             0.0022102204        0.0020769863       -0.0018514004
	             0.0001435526       -0.0007766102       -0.0000203821
	            -0.0019693690        0.0001709997        0.0018779777
	            -0.0059703402        0.0055789612        0.0012340669

	Previous optimization step data not found.  Starting new optimization.

	---Fragment 1 Intrafragment Coordinates---
	 - Coordinate -           - BOHR/RAD -       - ANG/DEG -
	 R(1,2)           =         2.048541	       1.084042
	 R(2,3)           =         2.879595	       1.523816
	 R(2,4)           =         2.048646	       1.084097
	 R(2,5)           =         2.044310	       1.081802
	 R(3,6)           =         2.879713	       1.523879
	 R(3,7)           =         2.833233	       1.499282
	 R(3,8)           =         2.037322	       1.078105
	 R(6,9)           =         2.048464	       1.084001
	 R(6,10)          =         2.048577	       1.084060
	 R(6,11)          =         2.044321	       1.081808
	 R(7,12)          =         2.252330	       1.191882
	 R(7,13)          =         2.256147	       1.193901
	 B(1,2,3)         =         1.900606	     108.896683
	 B(1,2,4)         =         1.887709	     108.157777
	 B(1,2,5)         =         1.899532	     108.835194
	 B(2,3,6)         =         1.981238	     113.516556
	 B(2,3,7)         =         1.894838	     108.566198
	 B(2,3,8)         =         1.935823	     110.914486
	 B(3,2,4)         =         1.939543	     111.127635
	 B(3,2,5)         =         1.935049	     110.870123
	 B(3,6,9)         =         1.900624	     108.897740
	 B(3,6,10)        =         1.939514	     111.125977
	 B(3,6,11)        =         1.935011	     110.867957
	 B(3,7,12)        =         2.050521	     117.486223
	 B(3,7,13)        =         2.047666	     117.322604
	 B(4,2,5)         =         1.900405	     108.885196
	 B(6,3,7)         =         1.894644	     108.555115
	 B(6,3,8)         =         1.935793	     110.912742
	 B(7,3,8)         =         1.812898	     103.871395
	 B(9,6,10)        =         1.887701	     108.157302
	 B(9,6,11)        =         1.899548	     108.836079
	 B(10,6,11)       =         1.900448	     108.887630
	 B(12,7,13)       =         2.184998	     125.191173
	 D(1,2,3,6)       =         1.100576	      63.058377
	 D(1,2,3,7)       =        -3.074006	    -176.127574
	 D(1,2,3,8)       =        -1.092673	     -62.605569
	 D(2,3,6,9)       =        -1.100684	     -63.064529
	 D(2,3,6,10)      =         3.104899	     177.897620
	 D(2,3,6,11)      =         0.988773	      56.652537
	 D(2,3,7,12)      =         0.839296	      48.088097
	 D(2,3,7,13)      =        -2.302407	    -131.918201
	 D(4,2,3,6)       =        -3.104991	    -177.902851
	 D(4,2,3,7)       =        -0.996388	     -57.088803
	 D(4,2,3,8)       =         0.984945	      56.433203
	 D(5,2,3,6)       =        -0.988873	     -56.658251
	 D(5,2,3,7)       =         1.119730	      64.155798
	 D(5,2,3,8)       =         3.101063	     177.677803
	 D(6,3,7,12)      =         3.000553	     171.918998
	 D(6,3,7,13)      =        -0.141150	      -8.087300
	 D(7,3,6,9)       =         3.073790	     176.115185
	 D(7,3,6,10)      =         0.996187	      57.077333
	 D(7,3,6,11)      =        -1.119939	     -64.167750
	 D(8,3,6,9)       =         1.092582	      62.600345
	 D(8,3,6,10)      =        -0.985020	     -56.437506
	 D(8,3,6,11)      =        -3.101146	    -177.682589
	*D(8,3,7,12)      =        -1.221730	     -69.999999
	 D(8,3,7,13)      =         1.919752	     109.993703

	Current energy   :      -321.7365045090

	Generating empirical Hessian (Schlegel '84) for each fragment.
	Taking RFO optimization step.
	Going to follow RFO solution 1.
	Using RFO vector 1.
	Norm of target step-size    0.31359
	Projected energy change by RFO approximation:         0.0017795235

	Back-transformation to cartesian coordinates...
	Successfully converged to displaced geometry.

	Back-transformation to cartesian coordinates to adjust frozen coordinates...
	Successfully converged to displaced geometry.

	--- Internal Coordinate Step in ANG or DEG, aJ/ANG or AJ/DEG ---
	 ---------------------------------------------------------------------------
	   Coordinate                Previous        Force       Change         New 
	   ----------                --------       ------       ------       ------
	    1 R(1,2)          =      1.084042    -0.000647    -0.000116     1.083926
	    2 R(2,3)          =      1.523816     0.004726     0.001000     1.524816
	    3 R(2,4)          =      1.084097    -0.023543    -0.004218     1.079879
	    4 R(2,5)          =      1.081802     0.013243     0.002355     1.084157
	    5 R(3,6)          =      1.523879     0.000392     0.000083     1.523961
	    6 R(3,7)          =      1.499282     0.079461     0.015560     1.514843
	    7 R(3,8)          =      1.078105     0.026230     0.004607     1.082711
	    8 R(6,9)          =      1.084001     0.006295     0.001127     1.085128
	    9 R(6,10)         =      1.084060    -0.027638    -0.004951     1.079109
	   10 R(6,11)         =      1.081808     0.000327     0.000058     1.081866
	   11 R(7,12)         =      1.191882     0.012021     0.000706     1.192588
	   12 R(7,13)         =      1.193901    -0.026123    -0.001549     1.192352
	   13 B(1,2,3)        =    108.896683     0.000003     0.006499   108.903182
	   14 B(1,2,4)        =    108.157777     0.000037     0.514950   108.672727
	   15 B(1,2,5)        =    108.835194    -0.000041    -0.543240   108.291954
	   16 B(2,3,6)        =    113.516556    -0.000251    -0.442708   113.073848
	   17 B(2,3,7)        =    108.566198    -0.000204     0.280927   108.847125
	   18 B(2,3,8)        =    110.914486     0.000137    -1.314093   109.600393
	   19 B(3,2,4)        =    111.127635     0.000031     0.316821   111.444455
	   20 B(3,2,5)        =    110.870123    -0.000030    -0.308045   110.562079
	   21 B(3,6,9)        =    108.897740    -0.000115    -0.588441   108.309299
	   22 B(3,6,10)       =    111.125977     0.000137     0.778620   111.904597
	   23 B(3,6,11)       =    110.867957     0.000061     0.190437   111.058394
	   24 B(3,7,12)       =    117.486223    -0.000356    -1.156905   116.329318
	   25 B(3,7,13)       =    117.322604     0.000828     2.360710   119.683315
	   26 B(4,2,5)        =    108.885196     0.000000     0.008299   108.893495
	   27 B(6,3,7)        =    108.555115     0.000668     4.381943   112.937059
	   28 B(6,3,8)        =    110.912742    -0.000148    -1.733029   109.179713
	   29 B(7,3,8)        =    103.871395    -0.000180    -1.196273   102.675122
	   30 B(9,6,10)       =    108.157302     0.000020     0.276972   108.434275
	   31 B(9,6,11)       =    108.836079    -0.000017    -0.373282   108.462798
	   32 B(10,6,11)      =    108.887630    -0.000090    -0.307343   108.580287
	   33 B(12,7,13)      =    125.191173    -0.000472    -1.499899   123.691273
	   34 D(1,2,3,6)      =     63.058377    -0.000076    -5.015284    58.043093
	   35 D(1,2,3,7)      =   -176.127574     0.000048     0.542229  -175.585346
	   36 D(1,2,3,8)      =    -62.605569    -0.000010    -1.408081   -64.013649
	   37 D(2,3,6,9)      =    -63.064529     0.000025     5.179565   -57.884964
	   38 D(2,3,6,10)     =    177.897620     0.000017     4.742182   182.639802
	   39 D(2,3,6,11)     =     56.652537     0.000012     4.465518    61.118055
	   40 D(2,3,7,12)     =     48.088097    -0.000006    -1.978670    46.109427
	   41 D(2,3,7,13)     =   -131.918201    -0.000012    -7.991261  -139.909463
	   42 D(4,2,3,6)      =   -177.902851    -0.000060    -4.180312  -182.083163
	   43 D(4,2,3,7)      =    -57.088803     0.000064     1.377201   -55.711602
	   44 D(4,2,3,8)      =     56.433203     0.000005    -0.573108    55.860095
	   45 D(5,2,3,6)      =    -56.658251    -0.000060    -4.165795   -60.824046
	   46 D(5,2,3,7)      =     64.155798     0.000064     1.391718    65.547515
	   47 D(5,2,3,8)      =    177.677803     0.000005    -0.558592   177.119212
	   48 D(6,3,7,12)     =    171.918998    -0.000010     0.640735   172.559733
	   49 D(6,3,7,13)     =     -8.087300    -0.000016    -5.371857   -13.459157
	   50 D(7,3,6,9)      =    176.115185     0.000014     1.836499   177.951684
	   51 D(7,3,6,10)     =     57.077333     0.000005     1.399117    58.476450
	   52 D(7,3,6,11)     =    -64.167750     0.000001     1.122453   -63.045297
	   53 D(8,3,6,9)      =     62.600345    -0.000005     1.806786    64.407131
	   54 D(8,3,6,10)     =    -56.437506    -0.000013     1.369404   -55.068102
	   55 D(8,3,6,11)     =   -177.682589    -0.000018     1.092740  -176.589849
	   56 *D(8,3,7,12)    =    -69.999999    -0.000000    -0.000000   -69.999999
	   57 D(8,3,7,13)     =    109.993703    -0.000006    -6.012592   103.981111
	 ---------------------------------------------------------------------------

  ==> Convergence Check <==

  Measures of convergence in internal coordinates in au.
  Criteria marked as inactive (o), active & met (*), and active & unmet ( ).
  --------------------------------------------------------------------------------------------- ~
   Step     Total Energy     Delta E     MAX Force     RMS Force      MAX Disp      RMS Disp    ~
  --------------------------------------------------------------------------------------------- ~
    Convergence Criteria    1.00e-06 *    3.00e-04 *             o    1.20e-03 *             o  ~
  --------------------------------------------------------------------------------------------- ~
      1    -321.73650451   -3.22e+02      1.09e-02      3.02e-03 o    1.39e-01      4.15e-02 o  ~
  ---------------------------------------------------------------------------------------------

	Writing optimization data to binary file.
	Structure for next step:
	Cartesian Geometry (in Angstrom)
	    H    -2.3655895732  -1.2718823708  -0.3850746724
	    C    -1.3579109167  -1.2642940216   0.0142008028
	    C    -0.6619151280   0.0191298529  -0.4256601485
	    H    -0.8369217952  -2.1391436158  -0.3454471382
	    H    -1.4199783226  -1.3124431448   1.0955082818
	    C    -1.3948920716   1.2788476921   0.0196647512
	    N     0.7790098938  -0.0212782596   0.0400123935
	    H    -0.5630060642   0.0275001375  -1.5038115947
	    H    -2.4022057118   1.2473405026  -0.3826155915
	    H    -0.9116703879   2.1741790783  -0.3399958459
	    H    -1.4582493825   1.3309087582   1.0984186692
	    O     1.3696860209  -1.0387324001  -0.1553180537
	    O     1.2886017264   0.9673290237   0.4697510998
			--------------------------
			 OPTKING Finished Execution 
			--------------------------

    Structure for next step:
    Molecular point group: c1
    Full point group: C1

    Geometry (in Angstrom), charge = 0, multiplicity = 1:

    H           -2.392714874810    -1.260888742164    -0.386412157460
    C           -1.385036295249    -1.253300393550     0.012863287203
    C           -0.689040559682     0.030123382895    -0.426997630501
    H           -0.864047213599    -2.128149920979    -0.346784626310
    H           -1.447103696381    -1.301449513081     1.094170683628
    C           -1.422017447337     1.289841125931     0.018327235222
    N            0.751884352072    -0.010284726478     0.038674875988
    H           -0.590131503458     0.038493666839    -1.505148994368
    H           -2.429331010663     1.258333938778    -0.383953076741
    H           -0.938795800545     2.185172443755    -0.341333334458
    H           -1.485374753431     1.341902188003     1.097081070847
    O            1.342560434040    -1.027738789292    -0.156655556303
    O            1.261476145688     0.978322481260     0.468413549481

gradient() will perform analytic gradient computation.

*** tstart() called on cx1-1-4-2.cx1.hpc.ic.ac.uk
*** at Fri Sep  2 12:58:35 2016


         ---------------------------------------------------------
                                   SCF
            by Justin Turney, Rob Parrish, and Andy Simmonett
                              RHF Reference
                        4 Threads,   2000 MiB Core
         ---------------------------------------------------------

  ==> Geometry <==

    Molecular point group: c1
    Full point group: C1

    Geometry (in Angstrom), charge = 0, multiplicity = 1:

       Center              X                  Y                   Z               Mass       
    ------------   -----------------  -----------------  -----------------  -----------------
           H         -2.392714874810    -1.260888742164    -0.386412157460     1.007825032070
           C         -1.385036295249    -1.253300393550     0.012863287203    12.000000000000
           C         -0.689040559682     0.030123382895    -0.426997630501    12.000000000000
           H         -0.864047213599    -2.128149920979    -0.346784626310     1.007825032070
           H         -1.447103696381    -1.301449513081     1.094170683628     1.007825032070
           C         -1.422017447337     1.289841125931     0.018327235222    12.000000000000
           N          0.751884352072    -0.010284726478     0.038674875988    14.003074004780
           H         -0.590131503458     0.038493666839    -1.505148994368     1.007825032070
           H         -2.429331010663     1.258333938778    -0.383953076741     1.007825032070
           H         -0.938795800545     2.185172443755    -0.341333334458     1.007825032070
           H         -1.485374753431     1.341902188003     1.097081070847     1.007825032070
           O          1.342560434040    -1.027738789292    -0.156655556303    15.994914619560
           O          1.261476145688     0.978322481260     0.468413549481    15.994914619560

  Running in c1 symmetry.

  Rotational constants: A =      0.17296  B =      0.11745  C =      0.07579 [cm^-1]
  Rotational constants: A =   5185.24786  B =   3521.18808  C =   2272.06174 [MHz]
  Nuclear repulsion =  255.814436758976825

  Charge       = 0
  Multiplicity = 1
  Electrons    = 48
  Nalpha       = 24
  Nbeta        = 24

  ==> Algorithm <==

  SCF Algorithm Type is DF.
  DIIS enabled.
  MOM disabled.
  Fractional occupation disabled.
  Guess Type is READ.
  Energy threshold   = 1.00e-08
  Density threshold  = 1.00e-08
  Integral threshold = 0.00e+00

  ==> Primary Basis <==

  Basis Set: 6-31G*
    Number of shells: 50
    Number of basis function: 104
    Number of Cartesian functions: 104
    Spherical Harmonics?: false
    Max angular momentum: 2

  ==> Pre-Iterations <==

   -------------------------------------------------------
    Irrep   Nso     Nmo     Nalpha   Nbeta   Ndocc  Nsocc
   -------------------------------------------------------
     A        104     104       0       0       0       0
   -------------------------------------------------------
    Total     104     104      24      24      24       0
   -------------------------------------------------------

 OEINTS: Overlap, kinetic, potential, dipole, and quadrupole integrals
         stored in file 35.

  ==> Integral Setup <==

  ==> DFJK: Density-Fitted J/K Matrices <==

    J tasked:                  Yes
    K tasked:                  Yes
    wK tasked:                  No
    OpenMP threads:              4
    Integrals threads:           4
    Memory (MB):              1430
    Algorithm:                Core
    Integral Cache:           NONE
    Schwarz Cutoff:          1E-12
    Fitting Condition:       1E-12

   => Auxiliary Basis Set <=

  Basis Set: 
    Number of shells: 207
    Number of basis function: 661
    Number of Cartesian functions: 661
    Spherical Harmonics?: false
    Max angular momentum: 3

  Minimum eigenvalue in the overlap matrix is 2.7452073704E-03.
  Using Symmetric Orthogonalization.
  SCF Guess: Reading in previously saved MOs, projecting if necessary.

  Using orbitals from previous SCF, no projection.
  Recomputing DOCC and SOCC from number of alpha and beta electrons from previous calculation.
              A 
    DOCC [    24 ]

  ==> Iterations <==

                           Total Energy        Delta E     RMS |[F,P]|

   @DF-RHF iter   0:  -321.71949802461506   -3.21719e+02   2.88945e-03 
   @DF-RHF iter   1:  -321.73475090045099   -1.52529e-02   3.70711e-04 
   @DF-RHF iter   2:  -321.73610601284213   -1.35511e-03   1.34449e-04 DIIS
   @DF-RHF iter   3:  -321.73634148506812   -2.35472e-04   5.22484e-05 DIIS
   @DF-RHF iter   4:  -321.73637582888819   -3.43438e-05   2.19540e-05 DIIS
   @DF-RHF iter   5:  -321.73638774195899   -1.19131e-05   1.35166e-05 DIIS
   @DF-RHF iter   6:  -321.73639211097156   -4.36901e-06   5.66619e-06 DIIS
   @DF-RHF iter   7:  -321.73639305704728   -9.46076e-07   1.94080e-06 DIIS
   @DF-RHF iter   8:  -321.73639311930629   -6.22590e-08   8.47208e-07 DIIS
   @DF-RHF iter   9:  -321.73639312719740   -7.89112e-09   2.71562e-07 DIIS
   @DF-RHF iter  10:  -321.73639312810064   -9.03242e-10   9.24890e-08 DIIS
   @DF-RHF iter  11:  -321.73639312823934   -1.38698e-10   3.07379e-08 DIIS
   @DF-RHF iter  12:  -321.73639312826333   -2.39879e-11   1.48953e-08 DIIS
   @DF-RHF iter  13:  -321.73639312827027   -6.93490e-12   6.82382e-09 DIIS

  ==> Post-Iterations <==

    Orbital Energies (a.u.)
    -----------------------

    Doubly Occupied:                                                      

       1A    -20.600949     2A    -20.596323     3A    -15.844612  
       4A    -11.310380     5A    -11.243069     6A    -11.242507  
       7A     -1.629224     8A     -1.411579     9A     -1.140287  
      10A     -0.969006    11A     -0.959119    12A     -0.813238  
      13A     -0.760870    14A     -0.723775    15A     -0.719051  
      16A     -0.641673    17A     -0.595622    18A     -0.587832  
      19A     -0.571612    20A     -0.522677    21A     -0.521964  
      22A     -0.479145    23A     -0.472619    24A     -0.445924  

    Virtual:                                                              

      25A      0.119985    26A      0.219731    27A      0.261028  
      28A      0.267728    29A      0.283370    30A      0.301478  
      31A      0.328926    32A      0.336473    33A      0.351317  
      34A      0.375911    35A      0.397788    36A      0.542485  
      37A      0.601990    38A      0.673996    39A      0.699539  
      40A      0.719653    41A      0.750083    42A      0.797056  
      43A      0.843383    44A      0.888801    45A      0.934539  
      46A      0.954139    47A      0.964609    48A      1.018180  
      49A      1.056910    50A      1.071226    51A      1.110697  
      52A      1.111989    53A      1.137118    54A      1.157782  
      55A      1.171593    56A      1.182274    57A      1.200135  
      58A      1.223044    59A      1.250179    60A      1.268582  
      61A      1.305439    62A      1.312498    63A      1.370067  
      64A      1.394559    65A      1.566469    66A      1.604778  
      67A      1.696558    68A      1.738079    69A      1.790306  
      70A      1.821127    71A      1.949807    72A      1.985606  
      73A      2.012075    74A      2.078651    75A      2.115773  
      76A      2.134293    77A      2.193127    78A      2.224902  
      79A      2.247272    80A      2.280260    81A      2.345702  
      82A      2.380553    83A      2.391729    84A      2.463238  
      85A      2.523066    86A      2.567367    87A      2.595475  
      88A      2.693361    89A      2.700420    90A      2.811045  
      91A      2.874124    92A      2.925760    93A      2.928769  
      94A      3.073899    95A      3.226632    96A      3.295481  
      97A      3.320368    98A      3.503686    99A      4.098238  
     100A      4.220326   101A      4.293868   102A      4.606884  
     103A      4.703457   104A      4.938710  

    Final Occupation by Irrep:
              A 
    DOCC [    24 ]

  Energy converged.

  @DF-RHF Final Energy:  -321.73639312827027

   => Energetics <=

    Nuclear Repulsion Energy =            255.8144367589768251
    One-Electron Energy =                -945.4955472136300614
    Two-Electron Energy =                 367.9447173263827153
    DFT Exchange-Correlation Energy =       0.0000000000000000
    Empirical Dispersion Energy =           0.0000000000000000
    PCM Polarization Energy =               0.0000000000000000
    EFP Energy =                            0.0000000000000000
    Total Energy =                       -321.7363931282704925

    Alert: EFP and PCM quantities not currently incorporated into SCF psivars.

Properties will be evaluated at   0.000000,   0.000000,   0.000000 Bohr
  ==> Properties <==


Properties computed using the SCF density matrix

  Nuclear Dipole Moment: (a.u.)
     X:    -9.5026      Y:     0.1249      Z:    -0.7227

  Electronic Dipole Moment: (a.u.)
     X:     7.8611      Y:    -0.0766      Z:     0.3243

  Dipole Moment: (a.u.)
     X:    -1.6416      Y:     0.0483      Z:    -0.3984     Total:     1.6899

  Dipole Moment: (Debye)
     X:    -4.1725      Y:     0.1227      Z:    -1.0126     Total:     4.2953


  Saving occupied orbitals to File 180.

*** tstop() called on cx1-1-4-2.cx1.hpc.ic.ac.uk at Fri Sep  2 12:58:39 2016
Module time:
	user time   =      10.24 seconds =       0.17 minutes
	system time =       0.15 seconds =       0.00 minutes
	total time  =          4 seconds =       0.07 minutes
Total time:
	user time   =      31.54 seconds =       0.53 minutes
	system time =       0.44 seconds =       0.01 minutes
	total time  =         11 seconds =       0.18 minutes

*** tstart() called on cx1-1-4-2.cx1.hpc.ic.ac.uk
*** at Fri Sep  2 12:58:39 2016


         ------------------------------------------------------------
                                   SCF GRAD                          
                          Rob Parrish, Justin Turney,                
                       Andy Simmonett, and Alex Sokolov              
         ------------------------------------------------------------

  ==> Geometry <==

    Molecular point group: c1
    Full point group: C1

    Geometry (in Angstrom), charge = 0, multiplicity = 1:

       Center              X                  Y                   Z               Mass       
    ------------   -----------------  -----------------  -----------------  -----------------
           H         -2.392714874810    -1.260888742164    -0.386412157460     1.007825032070
           C         -1.385036295249    -1.253300393550     0.012863287203    12.000000000000
           C         -0.689040559682     0.030123382895    -0.426997630501    12.000000000000
           H         -0.864047213599    -2.128149920979    -0.346784626310     1.007825032070
           H         -1.447103696381    -1.301449513081     1.094170683628     1.007825032070
           C         -1.422017447337     1.289841125931     0.018327235222    12.000000000000
           N          0.751884352072    -0.010284726478     0.038674875988    14.003074004780
           H         -0.590131503458     0.038493666839    -1.505148994368     1.007825032070
           H         -2.429331010663     1.258333938778    -0.383953076741     1.007825032070
           H         -0.938795800545     2.185172443755    -0.341333334458     1.007825032070
           H         -1.485374753431     1.341902188003     1.097081070847     1.007825032070
           O          1.342560434040    -1.027738789292    -0.156655556303    15.994914619560
           O          1.261476145688     0.978322481260     0.468413549481    15.994914619560

  Nuclear repulsion =  255.814436758976825

  ==> Basis Set <==

  Basis Set: 6-31G*
    Number of shells: 50
    Number of basis function: 104
    Number of Cartesian functions: 104
    Spherical Harmonics?: false
    Max angular momentum: 2

  ==> DFJKGrad: Density-Fitted SCF Gradients <==

    Gradient:                    1
    J tasked:                  Yes
    K tasked:                  Yes
    wK tasked:                  No
    OpenMP threads:              4
    Integrals threads:           4
    Memory (MB):              1430
    Schwarz Cutoff:          0E+00
    Fitting Condition:       1E-12

   => Auxiliary Basis Set <=

  Basis Set: 
    Number of shells: 207
    Number of basis function: 661
    Number of Cartesian functions: 661
    Spherical Harmonics?: false
    Max angular momentum: 3


  -Total Gradient:
     Atom            X                  Y                   Z
    ------   -----------------  -----------------  -----------------
       1       -0.000087787651    -0.000398518778    -0.000244550637
       2       -0.000526323450     0.000493305855    -0.000021665410
       3        0.003481357185     0.000480548516    -0.000905434529
       4        0.000132000725    -0.000318858116    -0.000293275341
       5        0.000362744686     0.000398849708    -0.000438130368
       6       -0.004644670138     0.001719569511    -0.001991766794
       7       -0.006462321399    -0.006411094151     0.010914008924
       8       -0.002551484575     0.001325496779    -0.000043266952
       9       -0.000998240100     0.000671493379    -0.000083166476
      10       -0.001292731856    -0.000896860721     0.000115084076
      11        0.000277071146    -0.000575020948    -0.001157279842
      12        0.002953727339     0.005239558103    -0.002187287763
      13        0.009356658080    -0.001728469135    -0.003663268888


*** tstop() called on cx1-1-4-2.cx1.hpc.ic.ac.uk at Fri Sep  2 12:58:42 2016
Module time:
	user time   =      11.34 seconds =       0.19 minutes
	system time =       0.14 seconds =       0.00 minutes
	total time  =          3 seconds =       0.05 minutes
Total time:
	user time   =      42.90 seconds =       0.71 minutes
	system time =       0.58 seconds =       0.01 minutes
	total time  =         14 seconds =       0.23 minutes
CURRENT ENERGY: -321.7363931283

			-----------------------------------------
			 OPTKING 2.0: for geometry optimizations 
			  - R.A. King,  Bethel University        
			-----------------------------------------

	Previous internal coordinate definitions found.
	---Fragment 1 Geometry and Gradient---
	 H          -4.5215758275       -2.3827344067       -0.7302131520
	 C          -2.6173392821       -2.3683945060        0.0243080900
	 C          -1.3020979522        0.0569249439       -0.8069085810
	 H          -1.6328125996       -4.0216205204       -0.6553279708
	 H          -2.7346296720       -2.4593831555        2.0676829347
	 C          -2.6872235317        2.4374464829        0.0346334553
	 N           1.4208555090       -0.0194353164        0.0730849238
	 H          -1.1151869239        0.0727424882       -2.8443193885
	 H          -4.5907702963        2.3779065280       -0.7255661629
	 H          -1.7740669577        4.1293774718       -0.6450265221
	 H          -2.8069514887        2.5358276324        2.0731827695
	 O           2.5370715372       -1.9421448479       -0.2960360986
	 O           2.3838444385        1.8487615592        0.8851733255
	            -0.0000877877       -0.0003985188       -0.0002445506
	            -0.0005263235        0.0004933059       -0.0000216654
	             0.0034813572        0.0004805485       -0.0009054345
	             0.0001320007       -0.0003188581       -0.0002932753
	             0.0003627447        0.0003988497       -0.0004381304
	            -0.0046446701        0.0017195695       -0.0019917668
	            -0.0064623214       -0.0064110942        0.0109140089
	            -0.0025514846        0.0013254968       -0.0000432670
	            -0.0009982401        0.0006714934       -0.0000831665
	            -0.0012927319       -0.0008968607        0.0001150841
	             0.0002770711       -0.0005750209       -0.0011572798
	             0.0029537273        0.0052395581       -0.0021872878
	             0.0093566581       -0.0017284691       -0.0036632689

	---Fragment 1 Intrafragment Coordinates---
	 - Coordinate -           - BOHR/RAD -       - ANG/DEG -
	 R(1,2)           =         2.048322	       1.083926
	 R(2,3)           =         2.881485	       1.524816
	 R(2,4)           =         2.040675	       1.079879
	 R(2,5)           =         2.048760	       1.084157
	 R(3,6)           =         2.879870	       1.523961
	 R(3,7)           =         2.862638	       1.514843
	 R(3,8)           =         2.046028	       1.082711
	 R(6,9)           =         2.050595	       1.085128
	 R(6,10)          =         2.039221	       1.079109
	 R(6,11)          =         2.044431	       1.081866
	 R(7,12)          =         2.253664	       1.192588
	 R(7,13)          =         2.253219	       1.192352
	 B(1,2,3)         =         1.900719	     108.903182
	 B(1,2,4)         =         1.896697	     108.672727
	 B(1,2,5)         =         1.890051	     108.291954
	 B(2,3,6)         =         1.973511	     113.073848
	 B(2,3,7)         =         1.899741	     108.847125
	 B(2,3,8)         =         1.912888	     109.600393
	 B(3,2,4)         =         1.945073	     111.444455
	 B(3,2,5)         =         1.929672	     110.562079
	 B(3,6,9)         =         1.890354	     108.309299
	 B(3,6,10)        =         1.953104	     111.904597
	 B(3,6,11)        =         1.938335	     111.058394
	 B(3,7,12)        =         2.030330	     116.329318
	 B(3,7,13)        =         2.088868	     119.683315
	 B(4,2,5)         =         1.900550	     108.893495
	 B(6,3,7)         =         1.971124	     112.937059
	 B(6,3,8)         =         1.905545	     109.179713
	 B(7,3,8)         =         1.792019	     102.675122
	 B(9,6,10)        =         1.892535	     108.434275
	 B(9,6,11)        =         1.893033	     108.462798
	 B(10,6,11)       =         1.895084	     108.580287
	 B(12,7,13)       =         2.158820	     123.691273
	 D(1,2,3,6)       =         1.013043	      58.043093
	 D(1,2,3,7)       =        -3.064542	    -175.585346
	 D(1,2,3,8)       =        -1.117249	     -64.013649
	 D(2,3,6,9)       =        -1.010283	     -57.884964
	 D(2,3,6,10)      =        -3.095519	    -177.360198
	 D(2,3,6,11)      =         1.066711	      61.118055
	 D(2,3,7,12)      =         0.804761	      46.109427
	 D(2,3,7,13)      =        -2.441881	    -139.909463
	 D(4,2,3,6)       =         3.105235	     177.916837
	 D(4,2,3,7)       =        -0.972351	     -55.711602
	 D(4,2,3,8)       =         0.974943	      55.860095
	 D(5,2,3,6)       =        -1.061580	     -60.824046
	 D(5,2,3,7)       =         1.144020	      65.547515
	 D(5,2,3,8)       =         3.091313	     177.119212
	 D(6,3,7,12)      =         3.011735	     172.559733
	 D(6,3,7,13)      =        -0.234907	     -13.459157
	 D(7,3,6,9)       =         3.105843	     177.951684
	 D(7,3,6,10)      =         1.020607	      58.476450
	 D(7,3,6,11)      =        -1.100348	     -63.045297
	 D(8,3,6,9)       =         1.124117	      64.407131
	 D(8,3,6,10)      =        -0.961120	     -55.068102
	 D(8,3,6,11)      =        -3.082074	    -176.589849
	*D(8,3,7,12)      =        -1.221730	     -69.999999
	 D(8,3,7,13)      =         1.814813	     103.981111

	Current energy   :      -321.7363931283

	Energy change for the previous step:
		Projected    :         0.0017795235
		Actual       :         0.0001113808

	Performing BFGS update.
	Previous computed or guess Hessian on step 1.
	Steps to be used in Hessian update: 1
	Taking RFO optimization step.
	Going to follow RFO solution 1.
	Using RFO vector 1.

	Determining step-restricting scale parameter for RS-RFO.
	Maximum step size allowed    0.50000

	 Iter      |step|        alpha        rfo_root  
	------------------------------------------------
	    0     0.52042       1.00000           1
	    1     0.50107       1.10488           1
	    2     0.50000       1.11097           1
	------------------------------------------------
	Norm of target step-size    0.50000
	Projected energy change by RFO approximation:         0.0007789451

	Back-transformation to cartesian coordinates...
	Successfully converged to displaced geometry.

	Back-transformation to cartesian coordinates to adjust frozen coordinates...
	Successfully converged to displaced geometry.

	--- Internal Coordinate Step in ANG or DEG, aJ/ANG or AJ/DEG ---
	 ---------------------------------------------------------------------------
	   Coordinate                Previous        Force       Change         New 
	   ----------                --------       ------       ------       ------
	    1 R(1,2)          =      1.083926    -0.001438    -0.000203     1.083723
	    2 R(2,3)          =      1.524816     0.003134     0.000891     1.525708
	    3 R(2,4)          =      1.079879    -0.003458    -0.002560     1.077318
	    4 R(2,5)          =      1.084157     0.003917     0.001623     1.085780
	    5 R(3,6)          =      1.523961    -0.025140    -0.002888     1.521074
	    6 R(3,7)          =      1.514843    -0.059291     0.001791     1.516634
	    7 R(3,8)          =      1.082711     0.001481     0.002567     1.085278
	    8 R(6,9)          =      1.085128    -0.007728    -0.000169     1.084959
	    9 R(6,10)         =      1.079109     0.011216    -0.001498     1.077611
	   10 R(6,11)         =      1.081866     0.009869     0.000997     1.082863
	   11 R(7,12)         =      1.192588     0.021824     0.001078     1.193665
	   12 R(7,13)         =      1.192352    -0.010261    -0.001151     1.191201
	   13 B(1,2,3)        =    108.903182    -0.000039    -0.113724   108.789458
	   14 B(1,2,4)        =    108.672727     0.000021     0.330403   109.003130
	   15 B(1,2,5)        =    108.291954    -0.000018    -0.372922   107.919032
	   16 B(2,3,6)        =    113.073848     0.000167     0.109180   113.183028
	   17 B(2,3,7)        =    108.847125     0.000280     0.296232   109.143357
	   18 B(2,3,8)        =    109.600393    -0.000186    -0.792270   108.808123
	   19 B(3,2,4)        =    111.444455     0.000003     0.193956   111.638412
	   20 B(3,2,5)        =    110.562079     0.000055    -0.025684   110.536395
	   21 B(3,6,9)        =    108.309299    -0.000080    -0.502228   107.807071
	   22 B(3,6,10)       =    111.904597    -0.000050     0.270005   112.174602
	   23 B(3,6,11)       =    111.058394     0.000079     0.302523   111.360917
	   24 B(3,7,12)       =    116.329318     0.000077    -0.663337   115.665981
	   25 B(3,7,13)       =    119.683315    -0.000738    -0.145685   119.537630
	   26 B(4,2,5)        =    108.893495    -0.000023    -0.024021   108.869474
	   27 B(6,3,7)        =    112.937059    -0.000538     0.638766   113.575825
	   28 B(6,3,8)        =    109.179713     0.000247     0.575485   109.755198
	   29 B(7,3,8)        =    102.675122     0.000015    -0.984032   101.691090
	   30 B(9,6,10)       =    108.434275     0.000064     0.303339   108.737614
	   31 B(9,6,11)       =    108.462798     0.000009    -0.151397   108.311400
	   32 B(10,6,11)      =    108.580287    -0.000020    -0.230753   108.349535
	   33 B(12,7,13)      =    123.691273     0.000688     0.141307   123.832581
	   34 D(1,2,3,6)      =     58.043093     0.000049    -1.418313    56.624780
	   35 D(1,2,3,7)      =   -175.585346    -0.000035    -0.256602  -175.841948
	   36 D(1,2,3,8)      =    -64.013649    -0.000019    -1.657306   -65.670955
	   37 D(2,3,6,9)      =    -57.884964    -0.000001     1.286991   -56.597974
	   38 D(2,3,6,10)     =   -177.360198    -0.000000     1.075299  -176.284899
	   39 D(2,3,6,11)     =     61.118055     0.000001     0.966518    62.084573
	   40 D(2,3,7,12)     =     46.109427    -0.000020    -1.253852    44.855575
	   41 D(2,3,7,13)     =   -139.909463     0.000051    15.566441  -124.343021
	   42 D(4,2,3,6)      =    177.916837     0.000050    -0.961185   176.955652
	   43 D(4,2,3,7)      =    -55.711602    -0.000034     0.200526   -55.511076
	   44 D(4,2,3,8)      =     55.860095    -0.000018    -1.200178    54.659917
	   45 D(5,2,3,6)      =    -60.824046     0.000052    -0.877800   -61.701846
	   46 D(5,2,3,7)      =     65.547515    -0.000032     0.283910    65.831425
	   47 D(5,2,3,8)      =    177.119212    -0.000016    -1.116793   176.002419
	   48 D(6,3,7,12)     =    172.559733    -0.000011    -0.392811   172.166922
	   49 D(6,3,7,13)     =    -13.459157     0.000060    16.427482     2.968325
	   50 D(7,3,6,9)      =    177.951684    -0.000019     0.272965   178.224648
	   51 D(7,3,6,10)     =     58.476450    -0.000018     0.061273    58.537723
	   52 D(7,3,6,11)     =    -63.045297    -0.000017    -0.047508   -63.092805
	   53 D(8,3,6,9)      =     64.407131     0.000012     0.761035    65.168166
	   54 D(8,3,6,10)     =    -55.068102     0.000012     0.549343   -54.518759
	   55 D(8,3,6,11)     =   -176.589849     0.000013     0.440562  -176.149288
	   56 *D(8,3,7,12)    =    -69.999999    -0.000000     0.000000   -69.999999
	   57 D(8,3,7,13)     =    103.981111     0.000071    16.820293   120.801404
	 ---------------------------------------------------------------------------

  ==> Convergence Check <==

  Measures of convergence in internal coordinates in au.
  Criteria marked as inactive (o), active & met (*), and active & unmet ( ).
  ---------------------------------------------------------------------------------------------
   Step     Total Energy     Delta E     MAX Force     RMS Force      MAX Disp      RMS Disp   
  ---------------------------------------------------------------------------------------------
    Convergence Criteria    1.00e-06 *    3.00e-04 *             o    1.20e-03 *             o
  ---------------------------------------------------------------------------------------------
      2    -321.73639313    1.11e-04      9.70e-03      2.73e-03 o    2.94e-01      6.60e-02 o  ~
  ---------------------------------------------------------------------------------------------

	Writing optimization data to binary file.
	Structure for next step:
	Cartesian Geometry (in Angstrom)
	    H    -2.3905941135  -1.2495846392  -0.3474884022
	    C    -1.3709546505  -1.2451067126   0.0196225678
	    C    -0.6885005346   0.0394145012  -0.4408615639
	    H    -0.8615075005  -2.1198104592  -0.3491207967
	    H    -1.4060790445  -1.2901587526   1.1038983239
	    C    -1.4213543697   1.2976614492  -0.0010827603
	    N     0.7681102730   0.0072736894  -0.0196364875
	    H    -0.6049707967   0.0227686978  -1.5227926145
	    H    -2.4378250060   1.2376565764  -0.3756796351
	    H    -0.9619733252   2.1922435677  -0.3883005557
	    H    -1.4605436822   1.3743685894   1.0783490723
	    O     1.3404969675  -1.0216369482  -0.2159857309
	    O     1.2080227740   0.8952875932   0.6413238466
			--------------------------
			 OPTKING Finished Execution 
			--------------------------

    Structure for next step:
    Molecular point group: c1
    Full point group: C1

    Geometry (in Angstrom), charge = 0, multiplicity = 1:

    H           -2.385504925905    -1.242322500598    -0.354821649542
    C           -1.365865540730    -1.237844574315     0.012289292404
    C           -0.683411476997     0.046676541393    -0.448194804136
    H           -0.856418429716    -2.112548254190    -0.356454043978
    H           -1.400989932063    -1.282896610875     1.096564965659
    C           -1.416265256155     1.304923393327    -0.008416034101
    N            0.773199219367     0.014535732014    -0.026969759947
    H           -0.599881745414     0.030030739282    -1.530125772140
    H           -2.432735814815     1.244918525053    -0.383012880306
    H           -0.956884246730     2.199505443442    -0.395633799999
    H           -1.455454565620     1.381630527661     1.071015716028
    O            1.345585870212    -1.014374826968    -0.223318988351
    O            1.213111686771     0.902549567965     0.633990523659

gradient() will perform analytic gradient computation.

*** tstart() called on cx1-1-4-2.cx1.hpc.ic.ac.uk
*** at Fri Sep  2 12:58:42 2016


         ---------------------------------------------------------
                                   SCF
            by Justin Turney, Rob Parrish, and Andy Simmonett
                              RHF Reference
                        4 Threads,   2000 MiB Core
         ---------------------------------------------------------

  ==> Geometry <==

    Molecular point group: c1
    Full point group: C1

    Geometry (in Angstrom), charge = 0, multiplicity = 1:

       Center              X                  Y                   Z               Mass       
    ------------   -----------------  -----------------  -----------------  -----------------
           H         -2.385504925905    -1.242322500598    -0.354821649542     1.007825032070
           C         -1.365865540730    -1.237844574315     0.012289292404    12.000000000000
           C         -0.683411476997     0.046676541393    -0.448194804136    12.000000000000
           H         -0.856418429716    -2.112548254190    -0.356454043978     1.007825032070
           H         -1.400989932063    -1.282896610875     1.096564965659     1.007825032070
           C         -1.416265256155     1.304923393327    -0.008416034101    12.000000000000
           N          0.773199219367     0.014535732014    -0.026969759947    14.003074004780
           H         -0.599881745414     0.030030739282    -1.530125772140     1.007825032070
           H         -2.432735814815     1.244918525053    -0.383012880306     1.007825032070
           H         -0.956884246730     2.199505443442    -0.395633799999     1.007825032070
           H         -1.455454565620     1.381630527661     1.071015716028     1.007825032070
           O          1.345585870212    -1.014374826968    -0.223318988351    15.994914619560
           O          1.213111686771     0.902549567965     0.633990523659    15.994914619560

  Running in c1 symmetry.

  Rotational constants: A =      0.17279  B =      0.11689  C =      0.07717 [cm^-1]
  Rotational constants: A =   5180.09860  B =   3504.25195  C =   2313.38519 [MHz]
  Nuclear repulsion =  256.060509396874181

  Charge       = 0
  Multiplicity = 1
  Electrons    = 48
  Nalpha       = 24
  Nbeta        = 24

  ==> Algorithm <==

  SCF Algorithm Type is DF.
  DIIS enabled.
  MOM disabled.
  Fractional occupation disabled.
  Guess Type is READ.
  Energy threshold   = 1.00e-08
  Density threshold  = 1.00e-08
  Integral threshold = 0.00e+00

  ==> Primary Basis <==

  Basis Set: 6-31G*
    Number of shells: 50
    Number of basis function: 104
    Number of Cartesian functions: 104
    Spherical Harmonics?: false
    Max angular momentum: 2

  ==> Pre-Iterations <==

   -------------------------------------------------------
    Irrep   Nso     Nmo     Nalpha   Nbeta   Ndocc  Nsocc
   -------------------------------------------------------
     A        104     104       0       0       0       0
   -------------------------------------------------------
    Total     104     104      24      24      24       0
   -------------------------------------------------------

 OEINTS: Overlap, kinetic, potential, dipole, and quadrupole integrals
         stored in file 35.

  ==> Integral Setup <==

  ==> DFJK: Density-Fitted J/K Matrices <==

    J tasked:                  Yes
    K tasked:                  Yes
    wK tasked:                  No
    OpenMP threads:              4
    Integrals threads:           4
    Memory (MB):              1430
    Algorithm:                Core
    Integral Cache:           NONE
    Schwarz Cutoff:          1E-12
    Fitting Condition:       1E-12

   => Auxiliary Basis Set <=

  Basis Set: 
    Number of shells: 207
    Number of basis function: 661
    Number of Cartesian functions: 661
    Spherical Harmonics?: false
    Max angular momentum: 3

  Minimum eigenvalue in the overlap matrix is 2.8607247637E-03.
  Using Symmetric Orthogonalization.
  SCF Guess: Reading in previously saved MOs, projecting if necessary.

  Using orbitals from previous SCF, no projection.
  Recomputing DOCC and SOCC from number of alpha and beta electrons from previous calculation.
              A 
    DOCC [    24 ]

  ==> Iterations <==

                           Total Energy        Delta E     RMS |[F,P]|

   @DF-RHF iter   0:  -321.66041547124792   -3.21660e+02   4.66688e-03 
   @DF-RHF iter   1:  -321.72713460202397   -6.67191e-02   8.36442e-04 
   @DF-RHF iter   2:  -321.73205300675011   -4.91840e-03   4.90570e-04 DIIS
   @DF-RHF iter   3:  -321.73325743010616   -1.20442e-03   1.89421e-04 DIIS
   @DF-RHF iter   4:  -321.73365284399233   -3.95414e-04   6.82696e-05 DIIS
   @DF-RHF iter   5:  -321.73372098861989   -6.81446e-05   3.26417e-05 DIIS
   @DF-RHF iter   6:  -321.73375538278594   -3.43942e-05   1.84581e-05 DIIS
   @DF-RHF iter   7:  -321.73376379227636   -8.40949e-06   5.89560e-06 DIIS
   @DF-RHF iter   8:  -321.73376458983341   -7.97557e-07   1.31450e-06 DIIS
   @DF-RHF iter   9:  -321.73376461467649   -2.48431e-08   5.35412e-07 DIIS
   @DF-RHF iter  10:  -321.73376461896601   -4.28952e-09   1.94791e-07 DIIS
   @DF-RHF iter  11:  -321.73376461983628   -8.70273e-10   6.76090e-08 DIIS
   @DF-RHF iter  12:  -321.73376461996611   -1.29830e-10   2.64283e-08 DIIS
   @DF-RHF iter  13:  -321.73376461998760   -2.14868e-11   1.21932e-08 DIIS
   @DF-RHF iter  14:  -321.73376461999214   -4.54747e-12   4.86422e-09 DIIS

  ==> Post-Iterations <==

    Orbital Energies (a.u.)
    -----------------------

    Doubly Occupied:                                                      

       1A    -20.602060     2A    -20.595297     3A    -15.844097  
       4A    -11.309897     5A    -11.243846     6A    -11.242492  
       7A     -1.629086     8A     -1.411795     9A     -1.139136  
      10A     -0.969371    11A     -0.959963    12A     -0.811464  
      13A     -0.758076    14A     -0.724042    15A     -0.720985  
      16A     -0.642482    17A     -0.595195    18A     -0.587897  
      19A     -0.570442    20A     -0.524814    21A     -0.520702  
      22A     -0.479759    23A     -0.470847    24A     -0.445532  

    Virtual:                                                              

      25A      0.119842    26A      0.215815    27A      0.262358  
      28A      0.267231    29A      0.283788    30A      0.300776  
      31A      0.329794    32A      0.335909    33A      0.351777  
      34A      0.377596    35A      0.400079    36A      0.542705  
      37A      0.604012    38A      0.673051    39A      0.703669  
      40A      0.724936    41A      0.751313    42A      0.793489  
      43A      0.842204    44A      0.889381    45A      0.933827  
      46A      0.955788    47A      0.966339    48A      1.011435  
      49A      1.049169    50A      1.076538    51A      1.104554  
      52A      1.114925    53A      1.137960    54A      1.157941  
      55A      1.163907    56A      1.181761    57A      1.201215  
      58A      1.224960    59A      1.255009    60A      1.267190  
      61A      1.300153    62A      1.322354    63A      1.371012  
      64A      1.401650    65A      1.533365    66A      1.610021  
      67A      1.684963    68A      1.751961    69A      1.797828  
      70A      1.845128    71A      1.929889    72A      1.976957  
      73A      2.009932    74A      2.077060    75A      2.121814  
      76A      2.137631    77A      2.184448    78A      2.222182  
      79A      2.241609    80A      2.279165    81A      2.349449  
      82A      2.386055    83A      2.415165    84A      2.449355  
      85A      2.510311    86A      2.571924    87A      2.594166  
      88A      2.691494    89A      2.700516    90A      2.810615  
      91A      2.879854    92A      2.897436    93A      2.959832  
      94A      3.075381    95A      3.228611    96A      3.279797  
      97A      3.316866    98A      3.494058    99A      4.086215  
     100A      4.228316   101A      4.278513   102A      4.606606  
     103A      4.717997   104A      4.935098  

    Final Occupation by Irrep:
              A 
    DOCC [    24 ]

  Energy converged.

  @DF-RHF Final Energy:  -321.73376461999214

   => Energetics <=

    Nuclear Repulsion Energy =            256.0605093968741812
    One-Electron Energy =                -945.9899979307423337
    Two-Electron Energy =                 368.1957239138760087
    DFT Exchange-Correlation Energy =       0.0000000000000000
    Empirical Dispersion Energy =           0.0000000000000000
    PCM Polarization Energy =               0.0000000000000000
    EFP Energy =                            0.0000000000000000
    Total Energy =                       -321.7337646199921437

    Alert: EFP and PCM quantities not currently incorporated into SCF psivars.

Properties will be evaluated at   0.000000,   0.000000,   0.000000 Bohr
  ==> Properties <==


Properties computed using the SCF density matrix

  Nuclear Dipole Moment: (a.u.)
     X:    -9.4470      Y:     0.2041      Z:    -0.7971

  Electronic Dipole Moment: (a.u.)
     X:     7.8439      Y:    -0.0990      Z:     0.3086

  Dipole Moment: (a.u.)
     X:    -1.6031      Y:     0.1051      Z:    -0.4885     Total:     1.6792

  Dipole Moment: (Debye)
     X:    -4.0747      Y:     0.2671      Z:    -1.2417     Total:     4.2680


  Saving occupied orbitals to File 180.

*** tstop() called on cx1-1-4-2.cx1.hpc.ic.ac.uk at Fri Sep  2 12:58:46 2016
Module time:
	user time   =       9.38 seconds =       0.16 minutes
	system time =       0.11 seconds =       0.00 minutes
	total time  =          4 seconds =       0.07 minutes
Total time:
	user time   =      52.88 seconds =       0.88 minutes
	system time =       0.70 seconds =       0.01 minutes
	total time  =         18 seconds =       0.30 minutes

*** tstart() called on cx1-1-4-2.cx1.hpc.ic.ac.uk
*** at Fri Sep  2 12:58:46 2016


         ------------------------------------------------------------
                                   SCF GRAD                          
                          Rob Parrish, Justin Turney,                
                       Andy Simmonett, and Alex Sokolov              
         ------------------------------------------------------------

  ==> Geometry <==

    Molecular point group: c1
    Full point group: C1

    Geometry (in Angstrom), charge = 0, multiplicity = 1:

       Center              X                  Y                   Z               Mass       
    ------------   -----------------  -----------------  -----------------  -----------------
           H         -2.385504925905    -1.242322500598    -0.354821649542     1.007825032070
           C         -1.365865540730    -1.237844574315     0.012289292404    12.000000000000
           C         -0.683411476997     0.046676541393    -0.448194804136    12.000000000000
           H         -0.856418429716    -2.112548254190    -0.356454043978     1.007825032070
           H         -1.400989932063    -1.282896610875     1.096564965659     1.007825032070
           C         -1.416265256155     1.304923393327    -0.008416034101    12.000000000000
           N          0.773199219367     0.014535732014    -0.026969759947    14.003074004780
           H         -0.599881745414     0.030030739282    -1.530125772140     1.007825032070
           H         -2.432735814815     1.244918525053    -0.383012880306     1.007825032070
           H         -0.956884246730     2.199505443442    -0.395633799999     1.007825032070
           H         -1.455454565620     1.381630527661     1.071015716028     1.007825032070
           O          1.345585870212    -1.014374826968    -0.223318988351    15.994914619560
           O          1.213111686771     0.902549567965     0.633990523659    15.994914619560

  Nuclear repulsion =  256.060509396874181

  ==> Basis Set <==

  Basis Set: 6-31G*
    Number of shells: 50
    Number of basis function: 104
    Number of Cartesian functions: 104
    Spherical Harmonics?: false
    Max angular momentum: 2

  ==> DFJKGrad: Density-Fitted SCF Gradients <==

    Gradient:                    1
    J tasked:                  Yes
    K tasked:                  Yes
    wK tasked:                  No
    OpenMP threads:              4
    Integrals threads:           4
    Memory (MB):              1430
    Schwarz Cutoff:          0E+00
    Fitting Condition:       1E-12

   => Auxiliary Basis Set <=

  Basis Set: 
    Number of shells: 207
    Number of basis function: 661
    Number of Cartesian functions: 661
    Spherical Harmonics?: false
    Max angular momentum: 3


  -Total Gradient:
     Atom            X                  Y                   Z
    ------   -----------------  -----------------  -----------------
       1       -0.000392869374    -0.000660667837     0.000652238704
       2       -0.001221814155    -0.000810727819    -0.005346305392
       3       -0.003463546738    -0.003082205347     0.018335737356
       4       -0.000518855226     0.000816138969     0.000692778881
       5       -0.000147284491     0.000370363019     0.000447658277
       6       -0.003843712262     0.002297635903    -0.004146005890
       7        0.014571342528     0.016781342562    -0.037622809547
       8        0.002163520543     0.000175142806    -0.000656456835
       9       -0.001028752790    -0.000493633543     0.000429587708
      10       -0.001771276311    -0.002147688133     0.001170325360
      11       -0.000225376912     0.000160852314    -0.000115687183
      12       -0.005411691201    -0.002984840428     0.015105502782
      13        0.001290316387    -0.010421712462     0.011053435782


*** tstop() called on cx1-1-4-2.cx1.hpc.ic.ac.uk at Fri Sep  2 12:58:49 2016
Module time:
	user time   =      11.34 seconds =       0.19 minutes
	system time =       0.15 seconds =       0.00 minutes
	total time  =          3 seconds =       0.05 minutes
Total time:
	user time   =      64.24 seconds =       1.07 minutes
	system time =       0.85 seconds =       0.01 minutes
	total time  =         21 seconds =       0.35 minutes
CURRENT ENERGY: -321.7337646200

			-----------------------------------------
			 OPTKING 2.0: for geometry optimizations 
			  - R.A. King,  Bethel University        
			-----------------------------------------

	Previous internal coordinate definitions found.
	---Fragment 1 Geometry and Gradient---
	 H          -4.5079509986       -2.3476492949       -0.6705157437
	 C          -2.5811118063       -2.3391872405        0.0232233970
	 C          -1.2914605276        0.0882058801       -0.8469654340
	 H          -1.6183962873       -3.9921376429       -0.6736005221
	 H          -2.6474872865       -2.4243232514        2.0722074720
	 C          -2.6763534657        2.4659478378       -0.0159039996
	 N           1.4611347708        0.0274685526       -0.0509654602
	 H          -1.1336122109        0.0567498728       -2.8915186582
	 H          -4.5972044437        2.3525550701       -0.7237894491
	 H          -1.8082491672        4.1564629159       -0.7476395309
	 H          -2.7504105279        2.6109033141        2.0239263873
	 O           2.5427887830       -1.9168906191       -0.4220117283
	 O           2.2924488566        1.7055715048        1.1980684606
	            -0.0003928694       -0.0006606678        0.0006522387
	            -0.0012218142       -0.0008107278       -0.0053463054
	            -0.0034635467       -0.0030822053        0.0183357374
	            -0.0005188552        0.0008161390        0.0006927789
	            -0.0001472845        0.0003703630        0.0004476583
	            -0.0038437123        0.0022976359       -0.0041460059
	             0.0145713425        0.0167813426       -0.0376228095
	             0.0021635205        0.0001751428       -0.0006564568
	            -0.0010287528       -0.0004936335        0.0004295877
	            -0.0017712763       -0.0021476881        0.0011703254
	            -0.0002253769        0.0001608523       -0.0001156872
	            -0.0054116912       -0.0029848404        0.0151055028
	             0.0012903164       -0.0104217125        0.0110534358

	---Fragment 1 Intrafragment Coordinates---
	 - Coordinate -           - BOHR/RAD -       - ANG/DEG -
	 R(1,2)           =         2.047939	       1.083723
	 R(2,3)           =         2.883170	       1.525708
	 R(2,4)           =         2.035836	       1.077318
	 R(2,5)           =         2.051826	       1.085780
	 R(3,6)           =         2.874413	       1.521074
	 R(3,7)           =         2.866023	       1.516634
	 R(3,8)           =         2.050879	       1.085278
	 R(6,9)           =         2.050275	       1.084959
	 R(6,10)          =         2.036390	       1.077611
	 R(6,11)          =         2.046315	       1.082863
	 R(7,12)          =         2.255700	       1.193665
	 R(7,13)          =         2.251044	       1.191201
	 B(1,2,3)         =         1.898734	     108.789458
	 B(1,2,4)         =         1.902464	     109.003130
	 B(1,2,5)         =         1.883542	     107.919032
	 B(2,3,6)         =         1.975416	     113.183028
	 B(2,3,7)         =         1.904911	     109.143357
	 B(2,3,8)         =         1.899060	     108.808123
	 B(3,2,4)         =         1.948458	     111.638412
	 B(3,2,5)         =         1.929224	     110.536395
	 B(3,6,9)         =         1.881588	     107.807071
	 B(3,6,10)        =         1.957816	     112.174602
	 B(3,6,11)        =         1.943615	     111.360917
	 B(3,7,12)        =         2.018752	     115.665981
	 B(3,7,13)        =         2.086325	     119.537630
	 B(4,2,5)         =         1.900131	     108.869474
	 B(6,3,7)         =         1.982272	     113.575825
	 B(6,3,8)         =         1.915590	     109.755198
	 B(7,3,8)         =         1.774844	     101.691090
	 B(9,6,10)        =         1.897829	     108.737614
	 B(9,6,11)        =         1.890391	     108.311400
	 B(10,6,11)       =         1.891056	     108.349535
	 B(12,7,13)       =         2.161286	     123.832581
	 D(1,2,3,6)       =         0.988289	      56.624780
	 D(1,2,3,7)       =        -3.069021	    -175.841948
	 D(1,2,3,8)       =        -1.146174	     -65.670955
	 D(2,3,6,9)       =        -0.987821	     -56.597974
	 D(2,3,6,10)      =        -3.076752	    -176.284899
	 D(2,3,6,11)      =         1.083580	      62.084573
	 D(2,3,7,12)      =         0.782877	      44.855575
	 D(2,3,7,13)      =        -2.170195	    -124.343021
	 D(4,2,3,6)       =         3.088459	     176.955652
	 D(4,2,3,7)       =        -0.968851	     -55.511076
	 D(4,2,3,8)       =         0.953996	      54.659917
	 D(5,2,3,6)       =        -1.076900	     -61.701846
	 D(5,2,3,7)       =         1.148975	      65.831425
	 D(5,2,3,8)       =         3.071822	     176.002419
	 D(6,3,7,12)      =         3.004880	     172.166922
	 D(6,3,7,13)      =         0.051807	       2.968325
	 D(7,3,6,9)       =         3.110607	     178.224648
	 D(7,3,6,10)      =         1.021676	      58.537723
	 D(7,3,6,11)      =        -1.101177	     -63.092805
	 D(8,3,6,9)       =         1.137399	      65.168166
	 D(8,3,6,10)      =        -0.951532	     -54.518759
	 D(8,3,6,11)      =        -3.074385	    -176.149288
	*D(8,3,7,12)      =        -1.221730	     -69.999999
	 D(8,3,7,13)      =         2.108382	     120.801404

	Current energy   :      -321.7337646200

	Energy change for the previous step:
		Projected    :         0.0007789451
		Actual       :         0.0026285083

	Performing BFGS update.
	Previous computed or guess Hessian on step 1.
	Steps to be used in Hessian update: 2 1
	Taking RFO optimization step.
	Going to follow RFO solution 1.
	Using RFO vector 1.
	Norm of target step-size    0.34160
	Projected energy change by RFO approximation:        -0.0014439614

	Back-transformation to cartesian coordinates...
	Successfully converged to displaced geometry.

	Back-transformation to cartesian coordinates to adjust frozen coordinates...
	Successfully converged to displaced geometry.

	--- Internal Coordinate Step in ANG or DEG, aJ/ANG or AJ/DEG ---
	 ---------------------------------------------------------------------------
	   Coordinate                Previous        Force       Change         New 
	   ----------                --------       ------       ------       ------
	    1 R(1,2)          =      1.083723    -0.001248     0.000150     1.083873
	    2 R(2,3)          =      1.525708    -0.001545    -0.000950     1.524758
	    3 R(2,4)          =      1.077318     0.009434     0.003008     1.080326
	    4 R(2,5)          =      1.085780    -0.003596    -0.001795     1.083985
	    5 R(3,6)          =      1.521074    -0.019680     0.001784     1.522858
	    6 R(3,7)          =      1.516634    -0.055866    -0.005106     1.511528
	    7 R(3,8)          =      1.085278    -0.006741    -0.002955     1.082323
	    8 R(6,9)          =      1.084959    -0.006944    -0.000188     1.084771
	    9 R(6,10)         =      1.077611     0.024374     0.002629     1.080240
	   10 R(6,11)         =      1.082863     0.000789    -0.000874     1.081989
	   11 R(7,12)         =      1.193665     0.020654    -0.000819     1.192846
	   12 R(7,13)         =      1.191201     0.009552     0.001305     1.192506
	   13 B(1,2,3)        =    108.789458    -0.000107    -0.007220   108.782238
	   14 B(1,2,4)        =    109.003130     0.000034    -0.309265   108.693865
	   15 B(1,2,5)        =    107.919032     0.000040     0.386778   108.305809
	   16 B(2,3,6)        =    113.183028     0.000349     0.150979   113.334007
	   17 B(2,3,7)        =    109.143357     0.000128    -0.168099   108.975258
	   18 B(2,3,8)        =    108.808123     0.000151     1.584879   110.393002
[...]
           H         -2.398897150426     1.271769929194    -0.384149306362     1.007825032070
           H         -0.888152639197     2.169936220171    -0.342060005185     1.007825032070
           H         -1.445987623908     1.328168244155     1.093128850690     1.007825032070
           O          1.360343428157    -1.009762418055    -0.166719765981    15.994914619560
           O          1.197263121433     0.983349489107     0.516526613511    15.994914619560

  Nuclear repulsion =  256.717822980549784

  ==> Basis Set <==

  Basis Set: 6-31G*
    Number of shells: 50
    Number of basis function: 104
    Number of Cartesian functions: 104
    Spherical Harmonics?: false
    Max angular momentum: 2

  ==> DFJKGrad: Density-Fitted SCF Gradients <==

    Gradient:                    1
    J tasked:                  Yes
    K tasked:                  Yes
    wK tasked:                  No
    OpenMP threads:              4
    Integrals threads:           4
    Memory (MB):              1430
    Schwarz Cutoff:          0E+00
    Fitting Condition:       1E-12

   => Auxiliary Basis Set <=

  Basis Set: 
    Number of shells: 207
    Number of basis function: 661
    Number of Cartesian functions: 661
    Spherical Harmonics?: false
    Max angular momentum: 3


  -Total Gradient:
     Atom            X                  Y                   Z
    ------   -----------------  -----------------  -----------------
       1        0.000002869890     0.000000631701    -0.000001245359
       2        0.000003185625     0.000000842414     0.000006137650
       3       -0.000147719475    -0.001505728486     0.000352865634
       4        0.000001597993    -0.000000746824     0.000001809639
       5       -0.000000905804    -0.000001746774    -0.000000656110
       6        0.000004258822    -0.000003572076     0.000010667599
       7        0.000447410004     0.000722107262    -0.001419269410
       8        0.000019529107     0.001177137166     0.000002021957
       9        0.000003284067    -0.000000197855    -0.000001679255
      10        0.000002474191     0.000000670339     0.000000623824
      11       -0.000003372691     0.000004482308     0.000002623480
      12       -0.000340357075    -0.000374862556     0.001052181017
      13        0.000007745341    -0.000019016619    -0.000006080667


*** tstop() called on cx1-1-4-2.cx1.hpc.ic.ac.uk at Fri Sep  2 12:59:30 2016
Module time:
	user time   =      10.99 seconds =       0.18 minutes
	system time =       0.15 seconds =       0.00 minutes
	total time  =          4 seconds =       0.07 minutes
Total time:
	user time   =     190.83 seconds =       3.18 minutes
	system time =       2.53 seconds =       0.04 minutes
	total time  =         62 seconds =       1.03 minutes
CURRENT ENERGY: -321.7374539239

			-----------------------------------------
			 OPTKING 2.0: for geometry optimizations 
			  - R.A. King,  Bethel University        
			-----------------------------------------

	Previous internal coordinate definitions found.
	---Fragment 1 Geometry and Gradient---
	 H          -4.5107400254       -2.4028674219       -0.6871657092
	 C          -2.5909137325       -2.3914651405        0.0260127497
	 C          -1.2942580932        0.0291105702       -0.8457635603
	 H          -1.6214588438       -4.0477728894       -0.6655666926
	 H          -2.6686007713       -2.4752786216        2.0725791666
	 C          -2.6262556866        2.4211728574        0.0239595064
	 N           1.4160714212       -0.0019619357        0.0327369005
	 H          -1.1060057568        0.0312419338       -2.8839023184
	 H          -4.5332586353        2.4032968702       -0.7259369832
	 H          -1.6783652523        4.1005851820       -0.6463997308
	 H          -2.7325206007        2.5098742398        2.0657141558
	 O           2.5706765259       -1.9081744294       -0.3150546986
	 O           2.2624994085        1.8582612273        0.9760938399
	             0.0000028699        0.0000006317       -0.0000012454
	             0.0000031856        0.0000008424        0.0000061377
	            -0.0001477195       -0.0015057285        0.0003528656
	             0.0000015980       -0.0000007468        0.0000018096
	            -0.0000009058       -0.0000017468       -0.0000006561
	             0.0000042588       -0.0000035721        0.0000106676
	             0.0004474100        0.0007221073       -0.0014192694
	             0.0000195291        0.0011771372        0.0000020220
	             0.0000032841       -0.0000001979       -0.0000016793
	             0.0000024742        0.0000006703        0.0000006238
	            -0.0000033727        0.0000044823        0.0000026235
	            -0.0003403571       -0.0003748626        0.0010521810
	             0.0000077453       -0.0000190166       -0.0000060807

	---Fragment 1 Intrafragment Coordinates---
	 - Coordinate -           - BOHR/RAD -       - ANG/DEG -
	 R(1,2)           =         2.048045	       1.083779
	 R(2,3)           =         2.881058	       1.524590
	 R(2,4)           =         2.039971	       1.079506
	 R(2,5)           =         2.049755	       1.084684
	 R(3,6)           =         2.872734	       1.520185
	 R(3,7)           =         2.849318	       1.507794
	 R(3,8)           =         2.046815	       1.083128
	 R(6,9)           =         2.049225	       1.084403
	 R(6,10)          =         2.041642	       1.080391
	 R(6,11)          =         2.046441	       1.082930
	 R(7,12)          =         2.255597	       1.193611
	 R(7,13)          =         2.250954	       1.191154
	 B(1,2,3)         =         1.897787	     108.735199
	 B(1,2,4)         =         1.899593	     108.838677
	 B(1,2,5)         =         1.888017	     108.175395
	 B(2,3,6)         =         1.981551	     113.534503
	 B(2,3,7)         =         1.902498	     109.005086
	 B(2,3,8)         =         1.921517	     110.094821
	 B(3,2,4)         =         1.945171	     111.450117
	 B(3,2,5)         =         1.932138	     110.703380
	 B(3,6,9)         =         1.889606	     108.266433
	 B(3,6,10)        =         1.950092	     111.732014
	 B(3,6,11)        =         1.941452	     111.236981
	 B(3,7,12)        =         2.035985	     116.653323
	 B(3,7,13)        =         2.069048	     118.547697
	 B(4,2,5)         =         1.900010	     108.862571
	 B(6,3,7)         =         1.935624	     110.903062
	 B(6,3,8)         =         1.921167	     110.074747
	 B(7,3,8)         =         1.792136	     102.681842
	 B(9,6,10)        =         1.895552	     108.607134
	 B(9,6,11)        =         1.893528	     108.491180
	 B(10,6,11)       =         1.892355	     108.423945
	 B(12,7,13)       =         2.177962	     124.788041
	 D(1,2,3,6)       =         1.022126	      58.563518
	 D(1,2,3,7)       =        -3.093942	    -177.269816
	 D(1,2,3,8)       =        -1.140634	     -65.353499
	 D(2,3,6,9)       =        -1.040192	     -59.598637
	 D(2,3,6,10)      =        -3.126847	    -179.155149
	 D(2,3,6,11)      =         1.038789	      59.518224
	 D(2,3,7,12)      =         0.815803	      46.742074
	 D(2,3,7,13)      =        -2.345775	    -134.403029
	 D(4,2,3,6)       =         3.116067	     178.537474
	 D(4,2,3,7)       =        -1.000001	     -57.295860
	 D(4,2,3,8)       =         0.953307	      54.620457
	 D(5,2,3,6)       =        -1.049669	     -60.141578
	 D(5,2,3,7)       =         1.117449	      64.025087
	 D(5,2,3,8)       =         3.070757	     175.941405
	 D(6,3,7,12)      =         3.009779	     172.447651
	 D(6,3,7,13)      =        -0.151799	      -8.697452
	 D(7,3,6,9)       =         3.093945	     177.269997
	 D(7,3,6,10)      =         1.007290	      57.713485
	 D(7,3,6,11)      =        -1.110259	     -63.613142
	 D(8,3,6,9)       =         1.122758	      64.329294
	 D(8,3,6,10)      =        -0.963897	     -55.227218
	 D(8,3,6,11)      =        -3.081446	    -176.553845
	*D(8,3,7,12)      =        -1.221730	     -69.999999
	 D(8,3,7,13)      =         1.899876	     108.854898

	Current energy   :      -321.7374539239

	Energy change for the previous step:
		Projected    :        -0.0000002682
		Actual       :        -0.0000000299
	Energy ratio indicates iffy step: Trust radius decreased to 3.906e-03.


	Performing BFGS update.
	Previous computed or guess Hessian on step 1.
	Steps to be used in Hessian update: 8 7
	Taking RFO optimization step.
	Going to follow RFO solution 1.
	Rejecting RFO root 1 because normalization gives large value.
	Using RFO vector 2.
	Norm of target step-size    0.00134
	Projected energy change by RFO approximation:        -0.0000000467

	Back-transformation to cartesian coordinates...
	Successfully converged to displaced geometry.

	Back-transformation to cartesian coordinates to adjust frozen coordinates...
	Successfully converged to displaced geometry.

	--- Internal Coordinate Step in ANG or DEG, aJ/ANG or AJ/DEG ---
	 ---------------------------------------------------------------------------
	   Coordinate                Previous        Force       Change         New 
	   ----------                --------       ------       ------       ------
	    1 R(1,2)          =      1.083779     0.000019     0.000001     1.083780
	    2 R(2,3)          =      1.524590     0.000003    -0.000002     1.524588
	    3 R(2,4)          =      1.079506    -0.000006    -0.000001     1.079506
	    4 R(2,5)          =      1.084684     0.000004     0.000001     1.084685
	    5 R(3,6)          =      1.520185    -0.000015    -0.000004     1.520181
	    6 R(3,7)          =      1.507794     0.000078     0.000005     1.507799
	    7 R(3,8)          =      1.083128    -0.000008     0.000000     1.083128
	    8 R(6,9)          =      1.084403     0.000020     0.000002     1.084406
	    9 R(6,10)         =      1.080391    -0.000012    -0.000001     1.080390
	   10 R(6,11)         =      1.082930    -0.000025    -0.000002     1.082928
	   11 R(7,12)         =      1.193611     0.000162     0.000007     1.193618
	   12 R(7,13)         =      1.191154     0.000126     0.000005     1.191158
	   13 B(1,2,3)        =    108.735199     0.000000     0.000103   108.735302
	   14 B(1,2,4)        =    108.838677    -0.000000     0.000054   108.838731
	   15 B(1,2,5)        =    108.175395    -0.000000    -0.000299   108.175096
	   16 B(2,3,6)        =    113.534503    -0.000000    -0.001088   113.533415
	   17 B(2,3,7)        =    109.005086     0.000000     0.000677   109.005763
	   18 B(2,3,8)        =    110.094821    -0.000000    -0.001560   110.093261
	   19 B(3,2,4)        =    111.450117     0.000000     0.000254   111.450371
	   20 B(3,2,5)        =    110.703380    -0.000000    -0.000562   110.702818
	   21 B(3,6,9)        =    108.266433     0.000000     0.000868   108.267300
	   22 B(3,6,10)       =    111.732014     0.000000     0.000732   111.732746
	   23 B(3,6,11)       =    111.236981    -0.000001    -0.002560   111.234421
	   24 B(3,7,12)       =    116.653323    -0.000001    -0.001447   116.651876
	   25 B(3,7,13)       =    118.547697    -0.000001    -0.002256   118.545441
	   26 B(4,2,5)        =    108.862571     0.000000     0.000440   108.863011
	   27 B(6,3,7)        =    110.903062     0.000000     0.001513   110.904575
	   28 B(6,3,8)        =    110.074747    -0.000000    -0.002174   110.072573
	   29 B(7,3,8)        =    102.681842     0.000000     0.003036   102.684878
	   30 B(9,6,10)       =    108.607134    -0.000000     0.000494   108.607627
	   31 B(9,6,11)       =    108.491180     0.000000     0.000017   108.491196
	   32 B(10,6,11)      =    108.423945     0.000000     0.000493   108.424438
	   33 B(12,7,13)      =    124.788041     0.000002     0.003732   124.791774
	   34 D(1,2,3,6)      =     58.563518    -0.000000    -0.015924    58.547594
	   35 D(1,2,3,7)      =   -177.269816    -0.000000    -0.014213  -177.284030
	   36 D(1,2,3,8)      =    -65.353499     0.000000    -0.011066   -65.364565
	   37 D(2,3,6,9)      =    -59.598637     0.000000     0.024264   -59.574374
	   38 D(2,3,6,10)     =   -179.155149     0.000000     0.022651  -179.132498
	   39 D(2,3,6,11)     =     59.518224     0.000000     0.023308    59.541532
	   40 D(2,3,7,12)     =     46.742074     0.000000     0.000025    46.742099
	   41 D(2,3,7,13)     =   -134.403029     0.000000     0.001637  -134.401392
	   42 D(4,2,3,6)      =    178.537474    -0.000000    -0.015634   178.521840
	   43 D(4,2,3,7)      =    -57.295860     0.000000    -0.013923   -57.309784
	   44 D(4,2,3,8)      =     54.620457     0.000000    -0.010776    54.609681
	   45 D(5,2,3,6)      =    -60.141578    -0.000000    -0.015289   -60.156867
	   46 D(5,2,3,7)      =     64.025087     0.000000    -0.013578    64.011509
	   47 D(5,2,3,8)      =    175.941405     0.000000    -0.010431   175.930974
	   48 D(6,3,7,12)     =    172.447651     0.000000     0.000177   172.447828
	   49 D(6,3,7,13)     =     -8.697452     0.000000     0.001789    -8.695663
	   50 D(7,3,6,9)      =    177.269997     0.000000     0.023013   177.293009
	   51 D(7,3,6,10)     =     57.713485     0.000000     0.021400    57.734885
	   52 D(7,3,6,11)     =    -63.613142     0.000000     0.022057   -63.591085
	   53 D(8,3,6,9)      =     64.329294    -0.000000     0.019741    64.349034
	   54 D(8,3,6,10)     =    -55.227218    -0.000000     0.018128   -55.209090
	   55 D(8,3,6,11)     =   -176.553845    -0.000000     0.018785  -176.535060
	   56 *D(8,3,7,12)    =    -69.999999    -0.000000    -0.000000   -69.999999
	   57 D(8,3,7,13)     =    108.854898     0.000000     0.001612   108.856510
	 ---------------------------------------------------------------------------

  ==> Convergence Check <==

  Measures of convergence in internal coordinates in au.
  Criteria marked as inactive (o), active & met (*), and active & unmet ( ).
  ---------------------------------------------------------------------------------------------
   Step     Total Energy     Delta E     MAX Force     RMS Force      MAX Disp      RMS Disp   
  ---------------------------------------------------------------------------------------------
    Convergence Criteria    1.00e-06 *    3.00e-04 *             o    1.20e-03 *             o
  ---------------------------------------------------------------------------------------------
      9    -321.73745392   -2.99e-08 *    2.26e-05 *    5.66e-06 o    4.23e-04 *    1.78e-04 o  ~
  ---------------------------------------------------------------------------------------------


  **** Optimization is complete! (in 9 steps) ****

  ==> Optimization Summary <==

  Measures of convergence in internal coordinates in au.
  --------------------------------------------------------------------------------------------------------------- ~
   Step         Total Energy             Delta E       MAX Force       RMS Force        MAX Disp        RMS Disp  ~
  --------------------------------------------------------------------------------------------------------------- ~
      1    -321.736504509027   -321.736504509027      0.01087938      0.00301596      0.13947382      0.04152594  ~
      2    -321.736393128270      0.000111380757      0.00970165      0.00272535      0.29356950      0.06600641  ~
      3    -321.733764619992      0.002628508278      0.01216341      0.00358379      0.20724804      0.04516520  ~
      4    -321.737239301162     -0.003474681170      0.00576204      0.00149560      0.04422089      0.01797506  ~
      5    -321.737327363552     -0.000088062390      0.00619581      0.00125040      0.02226850      0.00893046  ~
      6    -321.737448469101     -0.000121105550      0.00108043      0.00025019      0.01292355      0.00481557  ~
      7    -321.737452759879     -0.000004290778      0.00033314      0.00009169      0.00651565      0.00241879  ~
      8    -321.737453893985     -0.000001134106      0.00005223      0.00001497      0.00127902      0.00047879  ~
      9    -321.737453923872     -0.000000029887      0.00002255      0.00000566      0.00042348      0.00017772  ~
  --------------------------------------------------------------------------------------------------------------- ~

	Writing optimization data to binary file.
	Final energy is   -321.7374539238724
	Final (previous) structure:
	Cartesian Geometry (in Angstrom)
	    H    -2.3869809976  -1.2715427720  -0.3636324596
	    C    -1.3710526013  -1.2655089441   0.0137653553
	    C    -0.6848919372   0.0154046515  -0.4475588341
	    H    -0.8580391304  -2.1419893222  -0.3522027514
	    H    -1.4121628148  -1.3098611315   1.0967617417
	    C    -1.3897547594   1.2812295920   0.0126788257
	    N     0.7493527791  -0.0010382117   0.0173236230
	    H    -0.5852730838   0.0165325206  -1.5260954952
	    H    -2.3988973336   1.2717700263  -0.3841493357
	    H    -0.8881527070   2.1699363859  -0.3420600313
	    H    -1.4459877343   1.3281683456   1.0931289342
	    O     1.3603435320  -1.0097624952  -0.1667197787
	    O     1.1972632129   0.9833495642   0.5165266530
	Saving final (previous) structure.
			--------------------------
			 OPTKING Finished Execution 
			--------------------------

    Final optimized geometry and variables:
    Molecular point group: c1
    Full point group: C1

    Geometry (in Angstrom), charge = 0, multiplicity = 1:

    H           -2.386980815329    -1.271542674928    -0.363632431832
    C           -1.371052496640    -1.265508847506     0.013765354279
    C           -0.684891884936     0.015404650282    -0.447558799963
    H           -0.858039064830    -2.141989158640    -0.352202724521
    H           -1.412162706999    -1.309861031476     1.096761657958
    C           -1.389754653253     1.281229494172     0.012678824735
    N            0.749352721836    -0.001038211661     0.017323621635
    H           -0.585273039080     0.016532519300    -1.526095378695
    H           -2.398897150426     1.271769929194    -0.384149306362
    H           -0.888152639197     2.169936220171    -0.342060005185
    H           -1.445987623908     1.328168244155     1.093128850690
    O            1.360343428157    -1.009762418055    -0.166719765981
    O            1.197263121433     0.983349489107     0.516526613511

	Cleaning optimization helper files.


Properties will be evaluated at   0.000000,   0.000000,   0.000000 Bohr

Properties computed using the  density matrix

  Nuclear Dipole Moment: (a.u.)
     X:    -9.3416      Y:     0.0589      Z:    -0.7280

  Electronic Dipole Moment: (a.u.)
     X:     7.7489      Y:    -0.0273      Z:     0.2963

  Dipole Moment: (a.u.)
     X:    -1.5927      Y:     0.0317      Z:    -0.4317     Total:     1.6505

  Dipole Moment: (Debye)
     X:    -4.0483      Y:     0.0805      Z:    -1.0972     Total:     4.1951

  Quadrupole Moment: (Debye Ang)
    XX:   -39.2984     YY:   -38.3331     ZZ:   -34.8162
    XY:     0.6020     XZ:    -0.5150     YZ:    -1.5147

  Traceless Quadrupole Moment: (Debye Ang)
    XX:    -1.8159     YY:    -0.8505     ZZ:     2.6664
    XY:     0.6020     XZ:    -0.5150     YZ:    -1.5147

  Mulliken Charges: (a.u.)
   Center  Symbol    Alpha    Beta     Spin     Total
       1     H     0.40932  0.40932  0.00000  0.18136
       2     C     3.24799  3.24799  0.00000 -0.49598
       3     C     3.02785  3.02785  0.00000 -0.05569
       4     H     0.39069  0.39069  0.00000  0.21863
       5     H     0.40763  0.40763  0.00000  0.18474
       6     C     3.24174  3.24174  0.00000 -0.48348
       7     N     3.21659  3.21659  0.00000  0.56682
       8     H     0.38560  0.38560  0.00000  0.22879
       9     H     0.41239  0.41239  0.00000  0.17522
      10     H     0.39754  0.39754  0.00000  0.20492
      11     H     0.40507  0.40507  0.00000  0.18986
      12     O     4.22975  4.22975  0.00000 -0.45950
      13     O     4.22784  4.22784  0.00000 -0.45568

   Total alpha = 24.00000, Total beta = 24.00000, Total charge =  0.00000


*** PSI4 exiting successfully. Buy a developer a beer!
