    -----------------------------------------------------------------------
          Psi4: An Open-Source Ab Initio Electronic Structure Package
                              Psi4 1.0.54 Driver

                          Git: Rev {master} 8d4cec3 dirty

    J. M. Turney, A. C. Simmonett, R. M. Parrish, E. G. Hohenstein,
    F. A. Evangelista, J. T. Fermann, B. J. Mintz, L. A. Burns, J. J. Wilke,
    M. L. Abrams, N. J. Russ, M. L. Leininger, C. L. Janssen, E. T. Seidl,
    W. D. Allen, H. F. Schaefer, R. A. King, E. F. Valeev, C. D. Sherrill,
    and T. D. Crawford, WIREs Comput. Mol. Sci. 2, 556-565 (2012)
    (doi: 10.1002/wcms.93)

                         Additional Contributions by
    A. E. DePrince, U. Bozkaya, A. Yu. Sokolov, D. G. A. Smith, R. Di Remigio,
    R. M. Richard, J. F. Gonthier, H. R. McAlexander, M. Saitow, and
    B. P. Pritchard
    -----------------------------------------------------------------------


    Psi4 started on: Sat Sep 10 17:04:29 2016

    Process ID:  41375
    PSI4DATADIR: /export131/home/mjharvey/miniconda3/share/psi4
    Memory level set to 256.000 MB

  ==> Input File <==

--------------------------------------------------------------------------
set {
	reference rhf
	basis cc-pvtz
}


set_num_threads( 4 )
memory 2 gb

molecule MOL {
0 1

H	 -3.436473	 1.252944	 -1.023892
O	 -3.458596	 0.315260	 -0.960865
C	 -3.176635	 -0.080824	 0.355601
C	 -1.763371	 0.265266	 0.799691
H	 -3.321825	 -1.153438	 0.379502
H	 -3.895468	 0.357385	 1.043382
C	 -0.673390	 -0.426948	 -0.013392
H	 -1.631049	 1.344913	 0.747560
H	 -1.664587	 -0.001624	 1.849167
C	 0.737842	 -0.043159	 0.423759
H	 -0.806103	 -0.190518	 -1.063345
H	 -0.797221	 -1.503753	 0.074146
C	 1.824000	 -0.743224	 -0.390623
H	 0.850588	 1.033777	 0.343840
H	 0.868587	 -0.286314	 1.476203
C	 3.255957	 -0.453067	 0.062319
H	 1.718250	 -0.470599	 -1.438164
H	 1.658105	 -1.815850	 -0.339904
C	 4.113981	 -1.693394	 0.300074
H	 3.214638	 0.121846	 0.982397
H	 3.741495	 0.185392	 -0.671195
H	 3.650087	 -2.354151	 1.025526
H	 5.090148	 -1.417918	 0.682766
H	 4.270138	 -2.259576	 -0.610232

	symmetry c1
}
set optking {
	frozen_dihedral = ("
		20 16 13 17
	")
}

ee,wfn = optimize('scf', return_wfn=True)
oeprop( wfn, 'DIPOLE', 'QUADRUPOLE', 'MULLIKEN_CHARGES')
f=open( 'psi4out.xyz', 'w' )
f.write( "24  " )
f.write( str(ee) + "\n" )
f.write( MOL.save_string_xyz() )
f.close()
--------------------------------------------------------------------------

  Memory set to   2.000 GiB by Python script.
gradient() will perform analytic gradient computation.

*** tstart() called on cx1-27-1-2
*** at Sat Sep 10 17:04:30 2016


         ---------------------------------------------------------
                                   SCF
            by Justin Turney, Rob Parrish, and Andy Simmonett
                              RHF Reference
                        4 Threads,   2000 MiB Core
         ---------------------------------------------------------

  ==> Geometry <==

    Molecular point group: c1
    Full point group: C1

    Geometry (in Angstrom), charge = 0, multiplicity = 1:

       Center              X                  Y                   Z               Mass       
    ------------   -----------------  -----------------  -----------------  -----------------
           H         -3.488870303647     1.599784293026    -1.080428358201     1.007825032070
           O         -3.510993303647     0.662100293026    -1.017401358201    15.994914619560
           C         -3.229032303647     0.266016293026     0.299064641799    12.000000000000
           C         -1.815768303647     0.612106293026     0.743154641799    12.000000000000
           H         -3.374222303647    -0.806597706974     0.322965641799     1.007825032070
           H         -3.947865303647     0.704225293026     0.986845641799     1.007825032070
           C         -0.725787303647    -0.080107706974    -0.069928358201    12.000000000000
           H         -1.683446303647     1.691753293026     0.691023641799     1.007825032070
           H         -1.716984303647     0.345216293026     1.792630641799     1.007825032070
           C          0.685444696353     0.303681293026     0.367222641799    12.000000000000
           H         -0.858500303647     0.156322293026    -1.119881358201     1.007825032070
           H         -0.849618303647    -1.156912706974     0.017609641799     1.007825032070
           C          1.771602696353    -0.396383706974    -0.447159358201    12.000000000000
           H          0.798190696353     1.380617293026     0.287303641799     1.007825032070
           H          0.816189696353     0.060526293026     1.419666641799     1.007825032070
           C          3.203559696353    -0.106226706974     0.005782641799    12.000000000000
           H          1.665852696353    -0.123758706974    -1.494700358201     1.007825032070
           H          1.605707696353    -1.469009706974    -0.396440358201     1.007825032070
           C          4.061583696353    -1.346553706974     0.243537641799    12.000000000000
           H          3.162240696353     0.468686293026     0.925860641799     1.007825032070
           H          3.689097696353     0.532232293026    -0.727731358201     1.007825032070
           H          3.597689696353    -2.007310706974     0.968989641799     1.007825032070
           H          5.037750696353    -1.071077706974     0.626229641799     1.007825032070
           H          4.217740696353    -1.912735706974    -0.666768358201     1.007825032070

  Running in c1 symmetry.

  Rotational constants: A =      0.24073  B =      0.01820  C =      0.01789 [cm^-1]
  Rotational constants: A =   7216.86641  B =    545.51185  C =    536.35627 [MHz]
  Nuclear repulsion =  381.470767463676282

  Charge       = 0
  Multiplicity = 1
  Electrons    = 66
  Nalpha       = 33
  Nbeta        = 33

  ==> Algorithm <==

  SCF Algorithm Type is DF.
  DIIS enabled.
  MOM disabled.
  Fractional occupation disabled.
  Guess Type is SAD.
  Energy threshold   = 1.00e-08
  Density threshold  = 1.00e-08
  Integral threshold = 0.00e+00

  ==> Primary Basis <==

  Basis Set: CC-PVTZ
    Number of shells: 176
    Number of basis function: 464
    Number of Cartesian functions: 520
    Spherical Harmonics?: true
    Max angular momentum: 3

  ==> Pre-Iterations <==

   -------------------------------------------------------
    Irrep   Nso     Nmo     Nalpha   Nbeta   Ndocc  Nsocc
   -------------------------------------------------------
     A        464     464       0       0       0       0
   -------------------------------------------------------
    Total     464     464      33      33      33       0
   -------------------------------------------------------

  ==> Integral Setup <==

  ==> DFJK: Density-Fitted J/K Matrices <==

    J tasked:                  Yes
    K tasked:                  Yes
    wK tasked:                  No
    OpenMP threads:              4
    Integrals threads:           4
    Memory (MB):              1430
    Algorithm:                Core
    Integral Cache:           NONE
    Schwarz Cutoff:          1E-12
    Fitting Condition:       1E-12

   => Auxiliary Basis Set <=

  Basis Set: 
    Number of shells: 360
    Number of basis function: 1112
    Number of Cartesian functions: 1328
    Spherical Harmonics?: true
    Max angular momentum: 4

  Minimum eigenvalue in the overlap matrix is 2.5982585737E-04.
  Using Symmetric Orthogonalization.
  SCF Guess: Superposition of Atomic Densities via on-the-fly atomic UHF.

  ==> Iterations <==

                           Total Energy        Delta E     RMS |[F,P]|

   @DF-RHF iter   0:  -353.13389355258101   -3.53134e+02   1.21554e-02 
   @DF-RHF iter   1:  -349.12088056935823    4.01301e+00   1.33229e-03 
   @DF-RHF iter   2:  -349.33173291078532   -2.10852e-01   6.69253e-04 DIIS
   @DF-RHF iter   3:  -349.36961612246745   -3.78832e-02   2.05379e-04 DIIS
   @DF-RHF iter   4:  -349.37599423423222   -6.37811e-03   3.99746e-05 DIIS
   @DF-RHF iter   5:  -349.37635845829419   -3.64224e-04   1.34825e-05 DIIS
   @DF-RHF iter   6:  -349.37639689629117   -3.84380e-05   3.68161e-06 DIIS
   @DF-RHF iter   7:  -349.37640008183058   -3.18554e-06   8.65941e-07 DIIS
   @DF-RHF iter   8:  -349.37640025498655   -1.73156e-07   2.59063e-07 DIIS
   @DF-RHF iter   9:  -349.37640026954301   -1.45565e-08   7.93759e-08 DIIS
   @DF-RHF iter  10:  -349.37640027077595   -1.23293e-09   1.90192e-08 DIIS
   @DF-RHF iter  11:  -349.37640027086292   -8.69704e-11   3.84827e-09 DIIS

  ==> Post-Iterations <==

    Orbital Energies (a.u.)
    -----------------------

    Doubly Occupied:                                                      

       1A    -20.546335     2A    -11.265600     3A    -11.215306  
       4A    -11.211338     5A    -11.210548     6A    -11.208922  
       7A    -11.208026     8A    -11.206058     9A     -1.364148  
      10A     -1.089439    11A     -1.049505    12A     -0.988915  
      13A     -0.915198    14A     -0.845125    15A     -0.798787  
      16A     -0.786608    17A     -0.681687    18A     -0.656616  
      19A     -0.629260    20A     -0.616483    21A     -0.594801  
      22A     -0.586762    23A     -0.556159    24A     -0.539022  
      25A     -0.527895    26A     -0.506712    27A     -0.495832  
      28A     -0.473311    29A     -0.465192    30A     -0.460518  
      31A     -0.456309    32A     -0.452768    33A     -0.420987  

    Virtual:                                                              

      34A      0.138612    35A      0.146223    36A      0.160289  
      37A      0.166532    38A      0.169824    39A      0.181799  
      40A      0.197093    41A      0.210377    42A      0.217541  
      43A      0.228444    44A      0.230550    45A      0.238657  
      46A      0.252829    47A      0.258685    48A      0.271065  
      49A      0.283501    50A      0.303539    51A      0.321247  
      52A      0.340391    53A      0.352969    54A      0.362852  
      55A      0.381636    56A      0.388251    57A      0.401042  
      58A      0.425610    59A      0.435607    60A      0.443960  
      61A      0.456995    62A      0.471064    63A      0.495574  
      64A      0.498214    65A      0.508883    66A      0.517166  
      67A      0.531232    68A      0.552129    69A      0.568426  
      70A      0.582160    71A      0.590336    72A      0.594627  
      73A      0.601698    74A      0.608447    75A      0.609648  
      76A      0.630617    77A      0.634969    78A      0.643380  
      79A      0.646119    80A      0.653370    81A      0.660398  
      82A      0.664728    83A      0.667076    84A      0.674710  
      85A      0.675971    86A      0.687235    87A      0.694412  
      88A      0.706673    89A      0.714466    90A      0.721279  
      91A      0.728616    92A      0.745490    93A      0.753932  
      94A      0.770093    95A      0.807865    96A      0.809825  
      97A      0.832818    98A      0.846436    99A      0.861719  
     100A      0.880629   101A      0.903789   102A      0.916430  
     103A      0.925487   104A      0.945468   105A      0.957826  
     106A      0.985626   107A      0.994909   108A      1.007530  
     109A      1.022016   110A      1.030708   111A      1.053689  
     112A      1.057913   113A      1.074401   114A      1.085939  
     115A      1.106777   116A      1.116332   117A      1.132023  
     118A      1.152694   119A      1.160348   120A      1.186865  
     121A      1.197150   122A      1.217155   123A      1.221399  
     124A      1.233188   125A      1.241579   126A      1.267338  
     127A      1.273579   128A      1.279051   129A      1.281605  
     130A      1.291145   131A      1.309412   132A      1.312380  
     133A      1.329424   134A      1.336182   135A      1.349837  
     136A      1.353104   137A      1.354270   138A      1.366030  
     139A      1.386414   140A      1.396032   141A      1.403766  
     142A      1.412013   143A      1.426083   144A      1.429802  
     145A      1.446605   146A      1.457671   147A      1.464746  
     148A      1.477598   149A      1.487626   150A      1.491463  
     151A      1.501707   152A      1.512654   153A      1.518903  
     154A      1.525142   155A      1.542389   156A      1.552214  
     157A      1.564946   158A      1.580899   159A      1.592230  
     160A      1.600022   161A      1.613753   162A      1.621094  
     163A      1.626738   164A      1.628154   165A      1.656472  
     166A      1.678402   167A      1.687976   168A      1.695518  
     169A      1.720947   170A      1.727836   171A      1.736691  
     172A      1.743581   173A      1.771932   174A      1.782182  
     175A      1.794770   176A      1.808239   177A      1.811865  
     178A      1.837282   179A      1.843441   180A      1.848085  
     181A      1.883153   182A      1.904621   183A      1.939582  
     184A      1.974146   185A      1.994129   186A      2.016756  
     187A      2.055508   188A      2.152883   189A      2.249346  
     190A      2.293468   191A      2.369970   192A      2.431278  
     193A      2.523581   194A      2.556802   195A      2.588878  
     196A      2.617493   197A      2.649081   198A      2.661970  
     199A      2.686558   200A      2.696596   201A      2.708997  
     202A      2.711788   203A      2.726044   204A      2.742540  
     205A      2.753837   206A      2.784268   207A      2.798625  
     208A      2.818766   209A      2.826773   210A      2.837528  
     211A      2.848115   212A      2.857296   213A      2.869198  
     214A      2.887352   215A      2.904880   216A      2.931288  
     217A      2.942827   218A      2.946147   219A      2.961497  
     220A      2.970225   221A      2.998704   222A      3.010437  
     223A      3.020355   224A      3.026132   225A      3.037793  
     226A      3.059008   227A      3.072070   228A      3.083627  
     229A      3.109423   230A      3.130177   231A      3.135022  
     232A      3.158292   233A      3.169327   234A      3.201851  
     235A      3.228457   236A      3.243182   237A      3.245157  
     238A      3.256082   239A      3.263830   240A      3.266591  
     241A      3.274629   242A      3.303208   243A      3.311437  
     244A      3.324803   245A      3.331158   246A      3.346600  
     247A      3.353352   248A      3.363023   249A      3.379192  
     250A      3.389462   251A      3.390716   252A      3.395344  
     253A      3.412912   254A      3.415612   255A      3.426516  
     256A      3.436394   257A      3.445100   258A      3.450515  
     259A      3.455989   260A      3.460461   261A      3.470793  
     262A      3.475608   263A      3.489187   264A      3.506055  
     265A      3.516024   266A      3.520623   267A      3.541352  
     268A      3.552059   269A      3.560919   270A      3.575374  
     271A      3.582029   272A      3.589340   273A      3.601066  
     274A      3.611331   275A      3.618818   276A      3.627457  
     277A      3.641313   278A      3.661685   279A      3.666574  
     280A      3.675906   281A      3.721393   282A      3.731555  
     283A      3.755575   284A      3.766113   285A      3.782292  
     286A      3.795042   287A      3.811183   288A      3.820829  
     289A      3.839451   290A      3.843174   291A      3.853435  
     292A      3.860792   293A      3.884374   294A      3.896548  
     295A      3.911785   296A      3.915386   297A      3.932380  
     298A      3.942875   299A      3.945425   300A      3.960332  
     301A      3.977451   302A      3.995455   303A      4.000358  
     304A      4.024567   305A      4.032184   306A      4.048236  
     307A      4.087015   308A      4.088749   309A      4.106891  
     310A      4.116437   311A      4.123055   312A      4.134858  
     313A      4.141208   314A      4.155311   315A      4.155759  
     316A      4.177770   317A      4.183184   318A      4.191807  
     319A      4.201917   320A      4.210539   321A      4.217537  
     322A      4.229352   323A      4.233852   324A      4.240138  
     325A      4.254990   326A      4.267135   327A      4.272065  
     328A      4.298662   329A      4.313626   330A      4.322130  
     331A      4.323053   332A      4.344685   333A      4.355395  
     334A      4.367250   335A      4.368628   336A      4.386281  
     337A      4.395199   338A      4.400410   339A      4.423068  
     340A      4.426359   341A      4.444808   342A      4.447669  
     343A      4.464459   344A      4.475787   345A      4.486152  
     346A      4.499773   347A      4.513982   348A      4.526049  
     349A      4.537733   350A      4.551491   351A      4.561662  
     352A      4.565342   353A      4.591124   354A      4.594368  
     355A      4.604159   356A      4.616755   357A      4.642867  
     358A      4.646622   359A      4.666454   360A      4.674084  
     361A      4.684863   362A      4.688746   363A      4.704232  
     364A      4.710500   365A      4.736445   366A      4.756417  
     367A      4.767801   368A      4.778581   369A      4.793431  
     370A      4.802506   371A      4.821196   372A      4.832207  
     373A      4.858247   374A      4.909025   375A      4.932120  
     376A      4.982836   377A      4.989924   378A      5.021615  
     379A      5.029640   380A      5.051727   381A      5.076715  
     382A      5.092607   383A      5.111169   384A      5.142998  
     385A      5.162567   386A      5.170625   387A      5.180124  
     388A      5.199213   389A      5.213303   390A      5.216050  
     391A      5.237533   392A      5.252891   393A      5.264272  
     394A      5.272775   395A      5.291955   396A      5.318024  
     397A      5.321064   398A      5.345032   399A      5.363840  
     400A      5.364921   401A      5.375231   402A      5.404068  
     403A      5.429800   404A      5.447762   405A      5.486125  
     406A      5.494100   407A      5.505046   408A      5.531384  
     409A      5.549330   410A      5.565405   411A      5.582278  
     412A      5.616992   413A      5.641796   414A      5.656268  
     415A      5.709369   416A      5.739222   417A      5.759905  
     418A      5.761894   419A      5.771286   420A      5.792262  
     421A      5.813335   422A      5.830694   423A      5.842894  
     424A      5.860694   425A      5.871213   426A      5.889060  
     427A      5.912620   428A      5.930162   429A      5.939589  
     430A      5.955084   431A      5.968899   432A      5.973037  
     433A      6.013400   434A      6.048407   435A      6.066546  
     436A      6.095328   437A      6.169196   438A      6.217456  
     439A      6.294646   440A      6.325156   441A      6.336837  
     442A      6.354078   443A      6.377911   444A      6.406911  
     445A      6.464607   446A      6.503746   447A      6.534297  
     448A      6.760565   449A      7.077668   450A      7.178311  
     451A      7.265722   452A      7.301412   453A      7.427733  
     454A      7.534430   455A      7.722943   456A      8.028989  
     457A     12.788850   458A     12.813420   459A     13.257731  
     460A     13.545437   461A     13.683527   462A     13.851276  
     463A     14.119473   464A     14.336980  

    Final Occupation by Irrep:
              A 
    DOCC [    33 ]

  Energy converged.

  @DF-RHF Final Energy:  -349.37640027086292

   => Energetics <=

    Nuclear Repulsion Energy =            381.4707674636762817
    One-Electron Energy =               -1229.6339927877415903
    Two-Electron Energy =                 498.7868250532026195
    DFT Exchange-Correlation Energy =       0.0000000000000000
    Empirical Dispersion Energy =           0.0000000000000000
    PCM Polarization Energy =               0.0000000000000000
    EFP Energy =                            0.0000000000000000
    Total Energy =                       -349.3764002708626322


  Saving occupied orbitals to File 180.

*** tstop() called on cx1-27-1-2 at Sat Sep 10 17:04:48 2016
Module time:
	user time   =      64.14 seconds =       1.07 minutes
	system time =       1.24 seconds =       0.02 minutes
	total time  =         18 seconds =       0.30 minutes
Total time:
	user time   =      64.14 seconds =       1.07 minutes
	system time =       1.24 seconds =       0.02 minutes
	total time  =         18 seconds =       0.30 minutes


Properties will be evaluated at   0.000000,   0.000000,   0.000000 Bohr

Properties computed using the SCF density matrix

  Nuclear Dipole Moment: (a.u.)
     X:     8.1119      Y:    -1.5043      Z:     2.3886

  Electronic Dipole Moment: (a.u.)
     X:    -7.9487      Y:     1.9224      Z:    -1.9318

  Dipole Moment: (a.u.)
     X:     0.1632      Y:     0.4181      Z:     0.4568     Total:     0.6404

  Dipole Moment: (Debye)
     X:     0.4149      Y:     1.0626      Z:     1.1612     Total:     1.6278


*** tstart() called on cx1-27-1-2
*** at Sat Sep 10 17:04:48 2016


         ------------------------------------------------------------
                                   SCF GRAD                          
                          Rob Parrish, Justin Turney,                
                       Andy Simmonett, and Alex Sokolov              
         ------------------------------------------------------------

  ==> Geometry <==

    Molecular point group: c1
    Full point group: C1

    Geometry (in Angstrom), charge = 0, multiplicity = 1:

       Center              X                  Y                   Z               Mass       
    ------------   -----------------  -----------------  -----------------  -----------------
           H         -3.488870303647     1.599784293026    -1.080428358201     1.007825032070
           O         -3.510993303647     0.662100293026    -1.017401358201    15.994914619560
           C         -3.229032303647     0.266016293026     0.299064641799    12.000000000000
           C         -1.815768303647     0.612106293026     0.743154641799    12.000000000000
           H         -3.374222303647    -0.806597706974     0.322965641799     1.007825032070
           H         -3.947865303647     0.704225293026     0.986845641799     1.007825032070
           C         -0.725787303647    -0.080107706974    -0.069928358201    12.000000000000
           H         -1.683446303647     1.691753293026     0.691023641799     1.007825032070
           H         -1.716984303647     0.345216293026     1.792630641799     1.007825032070
           C          0.685444696353     0.303681293026     0.367222641799    12.000000000000
           H         -0.858500303647     0.156322293026    -1.119881358201     1.007825032070
           H         -0.849618303647    -1.156912706974     0.017609641799     1.007825032070
           C          1.771602696353    -0.396383706974    -0.447159358201    12.000000000000
           H          0.798190696353     1.380617293026     0.287303641799     1.007825032070
           H          0.816189696353     0.060526293026     1.419666641799     1.007825032070
           C          3.203559696353    -0.106226706974     0.005782641799    12.000000000000
           H          1.665852696353    -0.123758706974    -1.494700358201     1.007825032070
           H          1.605707696353    -1.469009706974    -0.396440358201     1.007825032070
           C          4.061583696353    -1.346553706974     0.243537641799    12.000000000000
           H          3.162240696353     0.468686293026     0.925860641799     1.007825032070
           H          3.689097696353     0.532232293026    -0.727731358201     1.007825032070
           H          3.597689696353    -2.007310706974     0.968989641799     1.007825032070
           H          5.037750696353    -1.071077706974     0.626229641799     1.007825032070
           H          4.217740696353    -1.912735706974    -0.666768358201     1.007825032070

  Nuclear repulsion =  381.470767463676282

  ==> Basis Set <==

  Basis Set: CC-PVTZ
    Number of shells: 176
    Number of basis function: 464
    Number of Cartesian functions: 520
    Spherical Harmonics?: true
    Max angular momentum: 3

  ==> DFJKGrad: Density-Fitted SCF Gradients <==

    Gradient:                    1
    J tasked:                  Yes
    K tasked:                  Yes
    wK tasked:                  No
    OpenMP threads:              4
    Integrals threads:           4
    Memory (MB):              1430
    Schwarz Cutoff:          0E+00
    Fitting Condition:       1E-12

   => Auxiliary Basis Set <=

  Basis Set: 
    Number of shells: 360
    Number of basis function: 1112
    Number of Cartesian functions: 1328
    Spherical Harmonics?: true
    Max angular momentum: 4


  -Total Gradient:
     Atom            X                  Y                   Z
    ------   -----------------  -----------------  -----------------
       1       -0.000002537694     0.000025189270    -0.000027135371
       2       -0.000037298040     0.000062818137    -0.000050241087
       3        0.000034484363    -0.000080509043     0.000000956322
       4       -0.000020144494    -0.000015336459    -0.000007039564
       5        0.000019350216    -0.000005225128     0.000044158401
       6        0.000011604974     0.000005295558     0.000003568240
       7        0.000046021433    -0.000269580477     0.000045706061
       8        0.000017974665    -0.000002254773    -0.000007926693
       9        0.000008623751    -0.000009335034    -0.000009173376
      10        0.000635326396     0.001422877916     0.000503682313
      11        0.000027232867     0.000008467403     0.000015853424
      12       -0.000082522114    -0.000029460059    -0.000003786461
      13        0.002761686020     0.005651811957     0.004774903657
      14       -0.001648721417    -0.001166832933     0.000079436212
      15       -0.000125572050    -0.000012399501     0.000213914242
      16       -0.003287461124    -0.006302274236    -0.003149313337
      17        0.001810135528     0.001520040036    -0.001209242707
      18        0.002348370011    -0.000228074864     0.000589643656
      19       -0.000121431664    -0.001177015277    -0.000721968007
      20       -0.002472008223    -0.000025773715    -0.000413411790
      21       -0.000893107711     0.000399601811    -0.002297603471
      22        0.000037869504    -0.000175223613     0.000174655549
      23       -0.000317188701     0.000084262988     0.000067170473
      24        0.001249313501     0.000318930035     0.001383193316


*** tstop() called on cx1-27-1-2 at Sat Sep 10 17:05:07 2016
Module time:
	user time   =      69.92 seconds =       1.17 minutes
	system time =       0.97 seconds =       0.02 minutes
	total time  =         19 seconds =       0.32 minutes
Total time:
	user time   =     134.21 seconds =       2.24 minutes
	system time =       2.21 seconds =       0.04 minutes
	total time  =         37 seconds =       0.62 minutes

			-----------------------------------------
			 OPTKING 2.0: for geometry optimizations 
			  - R.A. King,  Bethel University        
			-----------------------------------------

	Internal coordinates to be generated automatically.
	Detected frag 1 with atoms:  1 2 3 4 5 6 7 8 9 10 11 12 13 14 15 16 17 18 19 20
	 21 22 23 24
	---Fragment 1 Bond Connectivity---
	 1 : 2
	 2 : 1 3
	 3 : 2 4 5 6
	 4 : 3 7 8 9
	 5 : 3
	 6 : 3
	 7 : 4 10 11 12
	 8 : 4
	 9 : 4
	 10 : 7 13 14 15
	 11 : 7
	 12 : 7
	 13 : 10 16 17 18
	 14 : 10
	 15 : 10
	 16 : 13 19 20 21
	 17 : 13
	 18 : 13
	 19 : 16 22 23 24
	 20 : 16
	 21 : 16
	 22 : 19
	 23 : 19
	 24 : 19

	Assuming in current code that numbering for constraints corresponds to unified fragment.
	Frozen dihedral atom list: 
	    20    16    13    17
	---Fragment 1 Geometry and Gradient---
	 H          -6.5930093871        3.0231541855       -2.0417137032
	 O          -6.6348157983        1.2511882263       -1.9226099342
	 C          -6.1019867281        0.5026979407        0.5651502690
	 C          -3.4313048147        1.1567132580        1.4043587474
	 H          -6.3763560654       -1.5242487656        0.6103166133
	 H          -7.4603842334        1.3307929397        1.8648679984
	 C          -1.3715392346       -0.1513816273       -0.1321454459
	 H          -3.1812524733        3.1969504082        1.3058454343
	 H          -3.2446301084        0.6523642504        3.3875809704
	 C           1.2953027553        0.5738744755        0.6939502228
	 H          -1.6223304589        0.2954063223       -2.1162690683
	 H          -1.6055459114       -2.1862481758        0.0332774003
	 C           3.3478439124       -0.7490566497       -0.8450087248
	 H           1.5083618179        2.6089885781        0.5429252000
	 H           1.5423749986        0.1143781177        2.6827811530
	 C           6.0538504765       -0.2007393842        0.0109276093
	 H           3.1480053738       -0.2338700627       -2.8245743277
	 H           3.0343477956       -2.7760260327       -0.7491637050
	 C           7.6752808519       -2.5446177294        0.4602194460
	 H           5.9757688824        0.8856887361        1.7496230502
	 H           6.9713843236        1.0057732729       -1.3752129653
	 H           6.7986482372       -3.7932674998        1.8311250486
	 H           9.5199691419       -2.0240435332        1.1834025193
	 H           7.9703748156       -3.6145466508       -1.2600095911
	            -0.0000025377        0.0000251893       -0.0000271354
	            -0.0000372980        0.0000628181       -0.0000502411
	             0.0000344844       -0.0000805090        0.0000009563
	            -0.0000201445       -0.0000153365       -0.0000070396
	             0.0000193502       -0.0000052251        0.0000441584
	             0.0000116050        0.0000052956        0.0000035682
	             0.0000460214       -0.0002695805        0.0000457061
	             0.0000179747       -0.0000022548       -0.0000079267
	             0.0000086238       -0.0000093350       -0.0000091734
	             0.0006353264        0.0014228779        0.0005036823
	             0.0000272329        0.0000084674        0.0000158534
	            -0.0000825221       -0.0000294601       -0.0000037865
	             0.0027616860        0.0056518120        0.0047749037
	            -0.0016487214       -0.0011668329        0.0000794362
	            -0.0001255721       -0.0000123995        0.0002139142
	            -0.0032874611       -0.0063022742       -0.0031493133
	             0.0018101355        0.0015200400       -0.0012092427
	             0.0023483700       -0.0002280749        0.0005896437
	            -0.0001214317       -0.0011770153       -0.0007219680
	            -0.0024720082       -0.0000257737       -0.0004134118
	            -0.0008931077        0.0003996018       -0.0022976035
	             0.0000378695       -0.0001752236        0.0001746555
	            -0.0003171887        0.0000842630        0.0000671705
	             0.0012493135        0.0003189300        0.0013831933

	Previous optimization step data not found.  Starting new optimization.

	---Fragment 1 Intrafragment Coordinates---
	 - Coordinate -           - BOHR/RAD -       - ANG/DEG -
	 R(1,2)           =         1.776456	       0.940060
	 R(2,3)           =         2.651998	       1.403377
	 R(3,4)           =         2.874813	       1.521285
	 R(3,5)           =         2.045930	       1.082660
	 R(3,6)           =         2.054325	       1.087102
	 R(4,7)           =         2.883503	       1.525884
	 R(4,8)           =         2.057863	       1.088974
	 R(4,9)           =         2.054844	       1.087377
	 R(7,10)          =         2.884524	       1.526424
	 R(7,11)          =         2.049210	       1.084395
	 R(7,12)          =         2.054947	       1.087431
	 R(10,13)         =         2.886428	       1.527432
	 R(10,14)         =         2.051802	       1.085767
	 R(10,15)         =         2.056120	       1.088052
	 R(13,16)         =         2.890631	       1.529656
	 R(13,17)         =         2.055245	       1.087589
	 R(13,18)         =         2.053307	       1.086563
	 R(16,19)         =         2.885250	       1.526808
	 R(16,20)         =         2.051703	       1.085714
	 R(16,21)         =         2.054003	       1.086931
	 R(19,22)         =         2.051096	       1.085393
	 R(19,23)         =         2.048625	       1.084086
	 R(19,24)         =         2.047197	       1.083330
	 B(1,2,3)         =         1.917382	     109.857880
	 B(2,3,4)         =         1.978258	     113.345861
	 B(2,3,5)         =         1.847704	     105.865657
	 B(2,3,6)         =         1.925028	     110.295994
	 B(3,4,7)         =         1.987611	     113.881728
	 B(3,4,8)         =         1.901235	     108.932738
	 B(3,4,9)         =         1.886305	     108.077317
	 B(4,3,5)         =         1.921465	     110.091821
	 B(4,3,6)         =         1.915473	     109.748538
	 B(4,7,10)        =         1.975509	     113.188316
	 B(4,7,11)        =         1.906681	     109.244779
	 B(4,7,12)        =         1.901783	     108.964112
	 B(5,3,6)         =         1.872048	     107.260452
	 B(7,4,8)         =         1.915008	     109.721893
	 B(7,4,9)         =         1.915639	     109.758006
	 B(7,10,13)       =         1.970891	     112.923739
	 B(7,10,14)       =         1.901077	     108.923706
	 B(7,10,15)       =         1.909138	     109.385572
	 B(8,4,9)         =         1.853035	     106.171057
	 B(10,7,11)       =         1.913062	     109.610374
	 B(10,7,12)       =         1.908372	     109.341639
	 B(10,13,16)      =         2.005198	     114.889392
	 B(10,13,17)      =         1.906577	     109.238824
	 B(10,13,18)      =         1.895462	     108.601958
	 B(11,7,12)       =         1.854492	     106.254557
	 B(13,10,14)      =         1.919325	     109.969210
	 B(13,10,15)      =         1.904820	     109.138157
	 B(13,16,19)      =         2.002141	     114.714257
	 B(13,16,20)      =         1.892045	     108.406165
	 B(13,16,21)      =         1.906855	     109.254729
	 B(14,10,15)      =         1.854985	     106.282831
	 B(16,13,17)      =         1.905700	     109.188547
	 B(16,13,18)      =         1.892686	     108.442923
	 B(16,19,22)      =         1.937393	     111.004431
	 B(16,19,23)      =         1.933251	     110.767098
	 B(16,19,24)      =         1.954895	     112.007254
	 B(17,13,18)      =         1.852058	     106.115102
	 B(19,16,20)      =         1.896095	     108.638220
	 B(19,16,21)      =         1.908405	     109.343567
	 B(20,16,21)      =         1.852355	     106.132115
	 B(22,19,23)      =         1.879267	     107.674073
	 B(22,19,24)      =         1.880810	     107.762462
	 B(23,19,24)      =         1.875109	     107.435829
	 D(1,2,3,4)       =        -1.135895	     -65.081972
	 D(1,2,3,5)       =         3.039395	     174.144510
	 D(1,2,3,6)       =         1.019675	      58.423088
	 D(2,3,4,7)       =        -1.089366	     -62.416066
	 D(2,3,4,8)       =         1.054284	      60.406016
	 D(2,3,4,9)       =         3.060386	     175.347189
	 D(3,4,7,10)      =         3.117777	     178.635459
	 D(3,4,7,11)      =         0.980963	      56.205063
	 D(3,4,7,12)      =        -1.038154	     -59.481819
	 D(4,7,10,13)     =         3.137973	     179.792631
	 D(4,7,10,14)     =        -1.007570	     -57.729496
	 D(4,7,10,15)     =         1.013097	      58.046163
	 D(5,3,4,7)       =         0.976321	      55.939057
	 D(5,3,4,8)       =         3.119970	     178.761138
	 D(5,3,4,9)       =        -1.157113	     -66.297688
	 D(6,3,4,7)       =         3.033020	     173.779226
	 D(6,3,4,8)       =        -1.106516	     -63.398692
	 D(6,3,4,9)       =         0.899586	      51.542481
	 D(7,10,13,16)    =        -3.083034	    -176.644830
	 D(7,10,13,17)    =         1.052152	      60.283844
	 D(7,10,13,18)    =        -0.960542	     -55.034980
	 D(8,4,7,10)      =         0.981679	      56.246076
	 D(8,4,7,11)      =        -1.155134	     -66.184320
	 D(8,4,7,12)      =         3.108934	     178.128799
	 D(9,4,7,10)      =        -1.048208	     -60.057873
	 D(9,4,7,11)      =         3.098164	     177.511731
	 D(9,4,7,12)      =         1.079047	      61.824850
	 D(10,13,16,19)   =         2.242731	     128.499003
	 D(10,13,16,20)   =         0.120459	       6.901768
	 D(10,13,16,21)   =        -1.890876	    -108.339206
	 D(11,7,10,13)    =        -1.011954	     -57.980719
	 D(11,7,10,14)    =         1.125688	      64.497155
	 D(11,7,10,15)    =        -3.136831	    -179.727187
	 D(12,7,10,13)    =         1.014413	      58.121576
	 D(12,7,10,14)    =        -3.131130	    -179.400551
	 D(12,7,10,15)    =        -1.110464	     -63.624892
	 D(13,16,19,22)   =        -0.986875	     -56.543766
	 D(13,16,19,23)   =        -3.073673	    -176.108487
	 D(13,16,19,24)   =         1.116378	      63.963727
	 D(14,10,13,16)   =         1.072746	      61.463831
	 D(14,10,13,17)   =        -1.075254	     -61.607495
	 D(14,10,13,18)   =        -3.087947	    -176.926319
	 D(15,10,13,16)   =        -0.955725	     -54.759006
	 D(15,10,13,17)   =        -3.103725	    -177.830331
	 D(15,10,13,18)   =         1.166767	      66.850844
	 D(17,13,16,19)   =        -1.891985	    -108.402777
	*D(17,13,16,20)   =         2.268928	     129.999987
	 D(17,13,16,21)   =         0.257593	      14.759014
	 D(18,13,16,19)   =         0.118730	       6.802724
	 D(18,13,16,20)   =        -2.003542	    -114.794512
	 D(18,13,16,21)   =         2.268309	     129.964515
	 D(20,16,19,22)   =         1.133186	      64.926771
	 D(20,16,19,23)   =        -0.953612	     -54.637950
	 D(20,16,19,24)   =        -3.046747	    -174.565737
	 D(21,16,19,22)   =        -3.135622	    -179.657904
	 D(21,16,19,23)   =         1.060765	      60.777375
	 D(21,16,19,24)   =        -1.032369	     -59.150412

	Current energy   :      -349.3764002709

	Generating empirical Hessian (Schlegel '84) for each fragment.
	Taking RFO optimization step.
	Going to follow RFO solution 1.
	Using RFO vector 1.
	Norm of target step-size    0.37228
	Projected energy change by RFO approximation:         0.0000129764

	Back-transformation to cartesian coordinates...
	Successfully converged to displaced geometry.

	Back-transformation to cartesian coordinates to adjust frozen coordinates...
	Successfully converged to displaced geometry.

	--- Internal Coordinate Step in ANG or DEG, aJ/ANG or AJ/DEG ---
	 ---------------------------------------------------------------------------
	   Coordinate                Previous        Force       Change         New 
	   ----------                --------       ------       ------       ------
	    1 R(1,2)          =      0.940060    -0.000221    -0.000024     0.940037
	    2 R(2,3)          =      1.403377    -0.000869    -0.000123     1.403254
	    3 R(3,4)          =      1.521285     0.000141     0.000030     1.521315
	    4 R(3,5)          =      1.082660    -0.000029    -0.000005     1.082655
	    5 R(3,6)          =      1.087102     0.000027     0.000005     1.087107
	    6 R(4,7)          =      1.525884     0.000493     0.000106     1.525990
	    7 R(4,8)          =      1.088974    -0.000003    -0.000000     1.088974
	    8 R(4,9)          =      1.087377     0.000048     0.000009     1.087386
	    9 R(7,10)         =      1.526424    -0.000457    -0.000098     1.526326
	   10 R(7,11)         =      1.084395     0.000139     0.000025     1.084420
	   11 R(7,12)         =      1.087431    -0.000315    -0.000057     1.087373
	   12 R(10,13)        =      1.527432    -0.009812    -0.002115     1.525317
	   13 R(10,14)        =      1.085767     0.010994     0.001992     1.087759
	   14 R(10,15)        =      1.088052    -0.001603    -0.000293     1.087759
	   15 R(13,16)        =      1.529656     0.067605     0.014671     1.544328
	   16 R(13,17)        =      1.087589    -0.011285    -0.002057     1.085532
	   17 R(13,18)        =      1.086563     0.000872     0.000158     1.086722
	   18 R(16,19)        =      1.526808    -0.011439    -0.002460     1.524348
	   19 R(16,20)        =      1.085714     0.002224     0.000403     1.086117
	   20 R(16,21)        =      1.086931    -0.011421    -0.002077     1.084854
	   21 R(19,22)        =      1.085393    -0.001707    -0.000309     1.085084
	   22 R(19,23)        =      1.084086     0.001981     0.000357     1.084443
	   23 R(19,24)        =      1.083330     0.009465     0.001701     1.085031
	   24 B(1,2,3)        =    109.857880    -0.000003    -0.018811   109.839069
	   25 B(2,3,4)        =    113.345861    -0.000002    -0.021102   113.324759
	   26 B(2,3,5)        =    105.865657    -0.000003    -0.009600   105.856056
	   27 B(2,3,6)        =    110.295994     0.000001    -0.017547   110.278447
	   28 B(3,4,7)        =    113.881728    -0.000001     0.047084   113.928812
	   29 B(3,4,8)        =    108.932738    -0.000000    -0.013496   108.919242
	   30 B(3,4,9)        =    108.077317    -0.000001    -0.017548   108.059769
	   31 B(4,3,5)        =    110.091821     0.000003     0.001820   110.093641
	   32 B(4,3,6)        =    109.748538     0.000002     0.061959   109.810497
	   33 B(4,7,10)       =    113.188316     0.000001     0.053804   113.242121
	   34 B(4,7,11)       =    109.244779    -0.000001    -0.021433   109.223345
	   35 B(4,7,12)       =    108.964112     0.000003    -0.013768   108.950344
	   36 B(5,3,6)        =    107.260452    -0.000001    -0.018683   107.241770
	   37 B(7,4,8)        =    109.721893     0.000001    -0.017037   109.704855
	   38 B(7,4,9)        =    109.758006     0.000001    -0.018095   109.739911
	   39 B(7,10,13)      =    112.923739     0.000077     0.358167   113.281906
	   40 B(7,10,14)      =    108.923706     0.000042     0.352078   109.275783
	   41 B(7,10,15)      =    109.385572    -0.000012     0.190912   109.576484
	   42 B(8,4,9)        =    106.171057    -0.000000     0.017369   106.188426
	   43 B(10,7,11)      =    109.610374     0.000003     0.019948   109.630322
	   44 B(10,7,12)      =    109.341639    -0.000006    -0.062653   109.278986
	   45 B(10,13,16)     =    114.889392    -0.000330    -1.343035   113.546357
	   46 B(10,13,17)     =    109.238824     0.000006    -1.224643   108.014181
	   47 B(10,13,18)     =    108.601958     0.000027     0.096761   108.698718
	   48 B(11,7,12)      =    106.254557     0.000000     0.022065   106.276621
	   49 B(13,10,14)     =    109.969210    -0.000099    -0.754340   109.214869
	   50 B(13,10,15)     =    109.138157    -0.000020    -0.068626   109.069531
	   51 B(13,16,19)     =    114.714257    -0.000308    -0.831396   113.882861
	   52 B(13,16,20)     =    108.406165     0.000229     1.831064   110.237229
	   53 B(13,16,21)     =    109.254729     0.000158     0.296970   109.551699
	   54 B(14,10,15)     =    106.282831     0.000007    -0.107431   106.175400
	   55 B(16,13,17)     =    109.188547     0.000177     0.649931   109.838478
	   56 B(16,13,18)     =    108.442923     0.000231     1.958810   110.401733
	   57 B(16,19,22)     =    111.004431    -0.000001    -0.099426   110.905005
	   58 B(16,19,23)     =    110.767098     0.000055     0.285584   111.052682
	   59 B(16,19,24)     =    112.007254    -0.000136    -0.988384   111.018870
	   60 B(17,13,18)     =    106.115102    -0.000096    -0.074840   106.040262
	   61 B(19,16,20)     =    108.638220     0.000022     0.428875   109.067095
	   62 B(19,16,21)     =    109.343567     0.000008    -0.813927   108.529640
	   63 B(20,16,21)     =    106.132115    -0.000095    -0.935346   105.196769
	   64 B(22,19,23)     =    107.674073    -0.000000     0.306329   107.980402
	   65 B(22,19,24)     =    107.762462     0.000033     0.020389   107.782851
	   66 B(23,19,24)     =    107.435829     0.000055     0.525740   107.961568
	   67 D(1,2,3,4)      =    -65.081972    -0.000000    -0.036739   -65.118710
	   68 D(1,2,3,5)      =    174.144510    -0.000000    -0.020151   174.124359
	   69 D(1,2,3,6)      =     58.423088     0.000000     0.015703    58.438791
	   70 D(2,3,4,7)      =    -62.416066     0.000000     0.091299   -62.324767
	   71 D(2,3,4,8)      =     60.406016     0.000001     0.091799    60.497815
	   72 D(2,3,4,9)      =    175.347189     0.000000     0.095950   175.443139
	   73 D(3,4,7,10)     =    178.635459     0.000001     0.136991   178.772450
	   74 D(3,4,7,11)     =     56.205063    -0.000000     0.090057    56.295119
	   75 D(3,4,7,12)     =    -59.481819    -0.000000     0.083107   -59.398712
	   76 D(4,7,10,13)    =    179.792631     0.000005     0.152593   179.945224
	   77 D(4,7,10,14)    =    -57.729496    -0.000005    -0.316629   -58.046125
	   78 D(4,7,10,15)    =     58.046163     0.000000    -0.141587    57.904576
	   79 D(5,3,4,7)      =     55.939057    -0.000000     0.066702    56.005758
	   80 D(5,3,4,8)      =    178.761138    -0.000000     0.067202   178.828340
	   81 D(5,3,4,9)      =    -66.297688    -0.000000     0.071353   -66.226335
	   82 D(6,3,4,7)      =    173.779226     0.000000     0.082364   173.861590
	   83 D(6,3,4,8)      =    -63.398692     0.000000     0.082864   -63.315828
	   84 D(6,3,4,9)      =     51.542481    -0.000000     0.087015    51.629496
	   85 D(7,10,13,16)   =   -176.644830    -0.000010    -5.847203  -182.492034
	   86 D(7,10,13,17)   =     60.283844    -0.000010    -4.848001    55.435843
	   87 D(7,10,13,18)   =    -55.034980     0.000012    -4.162559   -59.197539
	   88 D(8,4,7,10)     =     56.246076     0.000001     0.134154    56.380230
	   89 D(8,4,7,11)     =    -66.184320     0.000000     0.087220   -66.097100
	   90 D(8,4,7,12)     =    178.128799    -0.000000     0.080270   178.209069
	   91 D(9,4,7,10)     =    -60.057873     0.000001     0.133437   -59.924436
	   92 D(9,4,7,11)     =    177.511731    -0.000000     0.086503   177.598234
	   93 D(9,4,7,12)     =     61.824850    -0.000000     0.079553    61.904403
	   94 D(10,13,16,19)  =    128.499003     0.000019     3.404229   131.903232
	   95 D(10,13,16,20)  =      6.901768     0.000021     2.044420     8.946187
	   96 D(10,13,16,21)  =   -108.339206    -0.000001     1.982577  -106.356629
	   97 D(11,7,10,13)   =    -57.980719     0.000005     0.176786   -57.803932
	   98 D(11,7,10,14)   =     64.497155    -0.000005    -0.292436    64.204719
	   99 D(11,7,10,15)   =   -179.727187     0.000001    -0.117394  -179.844581
	  100 D(12,7,10,13)   =     58.121576     0.000005     0.178960    58.300536
	  101 D(12,7,10,14)   =   -179.400551    -0.000006    -0.290262  -179.690813
	  102 D(12,7,10,15)   =    -63.624892     0.000000    -0.115220   -63.740113
	  103 D(13,16,19,22)  =    -56.543766    -0.000006    -5.032109   -61.575875
	  104 D(13,16,19,23)  =   -176.108487    -0.000014    -5.540399  -181.648885
	  105 D(13,16,19,24)  =     63.963727    -0.000018    -5.737809    58.225918
	  106 D(14,10,13,16)  =     61.463831    -0.000019    -5.998515    55.465316
	  107 D(14,10,13,17)  =    -61.607495    -0.000019    -4.999313   -66.606808
	  108 D(14,10,13,18)  =   -176.926319     0.000003    -4.313871  -181.240190
	  109 D(15,10,13,16)  =    -54.759006    -0.000005    -5.409900   -60.168906
	  110 D(15,10,13,17)  =   -177.830331    -0.000005    -4.410698  -182.241029
	  111 D(15,10,13,18)  =     66.850844     0.000017    -3.725256    63.125589
	  112 D(17,13,16,19)  =   -108.402777    -0.000002     1.359809  -107.042968
	  113 *D(17,13,16,20) =    129.999987    -0.000000    -0.000000   129.999987
	  114 D(17,13,16,21)  =     14.759014    -0.000022    -0.061843    14.697171
	  115 D(18,13,16,19)  =      6.802724     0.000022     2.743524     9.546248
	  116 D(18,13,16,20)  =   -114.794512     0.000024     1.383715  -113.410797
	  117 D(18,13,16,21)  =    129.964515     0.000002     1.321872   131.286387
	  118 D(20,16,19,22)  =     64.926771     0.000018    -2.908849    62.017922
	  119 D(20,16,19,23)  =    -54.637950     0.000010    -3.417138   -58.055088
	  120 D(20,16,19,24)  =   -174.565737     0.000006    -3.614548  -178.180285
	  121 D(21,16,19,22)  =   -179.657904    -0.000004    -4.222128  -183.880032
	  122 D(21,16,19,23)  =     60.777375    -0.000012    -4.730418    56.046957
	  123 D(21,16,19,24)  =    -59.150412    -0.000016    -4.927827   -64.078239
	 ---------------------------------------------------------------------------
	Successfully symmetrized geometry.

  ==> Convergence Check <==

  Measures of convergence in internal coordinates in au.
  Criteria marked as inactive (o), active & met (*), and active & unmet ( ).
  --------------------------------------------------------------------------------------------- ~
   Step     Total Energy     Delta E     MAX Force     RMS Force      MAX Disp      RMS Disp    ~
  --------------------------------------------------------------------------------------------- ~
    Convergence Criteria    1.00e-06 *    3.00e-04 *             o    1.20e-03 *             o  ~
  --------------------------------------------------------------------------------------------- ~
      1    -349.37640027   -3.49e+02      8.21e-03      1.17e-03 o    1.05e-01      3.36e-02 o  ~
  ---------------------------------------------------------------------------------------------

	Writing optimization data to binary file.
	Structure for next step:
	Cartesian Geometry (in Angstrom)
	    H    -3.3884067350   1.7270594553  -1.1723225101
	    O    -3.4582132565   0.7918129987  -1.1082151263
	    C    -3.2335477270   0.3871745058   0.2165165455
	    C    -1.8178395067   0.6648404035   0.6992918629
	    H    -3.4320418700  -0.6769015108   0.2384964263
	    H    -3.9496758588   0.8623621221   0.8822181570
	    C    -0.7399923557  -0.0811885619  -0.0819454309
	    H    -1.6317378415   1.7366495055   0.6497466107
	    H    -1.7615649241   0.3956859706   1.7513357559
	    C     0.6754963376   0.2315308184   0.3958301961
	    H    -0.8306926116   0.1604108399  -1.1352120857
	    H    -0.9192432091  -1.1503944534   0.0020128954
	    C     1.7535454640  -0.5147246552  -0.3835965389
	    H     0.8528571391   1.3018321304   0.3169776846
	    H     0.7662940505  -0.0136961082   1.4516898711
	    C     3.1906555307  -0.1567428410   0.0540234082
	    H     1.6224796893  -0.2895787548  -1.4374040507
	    H     1.5812778605  -1.5827941333  -0.2810492246
	    C     4.0823133306  -1.3692586272   0.2956602667
	    H     3.1688979410   0.4524548110   0.9529424869
	    H     3.6553154377   0.4678027322  -0.7015836138
	    H     3.6871374317  -1.9872743720   1.0952226634
	    H     5.0860760222  -1.0657835615   0.5720290647
	    H     4.1521723734  -1.9846856816  -0.5952169113
			--------------------------
			 OPTKING Finished Execution 
			--------------------------

    Structure for next step:
    Molecular point group: c1
    Full point group: C1

    Geometry (in Angstrom), charge = 0, multiplicity = 1:

    H           -3.391340336030     1.718922913742    -1.165723365206
    O           -3.461146857581     0.783676457114    -1.101615981378
    C           -3.236481327988     0.379037964188     0.223115690471
    C           -1.820773107706     0.656703861942     0.705891007888
    H           -3.434975471003    -0.685038052415     0.245095571258
    H           -3.952609459853     0.854225580508     0.888817301973
    C           -0.742925956707    -0.089325103530    -0.075346285982
    H           -1.634671442512     1.728512963917     0.656345755622
    H           -1.764498525098     0.387549429020     1.757934900871
    C            0.672562736565     0.223394276812     0.402429341062
    H           -0.833626212598     0.152274298286    -1.128612940797
    H           -0.922176810182    -1.158530995003     0.008612040370
    C            1.750611862941    -0.522861196810    -0.376997393960
    H            0.849923538086     1.293695588807     0.323576829539
    H            0.763360449470    -0.021832649787     1.458289016040
    C            3.187721929626    -0.164879382607     0.060622553102
    H            1.619546088291    -0.297715296369    -1.430804905728
    H            1.578344259482    -1.590930674848    -0.274450079653
    C            4.079379729581    -1.377395168810     0.302259411685
    H            3.165964339916     0.444318269386     0.959541631874
    H            3.652381836650     0.459666190576    -0.694984468904
    H            3.684203830692    -1.995410913583     1.101821808332
    H            5.083142421192    -1.073920103060     0.578628209690
    H            4.149238772347    -1.992822223152    -0.588617766383

gradient() will perform analytic gradient computation.

*** tstart() called on cx1-27-1-2
*** at Sat Sep 10 17:05:08 2016


         ---------------------------------------------------------
                                   SCF
            by Justin Turney, Rob Parrish, and Andy Simmonett
                              RHF Reference
                        4 Threads,   2000 MiB Core
         ---------------------------------------------------------

  ==> Geometry <==

    Molecular point group: c1
    Full point group: C1

    Geometry (in Angstrom), charge = 0, multiplicity = 1:

       Center              X                  Y                   Z               Mass       
    ------------   -----------------  -----------------  -----------------  -----------------
           H         -3.391340336030     1.718922913742    -1.165723365206     1.007825032070
           O         -3.461146857581     0.783676457114    -1.101615981378    15.994914619560
           C         -3.236481327988     0.379037964188     0.223115690471    12.000000000000
           C         -1.820773107706     0.656703861942     0.705891007888    12.000000000000
           H         -3.434975471003    -0.685038052415     0.245095571258     1.007825032070
           H         -3.952609459853     0.854225580508     0.888817301973     1.007825032070
           C         -0.742925956707    -0.089325103530    -0.075346285982    12.000000000000
           H         -1.634671442512     1.728512963917     0.656345755622     1.007825032070
           H         -1.764498525098     0.387549429020     1.757934900871     1.007825032070
           C          0.672562736565     0.223394276812     0.402429341062    12.000000000000
           H         -0.833626212598     0.152274298286    -1.128612940797     1.007825032070
           H         -0.922176810182    -1.158530995003     0.008612040370     1.007825032070
           C          1.750611862941    -0.522861196810    -0.376997393960    12.000000000000
           H          0.849923538086     1.293695588807     0.323576829539     1.007825032070
           H          0.763360449470    -0.021832649787     1.458289016040     1.007825032070
           C          3.187721929626    -0.164879382607     0.060622553102    12.000000000000
           H          1.619546088291    -0.297715296369    -1.430804905728     1.007825032070
           H          1.578344259482    -1.590930674848    -0.274450079653     1.007825032070
           C          4.079379729581    -1.377395168810     0.302259411685    12.000000000000
           H          3.165964339916     0.444318269386     0.959541631874     1.007825032070
           H          3.652381836650     0.459666190576    -0.694984468904     1.007825032070
           H          3.684203830692    -1.995410913583     1.101821808332     1.007825032070
           H          5.083142421192    -1.073920103060     0.578628209690     1.007825032070
           H          4.149238772347    -1.992822223152    -0.588617766383     1.007825032070

  Running in c1 symmetry.

  Rotational constants: A =      0.24623  B =      0.01812  C =      0.01779 [cm^-1]
  Rotational constants: A =   7381.88772  B =    543.16335  C =    533.26223 [MHz]
  Nuclear repulsion =  381.209955899695785

  Charge       = 0
  Multiplicity = 1
  Electrons    = 66
  Nalpha       = 33
  Nbeta        = 33

  ==> Algorithm <==

  SCF Algorithm Type is DF.
  DIIS enabled.
  MOM disabled.
  Fractional occupation disabled.
  Guess Type is READ.
  Energy threshold   = 1.00e-08
  Density threshold  = 1.00e-08
  Integral threshold = 0.00e+00

  ==> Primary Basis <==

  Basis Set: CC-PVTZ
    Number of shells: 176
    Number of basis function: 464
    Number of Cartesian functions: 520
    Spherical Harmonics?: true
    Max angular momentum: 3

  ==> Pre-Iterations <==

   -------------------------------------------------------
    Irrep   Nso     Nmo     Nalpha   Nbeta   Ndocc  Nsocc
   -------------------------------------------------------
     A        464     464       0       0       0       0
   -------------------------------------------------------
    Total     464     464      33      33      33       0
   -------------------------------------------------------

  ==> Integral Setup <==

  ==> DFJK: Density-Fitted J/K Matrices <==

    J tasked:                  Yes
    K tasked:                  Yes
    wK tasked:                  No
    OpenMP threads:              4
    Integrals threads:           4
    Memory (MB):              1430
    Algorithm:                Core
    Integral Cache:           NONE
    Schwarz Cutoff:          1E-12
    Fitting Condition:       1E-12

   => Auxiliary Basis Set <=

  Basis Set: 
    Number of shells: 360
    Number of basis function: 1112
    Number of Cartesian functions: 1328
    Spherical Harmonics?: true
    Max angular momentum: 4

  Minimum eigenvalue in the overlap matrix is 2.6106914618E-04.
  Using Symmetric Orthogonalization.
  SCF Guess: Reading in previously saved MOs, projecting if necessary.

  Using orbitals from previous SCF, no projection.
  Recomputing DOCC and SOCC from number of alpha and beta electrons from previous calculation.
              A 
    DOCC [    33 ]

  ==> Iterations <==

                           Total Energy        Delta E     RMS |[F,P]|

   @DF-RHF iter   0:  -349.35360238277104   -3.49354e+02   3.14133e-04 
   @DF-RHF iter   1:  -349.37609898531588   -2.24966e-02   6.25197e-05 
   @DF-RHF iter   2:  -349.37684141087863   -7.42426e-04   2.14645e-05 DIIS
   @DF-RHF iter   3:  -349.37694356114304   -1.02150e-04   7.82264e-06 DIIS
   @DF-RHF iter   4:  -349.37695370109697   -1.01400e-05   1.46025e-06 DIIS
   @DF-RHF iter   5:  -349.37695431309163   -6.11995e-07   5.72235e-07 DIIS
   @DF-RHF iter   6:  -349.37695438175871   -6.86671e-08   2.08352e-07 DIIS
   @DF-RHF iter   7:  -349.37695439185944   -1.01007e-08   5.81026e-08 DIIS
   @DF-RHF iter   8:  -349.37695439280475   -9.45306e-10   1.56455e-08 DIIS
   @DF-RHF iter   9:  -349.37695439286705   -6.23004e-11   4.96902e-09 DIIS

  ==> Post-Iterations <==

    Orbital Energies (a.u.)
    -----------------------

    Doubly Occupied:                                                      

       1A    -20.546303     2A    -11.265545     3A    -11.215249  
       4A    -11.211651     5A    -11.210757     6A    -11.209287  
       7A    -11.208891     8A    -11.205719     9A     -1.364191  
      10A     -1.088754    11A     -1.048510    12A     -0.989447  
      13A     -0.914405    14A     -0.843294    15A     -0.798942  
      16A     -0.788047    17A     -0.681688    18A     -0.656059  
      19A     -0.627958    20A     -0.616161    21A     -0.595124  
      22A     -0.587920    23A     -0.555462    24A     -0.538086  
      25A     -0.528128    26A     -0.505639    27A     -0.494946  
      28A     -0.473869    29A     -0.466341    30A     -0.460545  
      31A     -0.456977    32A     -0.452860    33A     -0.420157  

    Virtual:                                                              

      34A      0.138733    35A      0.146102    36A      0.160143  
      37A      0.166195    38A      0.169491    39A      0.181997  
      40A      0.197276    41A      0.209808    42A      0.217952  
      43A      0.228868    44A      0.230170    45A      0.238732  
      46A      0.252963    47A      0.260365    48A      0.269250  
      49A      0.282893    50A      0.303238    51A      0.321679  
      52A      0.341050    53A      0.352803    54A      0.358942  
      55A      0.383705    56A      0.391640    57A      0.402086  
      58A      0.425565    59A      0.432454    60A      0.444160  
      61A      0.452024    62A      0.468799    63A      0.495180  
      64A      0.498084    65A      0.509622    66A      0.518712  
      67A      0.531262    68A      0.552058    69A      0.567533  
      70A      0.582519    71A      0.592144    72A      0.594624  
      73A      0.601231    74A      0.608649    75A      0.611377  
      76A      0.629811    77A      0.633686    78A      0.645821  
      79A      0.649353    80A      0.655543    81A      0.661432  
      82A      0.665745    83A      0.667514    84A      0.673484  
      85A      0.675097    86A      0.688227    87A      0.693475  
      88A      0.705012    89A      0.714603    90A      0.721252  
      91A      0.726710    92A      0.739829    93A      0.758295  
      94A      0.769495    95A      0.808103    96A      0.809384  
      97A      0.831574    98A      0.847223    99A      0.859478  
     100A      0.880283   101A      0.896893   102A      0.915674  
     103A      0.931924   104A      0.953338   105A      0.959925  
     106A      0.982396   107A      0.996236   108A      1.007543  
     109A      1.025542   110A      1.038427   111A      1.051283  
     112A      1.054974   113A      1.069239   114A      1.084292  
     115A      1.105962   116A      1.115792   117A      1.129448  
     118A      1.152187   119A      1.164767   120A      1.185114  
     121A      1.190157   122A      1.214901   123A      1.221390  
     124A      1.232104   125A      1.244740   126A      1.266233  
     127A      1.270780   128A      1.278169   129A      1.281473  
     130A      1.287604   131A      1.310966   132A      1.316789  
     133A      1.328911   134A      1.334591   135A      1.351979  
     136A      1.355735   137A      1.359272   138A      1.363909  
     139A      1.380694   140A      1.390277   141A      1.403192  
     142A      1.413004   143A      1.426141   144A      1.435864  
     145A      1.448030   146A      1.458022   147A      1.467006  
     148A      1.479620   149A      1.488187   150A      1.494476  
     151A      1.504288   152A      1.510233   153A      1.519902  
     154A      1.524628   155A      1.542411   156A      1.551507  
     157A      1.564703   158A      1.578531   159A      1.589014  
     160A      1.595090   161A      1.608355   162A      1.621397  
     163A      1.625578   164A      1.628955   165A      1.657545  
     166A      1.681146   167A      1.689168   168A      1.694056  
     169A      1.718579   170A      1.729989   171A      1.733894  
     172A      1.740780   173A      1.774543   174A      1.777203  
     175A      1.795982   176A      1.806507   177A      1.817048  
     178A      1.838913   179A      1.844666   180A      1.850733  
     181A      1.883179   182A      1.902069   183A      1.943043  
     184A      1.974210   185A      1.988766   186A      2.019732  
     187A      2.050118   188A      2.152610   189A      2.249567  
     190A      2.293944   191A      2.370603   192A      2.431359  
     193A      2.524772   194A      2.561070   195A      2.598524  
     196A      2.615137   197A      2.643133   198A      2.660880  
     199A      2.688796   200A      2.696270   201A      2.706941  
     202A      2.719466   203A      2.729516   204A      2.742801  
     205A      2.764920   206A      2.782789   207A      2.796009  
     208A      2.814120   209A      2.822419   210A      2.830426  
     211A      2.848142   212A      2.859529   213A      2.868338  
     214A      2.885730   215A      2.903524   216A      2.926036  
     217A      2.940240   218A      2.950900   219A      2.955629  
     220A      2.970205   221A      2.995874   222A      3.008955  
     223A      3.019887   224A      3.026492   225A      3.037308  
     226A      3.059839   227A      3.071626   228A      3.082250  
     229A      3.110925   230A      3.129659   231A      3.135785  
     232A      3.157502   233A      3.167479   234A      3.201666  
     235A      3.219909   236A      3.237926   237A      3.241918  
     238A      3.253182   239A      3.262471   240A      3.270756  
     241A      3.276743   242A      3.302443   243A      3.313024  
     244A      3.325548   245A      3.333184   246A      3.340958  
     247A      3.353787   248A      3.365744   249A      3.376772  
     250A      3.385486   251A      3.391932   252A      3.394622  
     253A      3.412813   254A      3.416350   255A      3.424540  
     256A      3.439255   257A      3.440057   258A      3.452433  
     259A      3.458522   260A      3.463663   261A      3.475349  
     262A      3.484583   263A      3.491147   264A      3.502906  
     265A      3.516913   266A      3.526696   267A      3.535943  
     268A      3.554746   269A      3.562011   270A      3.572876  
     271A      3.582840   272A      3.588213   273A      3.601679  
     274A      3.608210   275A      3.619454   276A      3.626498  
     277A      3.634323   278A      3.662906   279A      3.665506  
     280A      3.673685   281A      3.722340   282A      3.730422  
     283A      3.751059   284A      3.762594   285A      3.782862  
     286A      3.794289   287A      3.809599   288A      3.820183  
     289A      3.838002   290A      3.844445   291A      3.852501  
     292A      3.860439   293A      3.886126   294A      3.894063  
     295A      3.909714   296A      3.912434   297A      3.931299  
     298A      3.939452   299A      3.948707   300A      3.959107  
     301A      3.980916   302A      3.990837   303A      4.000065  
     304A      4.024708   305A      4.029250   306A      4.048727  
     307A      4.084448   308A      4.088435   309A      4.102225  
     310A      4.116686   311A      4.121159   312A      4.136940  
     313A      4.144147   314A      4.152947   315A      4.158241  
     316A      4.178138   317A      4.180747   318A      4.191332  
     319A      4.200334   320A      4.209929   321A      4.216265  
     322A      4.228335   323A      4.235180   324A      4.239147  
     325A      4.255616   326A      4.269218   327A      4.272869  
     328A      4.303557   329A      4.310185   330A      4.322094  
     331A      4.328611   332A      4.342694   333A      4.352759  
     334A      4.363236   335A      4.372539   336A      4.390173  
     337A      4.398457   338A      4.399445   339A      4.419185  
     340A      4.423192   341A      4.439159   342A      4.450724  
     343A      4.458139   344A      4.472035   345A      4.486085  
     346A      4.498162   347A      4.512074   348A      4.535254  
     349A      4.537100   350A      4.552734   351A      4.562098  
     352A      4.571642   353A      4.585715   354A      4.593149  
     355A      4.604241   356A      4.617414   357A      4.644663  
     358A      4.651248   359A      4.661579   360A      4.671055  
     361A      4.682721   362A      4.688587   363A      4.701609  
     364A      4.710148   365A      4.732533   366A      4.745730  
     367A      4.764127   368A      4.783653   369A      4.791162  
     370A      4.805482   371A      4.827680   372A      4.837721  
     373A      4.860411   374A      4.899326   375A      4.934303  
     376A      4.979090   377A      4.989750   378A      5.015025  
     379A      5.025400   380A      5.046901   381A      5.072914  
     382A      5.092942   383A      5.109127   384A      5.141398  
     385A      5.162692   386A      5.172103   387A      5.175366  
     388A      5.196444   389A      5.209109   390A      5.217826  
     391A      5.237552   392A      5.246659   393A      5.262282  
     394A      5.266289   395A      5.282092   396A      5.313794  
     397A      5.322818   398A      5.350213   399A      5.360204  
     400A      5.362876   401A      5.373697   402A      5.396955  
     403A      5.433252   404A      5.445323   405A      5.479394  
     406A      5.488418   407A      5.506283   408A      5.524830  
     409A      5.547046   410A      5.563320   411A      5.581672  
     412A      5.611297   413A      5.641414   414A      5.664268  
     415A      5.718500   416A      5.739255   417A      5.757368  
     418A      5.767983   419A      5.769302   420A      5.795424  
     421A      5.815583   422A      5.834867   423A      5.843765  
     424A      5.862140   425A      5.865743   426A      5.886189  
     427A      5.912023   428A      5.931020   429A      5.936453  
     430A      5.952871   431A      5.972802   432A      5.978928  
     433A      6.012242   434A      6.048942   435A      6.062286  
     436A      6.097852   437A      6.153171   438A      6.217396  
     439A      6.289675   440A      6.319037   441A      6.331686  
     442A      6.353649   443A      6.379963   444A      6.404339  
     445A      6.468449   446A      6.503922   447A      6.535613  
     448A      6.760563   449A      7.077705   450A      7.178392  
     451A      7.265860   452A      7.301486   453A      7.427905  
     454A      7.534681   455A      7.722596   456A      8.028990  
     457A     12.778189   458A     12.813382   459A     13.261275  
     460A     13.531458   461A     13.677613   462A     13.834750  
     463A     14.090052   464A     14.360997  

    Final Occupation by Irrep:
              A 
    DOCC [    33 ]

  Energy converged.

  @DF-RHF Final Energy:  -349.37695439286705

   => Energetics <=

    Nuclear Repulsion Energy =            381.2099558996957853
    One-Electron Energy =               -1229.1199934987243978
    Two-Electron Energy =                 498.5330832061615638
    DFT Exchange-Correlation Energy =       0.0000000000000000
    Empirical Dispersion Energy =           0.0000000000000000
    PCM Polarization Energy =               0.0000000000000000
    EFP Energy =                            0.0000000000000000
    Total Energy =                       -349.3769543928669918


  Saving occupied orbitals to File 180.

*** tstop() called on cx1-27-1-2 at Sat Sep 10 17:05:24 2016
Module time:
	user time   =      55.65 seconds =       0.93 minutes
	system time =       0.91 seconds =       0.02 minutes
	total time  =         16 seconds =       0.27 minutes
Total time:
	user time   =     192.43 seconds =       3.21 minutes
	system time =       3.22 seconds =       0.05 minutes
	total time  =         54 seconds =       0.90 minutes


Properties will be evaluated at   0.000000,   0.000000,   0.000000 Bohr

Properties computed using the SCF density matrix

  Nuclear Dipole Moment: (a.u.)
     X:     8.0571      Y:    -1.6622      Z:     2.5216

  Electronic Dipole Moment: (a.u.)
     X:    -7.8874      Y:     2.0756      Z:    -2.0634

  Dipole Moment: (a.u.)
     X:     0.1696      Y:     0.4135      Z:     0.4582     Total:     0.6401

  Dipole Moment: (Debye)
     X:     0.4311      Y:     1.0510      Z:     1.1646     Total:     1.6269


*** tstart() called on cx1-27-1-2
*** at Sat Sep 10 17:05:24 2016


         ------------------------------------------------------------
                                   SCF GRAD                          
                          Rob Parrish, Justin Turney,                
                       Andy Simmonett, and Alex Sokolov              
         ------------------------------------------------------------

  ==> Geometry <==

    Molecular point group: c1
    Full point group: C1

    Geometry (in Angstrom), charge = 0, multiplicity = 1:

       Center              X                  Y                   Z               Mass       
    ------------   -----------------  -----------------  -----------------  -----------------
           H         -3.391340336030     1.718922913742    -1.165723365206     1.007825032070
           O         -3.461146857581     0.783676457114    -1.101615981378    15.994914619560
           C         -3.236481327988     0.379037964188     0.223115690471    12.000000000000
           C         -1.820773107706     0.656703861942     0.705891007888    12.000000000000
           H         -3.434975471003    -0.685038052415     0.245095571258     1.007825032070
           H         -3.952609459853     0.854225580508     0.888817301973     1.007825032070
           C         -0.742925956707    -0.089325103530    -0.075346285982    12.000000000000
           H         -1.634671442512     1.728512963917     0.656345755622     1.007825032070
           H         -1.764498525098     0.387549429020     1.757934900871     1.007825032070
           C          0.672562736565     0.223394276812     0.402429341062    12.000000000000
           H         -0.833626212598     0.152274298286    -1.128612940797     1.007825032070
           H         -0.922176810182    -1.158530995003     0.008612040370     1.007825032070
           C          1.750611862941    -0.522861196810    -0.376997393960    12.000000000000
           H          0.849923538086     1.293695588807     0.323576829539     1.007825032070
           H          0.763360449470    -0.021832649787     1.458289016040     1.007825032070
           C          3.187721929626    -0.164879382607     0.060622553102    12.000000000000
           H          1.619546088291    -0.297715296369    -1.430804905728     1.007825032070
           H          1.578344259482    -1.590930674848    -0.274450079653     1.007825032070
           C          4.079379729581    -1.377395168810     0.302259411685    12.000000000000
           H          3.165964339916     0.444318269386     0.959541631874     1.007825032070
           H          3.652381836650     0.459666190576    -0.694984468904     1.007825032070
           H          3.684203830692    -1.995410913583     1.101821808332     1.007825032070
           H          5.083142421192    -1.073920103060     0.578628209690     1.007825032070
           H          4.149238772347    -1.992822223152    -0.588617766383     1.007825032070

  Nuclear repulsion =  381.209955899695785

  ==> Basis Set <==

  Basis Set: CC-PVTZ
    Number of shells: 176
    Number of basis function: 464
    Number of Cartesian functions: 520
    Spherical Harmonics?: true
    Max angular momentum: 3

  ==> DFJKGrad: Density-Fitted SCF Gradients <==

    Gradient:                    1
    J tasked:                  Yes
    K tasked:                  Yes
    wK tasked:                  No
    OpenMP threads:              4
    Integrals threads:           4
    Memory (MB):              1430
    Schwarz Cutoff:          0E+00
    Fitting Condition:       1E-12

   => Auxiliary Basis Set <=

  Basis Set: 
    Number of shells: 360
    Number of basis function: 1112
    Number of Cartesian functions: 1328
    Spherical Harmonics?: true
    Max angular momentum: 4


  -Total Gradient:
     Atom            X                  Y                   Z
    ------   -----------------  -----------------  -----------------
       1        0.000003245462    -0.000006487862     0.000015257451
       2        0.000011681550     0.000010499655     0.000071621453
       3       -0.000028462616     0.000092466181     0.000099943758
       4       -0.000002315382    -0.000000415459    -0.000263733621
       5        0.000001026367     0.000021720309     0.000028637201
       6       -0.000102152886    -0.000032416307    -0.000073043864
       7       -0.000152161779    -0.000169944410    -0.000310652737
       8       -0.000037690556     0.000011682671    -0.000034629257
       9        0.000004837899    -0.000066905827    -0.000007670235
      10        0.001013584190    -0.000652577768    -0.000544868181
      11       -0.000067421144     0.000016070742    -0.000024941806
      12        0.000039204527     0.000163527329     0.000089356554
      13       -0.000164039737    -0.001993343210    -0.000404186354
      14       -0.000028185723    -0.000040727549     0.000028673836
      15        0.000230811175    -0.000251456603    -0.000153979587
      16        0.000135537445    -0.000815779297     0.001793807789
      17       -0.001498753266     0.001616800997     0.000607895361
      18       -0.001302054516    -0.000350504202    -0.000694158291
      19        0.000411303808     0.000099002726     0.000087241831
      20        0.001477005744     0.001754375661    -0.000696043345
      21        0.000651159440    -0.000567034430     0.000482680582
      22       -0.000330575057     0.000384395338     0.000138418363
      23        0.000025460245     0.000575450315     0.000000583760
      24       -0.000291045185     0.000201600999    -0.000236210659


*** tstop() called on cx1-27-1-2 at Sat Sep 10 17:05:43 2016
Module time:
	user time   =      70.24 seconds =       1.17 minutes
	system time =       0.91 seconds =       0.02 minutes
	total time  =         19 seconds =       0.32 minutes
Total time:
	user time   =     262.87 seconds =       4.38 minutes
	system time =       4.14 seconds =       0.07 minutes
	total time  =         73 seconds =       1.22 minutes

			-----------------------------------------
			 OPTKING 2.0: for geometry optimizations 
			  - R.A. King,  Bethel University        
			-----------------------------------------

	Previous internal coordinate definitions found.
	---Fragment 1 Geometry and Gradient---
	 H          -6.4087044585        3.2482935505       -2.2028979069
	 O          -6.5406196665        1.4809338807       -2.0817525084
	 C          -6.1160633441        0.7162779463        0.4216275509
	 C          -3.4407625237        1.2409904495        1.3339406846
	 H          -6.4911629134       -1.2945343097        0.4631635061
	 H          -7.4693493894        1.6142524029        1.6796212829
	 C          -1.4039265952       -0.1687999825       -0.1423838456
	 H          -3.0890813436        3.2664161189        1.2403137266
	 H          -3.3344189743        0.7323622838        3.3220155221
	 C           1.2709593793        0.4221540028        0.7604812424
	 H          -1.5753252390        0.2877567208       -2.1327693681
	 H          -1.7426616173       -2.1893062970        0.0162743977
	 C           3.3081769859       -0.9880644675       -0.7124218274
	 H           1.6061227209        2.4447303622        0.6114715908
	 H           1.4425421902       -0.0412577289        2.7557668629
	 C           6.0239214348       -0.3115768781        0.1145600228
	 H           3.0604985665       -0.5626003757       -2.7038294214
	 H           2.9826383938       -3.0064232719       -0.5186354877
	 C           7.7089104810       -2.6028996458        0.5711875092
	 H           5.9828055489        0.8396398450        1.8132708973
	 H           6.9020014040        0.8686432127       -1.3133303128
	 H           6.9621362577       -3.7707801492        2.0821414650
	 H           9.6057470705       -2.0294148834        1.0934488491
	 H           7.8409249397       -3.7658882333       -1.1123263754
	             0.0000032455       -0.0000064879        0.0000152575
	             0.0000116816        0.0000104997        0.0000716215
	            -0.0000284626        0.0000924662        0.0000999438
	            -0.0000023154       -0.0000004155       -0.0002637336
	             0.0000010264        0.0000217203        0.0000286372
	            -0.0001021529       -0.0000324163       -0.0000730439
	            -0.0001521618       -0.0001699444       -0.0003106527
	            -0.0000376906        0.0000116827       -0.0000346293
	             0.0000048379       -0.0000669058       -0.0000076702
	             0.0010135842       -0.0006525778       -0.0005448682
	            -0.0000674211        0.0000160707       -0.0000249418
	             0.0000392045        0.0001635273        0.0000893566
	            -0.0001640397       -0.0019933432       -0.0004041864
	            -0.0000281857       -0.0000407275        0.0000286738
	             0.0002308112       -0.0002514566       -0.0001539796
[...]
	 D(10,13,16,19)   =         2.307170	     132.191131
	 D(10,13,16,20)   =         0.157223	       9.008195
	 D(10,13,16,21)   =        -1.846819	    -105.814931
	 D(11,7,10,13)    =        -1.012510	     -58.012521
	 D(11,7,10,14)    =         1.115999	      63.942055
	 D(11,7,10,15)    =         3.138116	     179.800775
	 D(12,7,10,13)    =         1.013423	      58.064846
	 D(12,7,10,14)    =        -3.141254	    -179.980578
	 D(12,7,10,15)    =        -1.119138	     -64.121857
	 D(13,16,19,22)   =        -1.053904	     -60.384257
	 D(13,16,19,23)   =         3.131155	     179.401950
	 D(13,16,19,24)   =         1.034746	      59.286577
	 D(14,10,13,16)   =         0.977475	      56.005190
	 D(14,10,13,17)   =        -1.149674	     -65.871468
	 D(14,10,13,18)   =         3.118965	     178.703508
	 D(15,10,13,16)   =        -1.039132	     -59.537862
	 D(15,10,13,17)   =         3.116905	     178.585481
	 D(15,10,13,18)   =         1.102358	      63.160456
	 D(17,13,16,19)   =        -1.864310	    -106.817077
	*D(17,13,16,20)   =         2.268928	     129.999987
	 D(17,13,16,21)   =         0.264886	      15.176861
	 D(18,13,16,19)   =         0.175349	      10.046757
	 D(18,13,16,20)   =        -1.974599	    -113.136179
	 D(18,13,16,21)   =         2.304545	     132.040695
	 D(20,16,19,22)   =         1.095606	      62.773620
	 D(20,16,19,23)   =        -1.002520	     -57.440173
	 D(20,16,19,24)   =        -3.098929	    -177.555547
	 D(21,16,19,22)   =         3.095093	     177.335747
	 D(21,16,19,23)   =         0.996966	      57.121954
	 D(21,16,19,24)   =        -1.099443	     -62.993419

	Current energy   :      -349.3770229603

	Energy change for the previous step:
		Projected    :        -0.0000012161
		Actual       :        -0.0000003945

	Performing BFGS update.
	Previous computed or guess Hessian on step 1.
	Steps to be used in Hessian update: 3 2
	Taking RFO optimization step.
	Going to follow RFO solution 1.
	Using RFO vector 1.
	Norm of target step-size    0.04005
	Projected energy change by RFO approximation:        -0.0000041351

	Back-transformation to cartesian coordinates...
	Successfully converged to displaced geometry.

	Back-transformation to cartesian coordinates to adjust frozen coordinates...
	Successfully converged to displaced geometry.

	--- Internal Coordinate Step in ANG or DEG, aJ/ANG or AJ/DEG ---
	 ---------------------------------------------------------------------------
	   Coordinate                Previous        Force       Change         New 
	   ----------                --------       ------       ------       ------
	    1 R(1,2)          =      0.940044    -0.000024    -0.000001     0.940043
	    2 R(2,3)          =      1.403302    -0.000052    -0.000009     1.403293
	    3 R(3,4)          =      1.521305    -0.000054     0.000003     1.521308
	    4 R(3,5)          =      1.082670    -0.000025    -0.000004     1.082666
	    5 R(3,6)          =      1.087109    -0.000019     0.000000     1.087109
	    6 R(4,7)          =      1.525945     0.000053     0.000008     1.525953
	    7 R(4,8)          =      1.088997    -0.000170    -0.000012     1.088985
	    8 R(4,9)          =      1.087332     0.000146     0.000009     1.087341
	    9 R(7,10)         =      1.525563    -0.000302    -0.000019     1.525544
	   10 R(7,11)         =      1.084389     0.000043     0.000006     1.084395
	   11 R(7,12)         =      1.087596     0.000057    -0.000000     1.087596
	   12 R(10,13)        =      1.527943    -0.000417    -0.000092     1.527851
	   13 R(10,14)        =      1.087907    -0.000176    -0.000038     1.087869
	   14 R(10,15)        =      1.087857    -0.000086    -0.000007     1.087850
	   15 R(13,16)        =      1.541223     0.000691     0.000149     1.541372
	   16 R(13,17)        =      1.085460    -0.000089    -0.000000     1.085460
	   17 R(13,18)        =      1.085790     0.000170     0.000003     1.085793
	   18 R(16,19)        =      1.525146    -0.001053    -0.000243     1.524903
	   19 R(16,20)        =      1.085485     0.000376     0.000031     1.085516
	   20 R(16,21)        =      1.085420     0.000136     0.000032     1.085452
	   21 R(19,22)        =      1.085099     0.000085     0.000015     1.085113
	   22 R(19,23)        =      1.084215     0.000020     0.000007     1.084222
	   23 R(19,24)        =      1.085042     0.000068    -0.000006     1.085036
	   24 B(1,2,3)        =    109.848738    -0.000000    -0.000381   109.848357
	   25 B(2,3,4)        =    113.344784    -0.000002    -0.003101   113.341683
	   26 B(2,3,5)        =    105.846804     0.000000    -0.000216   105.846589
	   27 B(2,3,6)        =    110.298698     0.000001    -0.000023   110.298674
	   28 B(3,4,7)        =    113.887737    -0.000001     0.000824   113.888561
	   29 B(3,4,8)        =    108.940878     0.000001    -0.001568   108.939310
	   30 B(3,4,9)        =    108.077443    -0.000001    -0.000256   108.077187
	   31 B(4,3,5)        =    110.098724     0.000000    -0.000333   110.098390
	   32 B(4,3,6)        =    109.756614     0.000001     0.003898   109.760512
	   33 B(4,7,10)       =    113.207371    -0.000000    -0.000053   113.207318
	   34 B(4,7,11)       =    109.244456     0.000001     0.003197   109.247653
	   35 B(4,7,12)       =    108.972819    -0.000002    -0.010962   108.961857
	   36 B(5,3,6)        =    107.262046    -0.000000    -0.000275   107.261771
	   37 B(7,4,8)        =    109.712277    -0.000001    -0.004951   109.707325
	   38 B(7,4,9)        =    109.756931     0.000002     0.004694   109.761626
	   39 B(7,10,13)      =    113.402977    -0.000003    -0.007373   113.395604
	   40 B(7,10,14)      =    109.301841     0.000001     0.005212   109.307054
	   41 B(7,10,15)      =    109.513557     0.000000    -0.004943   109.508614
	   42 B(8,4,9)        =    106.166969    -0.000000     0.001354   106.168323
	   43 B(10,7,11)      =    109.633091    -0.000000     0.007636   109.640727
	   44 B(10,7,12)      =    109.302047     0.000001    -0.000071   109.301976
	   45 B(10,13,16)     =    113.409916    -0.000001     0.018322   113.428239
	   46 B(10,13,17)     =    108.117867    -0.000002    -0.006083   108.111784
	   47 B(10,13,18)     =    108.898429     0.000001    -0.014189   108.884240
	   48 B(11,7,12)      =    106.241878     0.000000     0.000149   106.242027
	   49 B(13,10,14)     =    109.093784     0.000004     0.020001   109.113785
	   50 B(13,10,15)     =    109.153762    -0.000002    -0.023152   109.130610
	   51 B(13,16,19)     =    113.763157     0.000008     0.021680   113.784837
	   52 B(13,16,20)     =    109.619599     0.000003     0.026891   109.646490
	   53 B(13,16,21)     =    109.396487    -0.000005    -0.008053   109.388434
	   54 B(14,10,15)     =    106.115960     0.000000     0.011617   106.127577
	   55 B(16,13,17)     =    109.696830     0.000004     0.020553   109.717384
	   56 B(16,13,18)     =    109.897608    -0.000000     0.001928   109.899536
	   57 B(16,19,22)     =    111.058461    -0.000001    -0.008770   111.049691
	   58 B(16,19,23)     =    111.367792    -0.000002    -0.008081   111.359710
	   59 B(16,19,24)     =    111.032515     0.000003     0.005784   111.038300
	   60 B(17,13,18)     =    106.578315    -0.000002    -0.023474   106.554840
	   61 B(19,16,20)     =    109.665491    -0.000006    -0.033515   109.631976
	   62 B(19,16,21)     =    108.878641    -0.000002    -0.019444   108.859197
	   63 B(20,16,21)     =    105.158436     0.000002     0.011335   105.169771
	   64 B(22,19,23)     =    107.843537     0.000001    -0.001016   107.842521
	   65 B(22,19,24)     =    107.591002     0.000001     0.014506   107.605508
	   66 B(23,19,24)     =    107.779703    -0.000001    -0.001668   107.778035
	   67 D(1,2,3,4)      =    -65.115215    -0.000000    -0.000308   -65.115523
	   68 D(1,2,3,5)      =    174.116015     0.000000     0.002070   174.118085
	   69 D(1,2,3,6)      =     58.401706    -0.000000     0.002522    58.404228
	   70 D(2,3,4,7)      =    -62.375066     0.000000     0.023630   -62.351436
	   71 D(2,3,4,8)      =     60.444821    -0.000000     0.016616    60.461437
	   72 D(2,3,4,9)      =    175.385476    -0.000000     0.017260   175.402735
	   73 D(3,4,7,10)     =    178.486580     0.000000     0.128360   178.614939
	   74 D(3,4,7,11)     =     56.014122     0.000000     0.116236    56.130358
	   75 D(3,4,7,12)     =    -59.662267     0.000000     0.120361   -59.541907
	   76 D(4,7,10,13)    =    179.731443    -0.000001    -0.319875   179.411568
	   77 D(4,7,10,14)    =    -58.313981    -0.000000    -0.295392   -58.609373
	   78 D(4,7,10,15)    =     57.544739    -0.000000    -0.281285    57.263454
	   79 D(5,3,4,7)      =     55.960208     0.000000     0.021117    55.981325
	   80 D(5,3,4,8)      =    178.780096    -0.000000     0.014102   178.794198
	   81 D(5,3,4,9)      =    -66.279250    -0.000000     0.014747   -66.264503
	   82 D(6,3,4,7)      =    173.811335     0.000000     0.022935   173.834270
	   83 D(6,3,4,8)      =    -63.368778    -0.000000     0.015920   -63.352858
	   84 D(6,3,4,9)      =     51.571876    -0.000000     0.016564    51.588441
	   85 D(7,10,13,16)   =    178.075645     0.000001     0.604250   178.679895
	   86 D(7,10,13,17)   =     56.198988     0.000000     0.570462    56.769450
	   87 D(7,10,13,18)   =    -59.226036     0.000001     0.608856   -58.617180
	   88 D(8,4,7,10)     =     56.089594     0.000000     0.133542    56.223135
	   89 D(8,4,7,11)     =    -66.382864     0.000000     0.121418   -66.261446
	   90 D(8,4,7,12)     =    177.940747     0.000000     0.125542   178.066289
	   91 D(9,4,7,10)     =    -60.203236     0.000000     0.132056   -60.071180
	   92 D(9,4,7,11)     =    177.324307     0.000000     0.119932   177.444239
	   93 D(9,4,7,12)     =     61.647917     0.000000     0.124057    61.771974
	   94 D(10,13,16,19)  =    132.191131    -0.000000    -0.027269   132.163861
	   95 D(10,13,16,20)  =      9.008195     0.000000    -0.019428     8.988767
	   96 D(10,13,16,21)  =   -105.814931    -0.000000    -0.043390  -105.858321
	   97 D(11,7,10,13)   =    -58.012521    -0.000001    -0.310198   -58.322719
	   98 D(11,7,10,14)   =     63.942055    -0.000000    -0.285714    63.656341
	   99 D(11,7,10,15)   =    179.800775     0.000000    -0.271607   179.529168
	  100 D(12,7,10,13)   =     58.064846    -0.000001    -0.305748    57.759099
	  101 D(12,7,10,14)   =   -179.980578     0.000000    -0.281264  -180.261842
	  102 D(12,7,10,15)   =    -64.121857     0.000000    -0.267157   -64.389015
	  103 D(13,16,19,22)  =    -60.384257    -0.000001    -0.403782   -60.788039
	  104 D(13,16,19,23)  =    179.401950    -0.000001    -0.391119   179.010831
	  105 D(13,16,19,24)  =     59.286577    -0.000001    -0.387487    58.899090
	  106 D(14,10,13,16)  =     56.005190     0.000001     0.588012    56.593202
	  107 D(14,10,13,17)  =    -65.871468     0.000000     0.554224   -65.317243
	  108 D(14,10,13,18)  =    178.703508     0.000001     0.592618   179.296127
	  109 D(15,10,13,16)  =    -59.537862     0.000000     0.575878   -58.961984
	  110 D(15,10,13,17)  =    178.585481    -0.000000     0.542090   179.127571
	  111 D(15,10,13,18)  =     63.160456     0.000000     0.580484    63.740940
	  112 D(17,13,16,19)  =   -106.817077    -0.000000    -0.007841  -106.824918
	  113 *D(17,13,16,20) =    129.999987    -0.000000    -0.000000   129.999987
	  114 D(17,13,16,21)  =     15.176861    -0.000000    -0.023962    15.152899
	  115 D(18,13,16,19)  =     10.046757    -0.000000    -0.023137    10.023620
	  116 D(18,13,16,20)  =   -113.136179     0.000000    -0.015296  -113.151474
	  117 D(18,13,16,21)  =    132.040695    -0.000000    -0.039258   132.001438
	  118 D(20,16,19,22)  =     62.773620    -0.000000    -0.378643    62.394976
	  119 D(20,16,19,23)  =    -57.440173     0.000000    -0.365980   -57.806154
	  120 D(20,16,19,24)  =   -177.555547     0.000000    -0.362348  -177.917894
	  121 D(21,16,19,22)  =    177.335747    -0.000001    -0.393875   176.941872
	  122 D(21,16,19,23)  =     57.121954    -0.000000    -0.381212    56.740742
	  123 D(21,16,19,24)  =    -62.993419    -0.000000    -0.377580   -63.370999
	 ---------------------------------------------------------------------------
	Successfully symmetrized geometry.

  ==> Convergence Check <==

  Measures of convergence in internal coordinates in au.
  Criteria marked as inactive (o), active & met (*), and active & unmet ( ).
  ---------------------------------------------------------------------------------------------
   Step     Total Energy     Delta E     MAX Force     RMS Force      MAX Disp      RMS Disp   
  ---------------------------------------------------------------------------------------------
    Convergence Criteria    1.00e-06 *    3.00e-04 *             o    1.20e-03 *             o
  ---------------------------------------------------------------------------------------------
      4    -349.37702296   -3.95e-07 *    1.28e-04 *    2.98e-05 o    1.06e-02      3.61e-03 o  ~
  ---------------------------------------------------------------------------------------------


  **** Optimization is complete! (in 4 steps) ****

  ==> Optimization Summary <==

  Measures of convergence in internal coordinates in au.
  --------------------------------------------------------------------------------------------------------------- ~
   Step         Total Energy             Delta E       MAX Force       RMS Force        MAX Disp        RMS Disp  ~
  --------------------------------------------------------------------------------------------------------------- ~
      1    -349.376400270863   -349.376400270863      0.00820577      0.00117348      0.10469384      0.03359547  ~
      2    -349.376954392867     -0.000554122004      0.00275786      0.00043183      0.02504987      0.00805866  ~
      3    -349.377022565737     -0.000068172870      0.00046608      0.00006969      0.01517103      0.00632139  ~
      4    -349.377022960267     -0.000000394530      0.00012775      0.00002980      0.01062655      0.00361142  ~
  --------------------------------------------------------------------------------------------------------------- ~

	Writing optimization data to binary file.
	Final energy is   -349.3770229602674
	Final (previous) structure:
	Cartesian Geometry (in Angstrom)
	    H    -3.4012208959   1.7129962697  -1.1468676068
	    O    -3.4677642054   0.7773423589  -1.0851651855
	    C    -3.2354970530   0.3693220449   0.2372675461
	    C    -1.8185240450   0.6498108383   0.7146392330
	    H    -3.4307429755  -0.6954189047   0.2567667194
	    H    -3.9493440601   0.8405341591   0.9082278661
	    C    -0.7427570643  -0.0917699476  -0.0735820003
	    H    -1.6352320544   1.7222115879   0.6669504713
	    H    -1.7567062331   0.3785490252   1.7657750821
	    C     0.6735603502   0.2288329764   0.3939664942
	    H    -0.8419205030   0.1480329631  -1.1264640542
	    H    -0.9160641535  -1.1620307425   0.0122751874
	    C     1.7541273828  -0.5163997012  -0.3880907259
	    H     0.8467960867   1.2994454800   0.3084079455
	    H     0.7698501443  -0.0091136846   1.4511052332
	    C     3.1866584852  -0.1571648206   0.0525602136
	    H     1.6270817122  -0.2872676302  -1.4414576661
	    H     1.5916963432  -1.5846801537  -0.2816335092
	    C     4.0803760885  -1.3707680425   0.2860254227
	    H     3.1500622008   0.4481492846   0.9528563369
	    H     3.6460781919   0.4781127728  -0.6981014044
	    H     3.6765870998  -2.0080837610   1.0659114183
	    H     5.0797682698  -1.0739689739   0.5837645759
	    H     4.1670921142  -1.9695640636  -0.6146632178
	Saving final (previous) structure.
			--------------------------
			 OPTKING Finished Execution 
			--------------------------

    Final optimized geometry and variables:
    Molecular point group: c1
    Full point group: C1

    Geometry (in Angstrom), charge = 0, multiplicity = 1:

    H           -3.401220895898     1.712996269655    -1.146867606788
    O           -3.467764205400     0.777342358854    -1.085165185497
    C           -3.235497053044     0.369322044878     0.237267546064
    C           -1.818524044962     0.649810838277     0.714639232953
    H           -3.430742975485    -0.695418904664     0.256766719364
    H           -3.949344060072     0.840534159085     0.908227866140
    C           -0.742757064287    -0.091769947575    -0.073582000341
    H           -1.635232054429     1.722211587902     0.666950471292
    H           -1.756706233148     0.378549025247     1.765775082053
    C            0.673560350238     0.228832976399     0.393966494230
    H           -0.841920502973     0.148032963091    -1.126464054190
    H           -0.916064153549    -1.162030742519     0.012275187366
    C            1.754127382785    -0.516399701198    -0.388090725853
    H            0.846796086729     1.299445480009     0.308407945514
    H            0.769850144296    -0.009113684634     1.451105233188
    C            3.186658485241    -0.157164820579     0.052560213561
    H            1.627081712218    -0.287267630216    -1.441457666110
    H            1.591696343167    -1.584680153692    -0.281633509228
    C            4.080376088492    -1.370768042498     0.286025422684
    H            3.150062200806     0.448149284626     0.952856336860
    H            3.646078191937     0.478112772768    -0.698101404381
    H            3.676587099829    -2.008083760987     1.065911418261
    H            5.079768269847    -1.073968973894     0.583764575888
    H            4.167092114167    -1.969564063638    -0.614663217753

	Cleaning optimization helper files.


Properties will be evaluated at   0.000000,   0.000000,   0.000000 Bohr

Properties computed using the  density matrix

  Nuclear Dipole Moment: (a.u.)
     X:     8.0679      Y:    -1.6482      Z:     2.4911

  Electronic Dipole Moment: (a.u.)
     X:    -7.8974      Y:     2.0599      Z:    -2.0323

  Dipole Moment: (a.u.)
     X:     0.1705      Y:     0.4117      Z:     0.4588     Total:     0.6396

  Dipole Moment: (Debye)
     X:     0.4333      Y:     1.0465      Z:     1.1661     Total:     1.6257

  Quadrupole Moment: (Debye Ang)
    XX:   -57.8356     YY:   -49.9044     ZZ:   -55.0646
    XY:    -2.8490     XZ:    -4.8820     YZ:    -1.4721

  Traceless Quadrupole Moment: (Debye Ang)
    XX:    -3.5674     YY:     4.3638     ZZ:    -0.7964
    XY:    -2.8490     XZ:    -4.8820     YZ:    -1.4721

  Mulliken Charges: (a.u.)
   Center  Symbol    Alpha    Beta     Spin     Total
       1     H     0.39532  0.39532  0.00000  0.20937
       2     O     4.20369  4.20369  0.00000 -0.40738
       3     C     2.97773  2.97773  0.00000  0.04453
       4     C     3.10209  3.10209  0.00000 -0.20419
       5     H     0.45890  0.45890  0.00000  0.08219
       6     H     0.46026  0.46026  0.00000  0.07949
       7     C     3.08876  3.08876  0.00000 -0.17753
       8     H     0.45906  0.45906  0.00000  0.08188
       9     H     0.45333  0.45333  0.00000  0.09335
      10     C     3.08986  3.08986  0.00000 -0.17973
      11     H     0.44655  0.44655  0.00000  0.10690
      12     H     0.45509  0.45509  0.00000  0.08982
      13     C     3.09148  3.09148  0.00000 -0.18296
      14     H     0.45442  0.45442  0.00000  0.09116
      15     H     0.45568  0.45568  0.00000  0.08863
      16     C     3.08783  3.08783  0.00000 -0.17567
      17     H     0.45133  0.45133  0.00000  0.09734
      18     H     0.45415  0.45415  0.00000  0.09170
      19     C     3.14752  3.14752  0.00000 -0.29503
      20     H     0.45489  0.45489  0.00000  0.09023
      21     H     0.45200  0.45200  0.00000  0.09599
      22     H     0.45601  0.45601  0.00000  0.08797
      23     H     0.44990  0.44990  0.00000  0.10021
      24     H     0.45414  0.45414  0.00000  0.09172

   Total alpha = 33.00000, Total beta = 33.00000, Total charge = -0.00000


*** Psi4 exiting successfully. Buy a developer a beer!
