    -----------------------------------------------------------------------
          Psi4: An Open-Source Ab Initio Electronic Structure Package
                              Psi4 1.0.54 Driver

                          Git: Rev {master} 8d4cec3 dirty

    J. M. Turney, A. C. Simmonett, R. M. Parrish, E. G. Hohenstein,
    F. A. Evangelista, J. T. Fermann, B. J. Mintz, L. A. Burns, J. J. Wilke,
    M. L. Abrams, N. J. Russ, M. L. Leininger, C. L. Janssen, E. T. Seidl,
    W. D. Allen, H. F. Schaefer, R. A. King, E. F. Valeev, C. D. Sherrill,
    and T. D. Crawford, WIREs Comput. Mol. Sci. 2, 556-565 (2012)
    (doi: 10.1002/wcms.93)

                         Additional Contributions by
    A. E. DePrince, U. Bozkaya, A. Yu. Sokolov, D. G. A. Smith, R. Di Remigio,
    R. M. Richard, J. F. Gonthier, H. R. McAlexander, M. Saitow, and
    B. P. Pritchard
    -----------------------------------------------------------------------


    Psi4 started on: Sat Sep 10 15:12:38 2016

    Process ID:  34426
    PSI4DATADIR: /export131/home/mjharvey/miniconda3/share/psi4
    Memory level set to 256.000 MB

  ==> Input File <==

--------------------------------------------------------------------------
set {
	reference rhf
	basis cc-pvtz
}


set_num_threads( 4 )
memory 2 gb

molecule MOL {
0 1

H	 1.709756	 -2.949420	 -0.121088
C	 1.456162	 -1.950713	 -0.460292
C	 0.406568	 -1.334978	 0.454982
H	 1.078198	 -2.016952	 -1.473049
H	 2.370895	 -1.371535	 -0.483743
N	 0.000297	 0.000045	 0.046089
H	 -0.464479	 -1.975495	 0.443505
H	 0.767932	 -1.334693	 1.487138
C	 -1.359159	 0.315706	 0.454403
C	 0.953122	 1.019676	 0.454747
C	 -2.416729	 -0.286720	 -0.460526
H	 -1.478729	 1.390261	 0.442007
H	 -1.539692	 0.003361	 1.486760
C	 0.959851	 2.236994	 -0.459873
H	 1.943644	 0.586345	 0.442499
H	 0.772554	 1.331964	 1.487115
H	 -2.285276	 0.073129	 -1.473516
H	 -2.371743	 -1.368476	 -0.483210
H	 -3.408658	 -0.007405	 -0.121594
H	 1.206448	 1.943644	 -1.472811
H	 0.000192	 2.738293	 -0.482919
H	 1.697041	 2.956792	 -0.120383

	symmetry c1
}
ee,wfn = energy('scf', return_wfn=True)
oeprop( wfn, 'DIPOLE', 'QUADRUPOLE', 'MULLIKEN_CHARGES')
oeprop( wfn, 'GRID_ESP')
f=open( 'psi4out.xyz', 'w' )
f.write( "22  " )
f.write( str(ee) + "\n" )
f.write( MOL.save_string_xyz() )
f.close()
--------------------------------------------------------------------------

  Memory set to   2.000 GiB by Python script.

*** tstart() called on cx1-27-1-1
*** at Sat Sep 10 15:12:39 2016


         ---------------------------------------------------------
                                   SCF
            by Justin Turney, Rob Parrish, and Andy Simmonett
                              RHF Reference
                        4 Threads,   2000 MiB Core
         ---------------------------------------------------------

  ==> Geometry <==

    Molecular point group: c1
    Full point group: C1

    Geometry (in Angstrom), charge = 0, multiplicity = 1:

       Center              X                  Y                   Z               Mass       
    ------------   -----------------  -----------------  -----------------  -----------------
           H          1.709755931642    -2.949420214349    -0.121087227922     1.007825032070
           C          1.456161931642    -1.950713214349    -0.460291227922    12.000000000000
           C          0.406567931642    -1.334978214349     0.454982772078    12.000000000000
           H          1.078197931642    -2.016952214349    -1.473048227922     1.007825032070
           H          2.370894931642    -1.371535214349    -0.483742227922     1.007825032070
           N          0.000296931642     0.000044785651     0.046089772078    14.003074004780
           H         -0.464479068358    -1.975495214349     0.443505772078     1.007825032070
           H          0.767931931642    -1.334693214349     1.487138772078     1.007825032070
           C         -1.359159068358     0.315705785651     0.454403772078    12.000000000000
           C          0.953121931642     1.019675785651     0.454747772078    12.000000000000
           C         -2.416729068358    -0.286720214349    -0.460525227922    12.000000000000
           H         -1.478729068358     1.390260785651     0.442007772078     1.007825032070
           H         -1.539692068358     0.003360785651     1.486760772078     1.007825032070
           C          0.959850931642     2.236993785651    -0.459872227922    12.000000000000
           H          1.943643931642     0.586344785651     0.442499772078     1.007825032070
           H          0.772553931642     1.331963785651     1.487115772078     1.007825032070
           H         -2.285276068358     0.073128785651    -1.473515227922     1.007825032070
           H         -2.371743068358    -1.368476214349    -0.483209227922     1.007825032070
           H         -3.408658068358    -0.007405214349    -0.121593227922     1.007825032070
           H          1.206447931642     1.943643785651    -1.472810227922     1.007825032070
           H          0.000191931642     2.738292785651    -0.482918227922     1.007825032070
           H          1.697040931642     2.956791785651    -0.120382227922     1.007825032070

  Running in c1 symmetry.

  Rotational constants: A =      0.07735  B =      0.07730  C =      0.04476 [cm^-1]
  Rotational constants: A =   2318.93138  B =   2317.30863  C =   1341.77759 [MHz]
  Nuclear repulsion =  337.830235744761978

  Charge       = 0
  Multiplicity = 1
  Electrons    = 58
  Nalpha       = 29
  Nbeta        = 29

  ==> Algorithm <==

  SCF Algorithm Type is DF.
  DIIS enabled.
  MOM disabled.
  Fractional occupation disabled.
  Guess Type is SAD.
  Energy threshold   = 1.00e-06
  Density threshold  = 1.00e-06
  Integral threshold = 0.00e+00

  ==> Primary Basis <==

  Basis Set: CC-PVTZ
    Number of shells: 160
    Number of basis function: 420
    Number of Cartesian functions: 470
    Spherical Harmonics?: true
    Max angular momentum: 3

  ==> Pre-Iterations <==

   -------------------------------------------------------
    Irrep   Nso     Nmo     Nalpha   Nbeta   Ndocc  Nsocc
   -------------------------------------------------------
     A        420     420       0       0       0       0
   -------------------------------------------------------
    Total     420     420      29      29      29       0
   -------------------------------------------------------

  ==> Integral Setup <==

  ==> DFJK: Density-Fitted J/K Matrices <==

    J tasked:                  Yes
    K tasked:                  Yes
    wK tasked:                  No
    OpenMP threads:              4
    Integrals threads:           4
    Memory (MB):              1430
    Algorithm:                Core
    Integral Cache:           NONE
    Schwarz Cutoff:          1E-12
    Fitting Condition:       1E-12

   => Auxiliary Basis Set <=

  Basis Set: 
    Number of shells: 325
    Number of basis function: 1003
    Number of Cartesian functions: 1197
    Spherical Harmonics?: true
    Max angular momentum: 4

  Minimum eigenvalue in the overlap matrix is 5.1850817917E-04.
  Using Symmetric Orthogonalization.
  SCF Guess: Superposition of Atomic Densities via on-the-fly atomic UHF.

  ==> Iterations <==

                           Total Energy        Delta E     RMS |[F,P]|

   @DF-RHF iter   0:  -293.67231185411896   -2.93672e+02   1.25542e-02 
   @DF-RHF iter   1:  -290.27541873243791    3.39689e+00   1.20390e-03 
   @DF-RHF iter   2:  -290.45314719868219   -1.77728e-01   4.40928e-04 DIIS
   @DF-RHF iter   3:  -290.47192648015397   -1.87793e-02   1.97476e-04 DIIS
   @DF-RHF iter   4:  -290.47640796735544   -4.48149e-03   4.17762e-05 DIIS
   @DF-RHF iter   5:  -290.47667616275970   -2.68195e-04   1.06831e-05 DIIS
   @DF-RHF iter   6:  -290.47669381755344   -1.76548e-05   2.78043e-06 DIIS
   @DF-RHF iter   7:  -290.47669534598077   -1.52843e-06   5.41985e-07 DIIS
   @DF-RHF iter   8:  -290.47669540795147   -6.19707e-08   1.50760e-07 DIIS

  ==> Post-Iterations <==

    Orbital Energies (a.u.)
    -----------------------

    Doubly Occupied:                                                      

       1A    -15.533110     2A    -11.238731     3A    -11.238721  
       4A    -11.238695     5A    -11.203738     6A    -11.203737  
       7A    -11.203735     8A     -1.226276     9A     -1.024661  
      10A     -1.024633    11A     -0.956949    12A     -0.846942  
      13A     -0.846923    14A     -0.772841    15A     -0.647006  
      16A     -0.646956    17A     -0.621842    18A     -0.592265  
      19A     -0.592230    20A     -0.550801    21A     -0.533106  
      22A     -0.519231    23A     -0.519203    24A     -0.494096  
      25A     -0.494074    26A     -0.491270    27A     -0.462088  
      28A     -0.462075    29A     -0.343942  

    Virtual:                                                              

      30A      0.143658    31A      0.159201    32A      0.159207  
      33A      0.164487    34A      0.199701    35A      0.199718  
      36A      0.218792    37A      0.218805    38A      0.222768  
      39A      0.230751    40A      0.242662    41A      0.242676  
      42A      0.264163    43A      0.295154    44A      0.295224  
      45A      0.306455    46A      0.320871    47A      0.320898  
      48A      0.342817    49A      0.369809    50A      0.369838  
      51A      0.383675    52A      0.419613    53A      0.419681  
      54A      0.430389    55A      0.430477    56A      0.448007  
      57A      0.488166    58A      0.500916    59A      0.500977  
      60A      0.538568    61A      0.538640    62A      0.573814  
      63A      0.590036    64A      0.593749    65A      0.593772  
      66A      0.610280    67A      0.610309    68A      0.614538  
      69A      0.624137    70A      0.639044    71A      0.639064  
      72A      0.662698    73A      0.662751    74A      0.664105  
      75A      0.665001    76A      0.673403    77A      0.673459  
      78A      0.684953    79A      0.695427    80A      0.705302  
      81A      0.705374    82A      0.725819    83A      0.725889  
      84A      0.771292    85A      0.791739    86A      0.799635  
      87A      0.799712    88A      0.848046    89A      0.848130  
      90A      0.891143    91A      0.894284    92A      0.894335  
      93A      0.960558    94A      0.965867    95A      0.965968  
      96A      1.022476    97A      1.023077    98A      1.023104  
      99A      1.055622   100A      1.065575   101A      1.065668  
     102A      1.096413   103A      1.096440   104A      1.111235  
     105A      1.150927   106A      1.165331   107A      1.165466  
     108A      1.167875   109A      1.185068   110A      1.185084  
     111A      1.191557   112A      1.245664   113A      1.247945  
     114A      1.247985   115A      1.261376   116A      1.261482  
     117A      1.269423   118A      1.299121   119A      1.299133  
     120A      1.300737   121A      1.313215   122A      1.313310  
     123A      1.343533   124A      1.381080   125A      1.381121  
     126A      1.397675   127A      1.397724   128A      1.404958  
     129A      1.422087   130A      1.429806   131A      1.429908  
     132A      1.442912   133A      1.464720   134A      1.464772  
     135A      1.481948   136A      1.487918   137A      1.487992  
     138A      1.518953   139A      1.519048   140A      1.534361  
     141A      1.545322   142A      1.568057   143A      1.568168  
     144A      1.612976   145A      1.613120   146A      1.613211  
     147A      1.622911   148A      1.648673   149A      1.648795  
     150A      1.668665   151A      1.676917   152A      1.676986  
     153A      1.687511   154A      1.716964   155A      1.717182  
     156A      1.746483   157A      1.807402   158A      1.807434  
     159A      1.807876   160A      1.836645   161A      1.836796  
     162A      1.842668   163A      1.863429   164A      1.863475  
     165A      1.942903   166A      1.943022   167A      1.951412  
     168A      1.999730   169A      2.121772   170A      2.184397  
     171A      2.184468   172A      2.268514   173A      2.268609  
     174A      2.534845   175A      2.535001   176A      2.543061  
     177A      2.561074   178A      2.619405   179A      2.619448  
     180A      2.652720   181A      2.689707   182A      2.689813  
     183A      2.726045   184A      2.727327   185A      2.727611  
     186A      2.760774   187A      2.795401   188A      2.795518  
     189A      2.845544   190A      2.845698   191A      2.894716  
     192A      2.904714   193A      2.904840   194A      2.909754  
     195A      2.929003   196A      2.929039   197A      2.968127  
     198A      3.001849   199A      3.001953   200A      3.059608  
     201A      3.062931   202A      3.063003   203A      3.092603  
     204A      3.111902   205A      3.111941   206A      3.128719  
     207A      3.135417   208A      3.135434   209A      3.150721  
     210A      3.170403   211A      3.182688   212A      3.182785  
     213A      3.188394   214A      3.225342   215A      3.225473  
     216A      3.258357   217A      3.279682   218A      3.282769  
     219A      3.282773   220A      3.305696   221A      3.328991  
     222A      3.329068   223A      3.351078   224A      3.351190  
     225A      3.358271   226A      3.363207   227A      3.363284  
     228A      3.368063   229A      3.416470   230A      3.416515  
     231A      3.440384   232A      3.440428   233A      3.440474  
     234A      3.461519   235A      3.461593   236A      3.461931  
     237A      3.483990   238A      3.484032   239A      3.484170  
     240A      3.512212   241A      3.537999   242A      3.538061  
     243A      3.560323   244A      3.587654   245A      3.587758  
     246A      3.587905   247A      3.621936   248A      3.623084  
     249A      3.623146   250A      3.643924   251A      3.644022  
     252A      3.651083   253A      3.679587   254A      3.679632  
     255A      3.687754   256A      3.738433   257A      3.738503  
     258A      3.757052   259A      3.778102   260A      3.778122  
     261A      3.785683   262A      3.818463   263A      3.818498  
     264A      3.828274   265A      3.848901   266A      3.848997  
     267A      3.874933   268A      3.886368   269A      3.891924  
     270A      3.891994   271A      3.924758   272A      3.924866  
     273A      3.944882   274A      3.971348   275A      3.971383  
     276A      3.978715   277A      4.009864   278A      4.009929  
     279A      4.056054   280A      4.070388   281A      4.070451  
     282A      4.112444   283A      4.112473   284A      4.121843  
     285A      4.130308   286A      4.160436   287A      4.174361  
     288A      4.174427   289A      4.196724   290A      4.196815  
     291A      4.226856   292A      4.227121   293A      4.238967  
     294A      4.258266   295A      4.258320   296A      4.258396  
     297A      4.280824   298A      4.295367   299A      4.332387  
     300A      4.332432   301A      4.357262   302A      4.363746  
     303A      4.363829   304A      4.399344   305A      4.401207  
     306A      4.401242   307A      4.420095   308A      4.420219  
     309A      4.440814   310A      4.440862   311A      4.443906  
     312A      4.464445   313A      4.476260   314A      4.476320  
     315A      4.497269   316A      4.506324   317A      4.506492  
     318A      4.516071   319A      4.558484   320A      4.581537  
     321A      4.581735   322A      4.607816   323A      4.607969  
     324A      4.634036   325A      4.656803   326A      4.657057  
     327A      4.675043   328A      4.694810   329A      4.694925  
     330A      4.696890   331A      4.751167   332A      4.751206  
     333A      4.769431   334A      4.769455   335A      4.788216  
     336A      4.798275   337A      4.835294   338A      4.861870  
     339A      4.861990   340A      4.975122   341A      4.975269  
     342A      5.037222   343A      5.075707   344A      5.078274  
     345A      5.078319   346A      5.124501   347A      5.124611  
     348A      5.168766   349A      5.192151   350A      5.192475  
     351A      5.219124   352A      5.229123   353A      5.229182  
     354A      5.237249   355A      5.263781   356A      5.263841  
     357A      5.285715   358A      5.285784   359A      5.292298  
     360A      5.316355   361A      5.316415   362A      5.324787  
     363A      5.355975   364A      5.411074   365A      5.443447  
     366A      5.443590   367A      5.451680   368A      5.493737  
     369A      5.506334   370A      5.506455   371A      5.544261  
     372A      5.544301   373A      5.674611   374A      5.674688  
     375A      5.696122   376A      5.696280   377A      5.721104  
     378A      5.729049   379A      5.740447   380A      5.749974  
     381A      5.750027   382A      5.759732   383A      5.759762  
     384A      5.794920   385A      5.795015   386A      5.805200  
     387A      5.864998   388A      5.865180   389A      5.872160  
     390A      5.909002   391A      5.924424   392A      5.924461  
     393A      5.953398   394A      5.956399   395A      5.956502  
     396A      6.050793   397A      6.127900   398A      6.127949  
     399A      6.128905   400A      6.292699   401A      6.312903  
     402A      6.312981   403A      6.314858   404A      6.336437  
     405A      6.361419   406A      6.361492   407A      6.387580  
     408A      6.387666   409A      6.448496   410A      6.448594  
     411A      6.517451   412A      6.517618   413A      6.527746  
     414A     11.309908   415A     13.809796   416A     13.810173  
     417A     13.966466   418A     14.329244   419A     14.329486  
     420A     14.393092  

    Final Occupation by Irrep:
              A 
    DOCC [    29 ]

  Energy converged.

  @DF-RHF Final Energy:  -290.47669540795147

   => Energetics <=

    Nuclear Repulsion Energy =            337.8302357447619784
    One-Electron Energy =               -1061.5540864042409339
    Two-Electron Energy =                 433.2471552515274880
    DFT Exchange-Correlation Energy =       0.0000000000000000
    Empirical Dispersion Energy =           0.0000000000000000
    PCM Polarization Energy =               0.0000000000000000
    EFP Energy =                            0.0000000000000000
    Total Energy =                       -290.4766954079515244


  Saving occupied orbitals to File 180.

*** tstop() called on cx1-27-1-1 at Sat Sep 10 15:12:50 2016
Module time:
	user time   =      39.92 seconds =       0.67 minutes
	system time =       0.74 seconds =       0.01 minutes
	total time  =         11 seconds =       0.18 minutes
Total time:
	user time   =      39.92 seconds =       0.67 minutes
	system time =       0.74 seconds =       0.01 minutes
	total time  =         11 seconds =       0.18 minutes


Properties will be evaluated at   0.000000,   0.000000,   0.000000 Bohr

Properties computed using the SCF density matrix

  Nuclear Dipole Moment: (a.u.)
     X:    -0.0018      Y:    -0.0002      Z:    -0.4157

  Electronic Dipole Moment: (a.u.)
     X:     0.0017      Y:     0.0003      Z:     0.6727

  Dipole Moment: (a.u.)
     X:    -0.0001      Y:     0.0001      Z:     0.2570     Total:     0.2570

  Dipole Moment: (Debye)
     X:    -0.0002      Y:     0.0003      Z:     0.6532     Total:     0.6532



Properties will be evaluated at   0.000000,   0.000000,   0.000000 Bohr

Properties computed using the  density matrix

  Nuclear Dipole Moment: (a.u.)
     X:    -0.0018      Y:    -0.0002      Z:    -0.4157

  Electronic Dipole Moment: (a.u.)
     X:     0.0017      Y:     0.0003      Z:     0.6727

  Dipole Moment: (a.u.)
     X:    -0.0001      Y:     0.0001      Z:     0.2570     Total:     0.2570

  Dipole Moment: (Debye)
     X:    -0.0002      Y:     0.0003      Z:     0.6532     Total:     0.6532

  Quadrupole Moment: (Debye Ang)
    XX:   -46.9000     YY:   -46.9001     ZZ:   -48.9987
    XY:     0.0003     XZ:     0.0006     YZ:    -0.0008

  Traceless Quadrupole Moment: (Debye Ang)
    XX:     0.6996     YY:     0.6995     ZZ:    -1.3991
    XY:     0.0003     XZ:     0.0006     YZ:    -0.0008

  Mulliken Charges: (a.u.)
   Center  Symbol    Alpha    Beta     Spin     Total
       1     H     0.45320  0.45320  0.00000  0.09360
       2     C     3.14105  3.14105  0.00000 -0.28210
       3     C     3.04472  3.04472  0.00000 -0.08945
       4     H     0.45169  0.45169  0.00000  0.09663
       5     H     0.45626  0.45626  0.00000  0.08748
       6     N     3.62378  3.62378  0.00000 -0.24755
       7     H     0.44920  0.44920  0.00000  0.10160
       8     H     0.46262  0.46262  0.00000  0.07476
       9     C     3.04470  3.04470  0.00000 -0.08939
      10     C     3.04467  3.04467  0.00000 -0.08935
      11     C     3.14107  3.14107  0.00000 -0.28214
      12     H     0.44919  0.44919  0.00000  0.10162
      13     H     0.46264  0.46264  0.00000  0.07471
      14     C     3.14107  3.14107  0.00000 -0.28213
      15     H     0.44918  0.44918  0.00000  0.10164
      16     H     0.46266  0.46266  0.00000  0.07468
      17     H     0.45169  0.45169  0.00000  0.09662
      18     H     0.45626  0.45626  0.00000  0.08747
      19     H     0.45320  0.45320  0.00000  0.09361
      20     H     0.45169  0.45169  0.00000  0.09662
      21     H     0.45627  0.45627  0.00000  0.08746
      22     H     0.45320  0.45320  0.00000  0.09360

   Total alpha = 29.00000, Total beta = 29.00000, Total charge = -0.00000



Properties will be evaluated at   0.000000,   0.000000,   0.000000 Bohr

Properties computed using the  density matrix


 Electrostatic potential computed on the grid and written to grid_esp.dat

*** Psi4 exiting successfully. Buy a developer a beer!
