    -----------------------------------------------------------------------
          Psi4: An Open-Source Ab Initio Electronic Structure Package
                              Psi4 1.0.54 Driver

                          Git: Rev {master} 8d4cec3 dirty

    J. M. Turney, A. C. Simmonett, R. M. Parrish, E. G. Hohenstein,
    F. A. Evangelista, J. T. Fermann, B. J. Mintz, L. A. Burns, J. J. Wilke,
    M. L. Abrams, N. J. Russ, M. L. Leininger, C. L. Janssen, E. T. Seidl,
    W. D. Allen, H. F. Schaefer, R. A. King, E. F. Valeev, C. D. Sherrill,
    and T. D. Crawford, WIREs Comput. Mol. Sci. 2, 556-565 (2012)
    (doi: 10.1002/wcms.93)

                         Additional Contributions by
    A. E. DePrince, U. Bozkaya, A. Yu. Sokolov, D. G. A. Smith, R. Di Remigio,
    R. M. Richard, J. F. Gonthier, H. R. McAlexander, M. Saitow, and
    B. P. Pritchard
    -----------------------------------------------------------------------


    Psi4 started on: Sun Sep 11 00:41:18 2016

    Process ID:   9630
    PSI4DATADIR: /export131/home/mjharvey/miniconda3/share/psi4
    Memory level set to 256.000 MB

  ==> Input File <==

--------------------------------------------------------------------------
set {
	reference rhf
	basis cc-pvtz
}


set_num_threads( 4 )
memory 2 gb

molecule MOL {
0 1

H	 -2.784828	 0.005692	 -1.538721
O	 -3.458596	 0.315260	 -0.960865
C	 -3.176635	 -0.080824	 0.355601
C	 -1.763371	 0.265266	 0.799691
H	 -3.321825	 -1.153438	 0.379502
H	 -3.895468	 0.357385	 1.043382
C	 -0.673390	 -0.426948	 -0.013392
H	 -1.631049	 1.344913	 0.747560
H	 -1.664587	 -0.001624	 1.849167
C	 0.737842	 -0.043159	 0.423759
H	 -0.806103	 -0.190518	 -1.063345
H	 -0.797221	 -1.503753	 0.074146
C	 1.824000	 -0.743224	 -0.390623
H	 0.850588	 1.033777	 0.343840
H	 0.868587	 -0.286314	 1.476203
C	 3.255957	 -0.453067	 0.062319
H	 1.718250	 -0.470599	 -1.438164
H	 1.658105	 -1.815850	 -0.339904
C	 3.707029	 0.992337	 -0.133857
H	 3.928201	 -1.104096	 -0.488158
H	 3.362667	 -0.724561	 1.109374
H	 3.605811	 1.294044	 -1.171549
H	 4.748333	 1.111029	 0.143343
H	 3.129882	 1.683078	 0.468956

	symmetry c1
}
set optking {
	frozen_dihedral = ("
		1 2 3 5
	")
}

ee,wfn = optimize('scf', return_wfn=True)
oeprop( wfn, 'DIPOLE', 'QUADRUPOLE', 'MULLIKEN_CHARGES')
f=open( 'psi4out.xyz', 'w' )
f.write( "24  " )
f.write( str(ee) + "\n" )
f.write( MOL.save_string_xyz() )
f.close()
--------------------------------------------------------------------------

  Memory set to   2.000 GiB by Python script.
gradient() will perform analytic gradient computation.

*** tstart() called on cx1-27-1-2
*** at Sun Sep 11 00:41:19 2016


         ---------------------------------------------------------
                                   SCF
            by Justin Turney, Rob Parrish, and Andy Simmonett
                              RHF Reference
                        4 Threads,   2000 MiB Core
         ---------------------------------------------------------

  ==> Geometry <==

    Molecular point group: c1
    Full point group: C1

    Geometry (in Angstrom), charge = 0, multiplicity = 1:

       Center              X                  Y                   Z               Mass       
    ------------   -----------------  -----------------  -----------------  -----------------
           H         -2.790483907870     0.016516991544    -1.534252697813     1.007825032070
           O         -3.464251907870     0.326084991544    -0.956396697813    15.994914619560
           C         -3.182290907870    -0.069999008456     0.360069302187    12.000000000000
           C         -1.769026907870     0.276090991544     0.804159302187    12.000000000000
           H         -3.327480907870    -1.142613008456     0.383970302187     1.007825032070
           H         -3.901123907870     0.368209991544     1.047850302187     1.007825032070
           C         -0.679045907870    -0.416123008456    -0.008923697813    12.000000000000
           H         -1.636704907870     1.355737991544     0.752028302187     1.007825032070
           H         -1.670242907870     0.009200991544     1.853635302187     1.007825032070
           C          0.732186092130    -0.032334008456     0.428227302187    12.000000000000
           H         -0.811758907870    -0.179693008456    -1.058876697813     1.007825032070
           H         -0.802876907870    -1.492928008456     0.078614302187     1.007825032070
           C          1.818344092130    -0.732399008456    -0.386154697813    12.000000000000
           H          0.844932092130     1.044601991544     0.348308302187     1.007825032070
           H          0.862931092130    -0.275489008456     1.480671302187     1.007825032070
           C          3.250301092130    -0.442242008456     0.066787302187    12.000000000000
           H          1.712594092130    -0.459774008456    -1.433695697813     1.007825032070
           H          1.652449092130    -1.805025008456    -0.335435697813     1.007825032070
           C          3.701373092130     1.003161991544    -0.129388697813    12.000000000000
           H          3.922545092130    -1.093271008456    -0.483689697813     1.007825032070
           H          3.357011092130    -0.713736008456     1.113842302187     1.007825032070
           H          3.600155092130     1.304868991544    -1.167080697813     1.007825032070
           H          4.742677092130     1.121853991544     0.147811302187     1.007825032070
           H          3.124226092130     1.693902991544     0.473424302187     1.007825032070

  Running in c1 symmetry.

  Rotational constants: A =      0.19156  B =      0.01964  C =      0.01962 [cm^-1]
  Rotational constants: A =   5742.88596  B =    588.90611  C =    588.14829 [MHz]
  Nuclear repulsion =  385.661779145590856

  Charge       = 0
  Multiplicity = 1
  Electrons    = 66
  Nalpha       = 33
  Nbeta        = 33

  ==> Algorithm <==

  SCF Algorithm Type is DF.
  DIIS enabled.
  MOM disabled.
  Fractional occupation disabled.
  Guess Type is SAD.
  Energy threshold   = 1.00e-08
  Density threshold  = 1.00e-08
  Integral threshold = 0.00e+00

  ==> Primary Basis <==

  Basis Set: CC-PVTZ
    Number of shells: 176
    Number of basis function: 464
    Number of Cartesian functions: 520
    Spherical Harmonics?: true
    Max angular momentum: 3

  ==> Pre-Iterations <==

   -------------------------------------------------------
    Irrep   Nso     Nmo     Nalpha   Nbeta   Ndocc  Nsocc
   -------------------------------------------------------
     A        464     464       0       0       0       0
   -------------------------------------------------------
    Total     464     464      33      33      33       0
   -------------------------------------------------------

  ==> Integral Setup <==

  ==> DFJK: Density-Fitted J/K Matrices <==

    J tasked:                  Yes
    K tasked:                  Yes
    wK tasked:                  No
    OpenMP threads:              4
    Integrals threads:           4
    Memory (MB):              1430
    Algorithm:                Core
    Integral Cache:           NONE
    Schwarz Cutoff:          1E-12
    Fitting Condition:       1E-12

   => Auxiliary Basis Set <=

  Basis Set: 
    Number of shells: 360
    Number of basis function: 1112
    Number of Cartesian functions: 1328
    Spherical Harmonics?: true
    Max angular momentum: 4

  Minimum eigenvalue in the overlap matrix is 2.6583999661E-04.
  Using Symmetric Orthogonalization.
  SCF Guess: Superposition of Atomic Densities via on-the-fly atomic UHF.

  ==> Iterations <==

                           Total Energy        Delta E     RMS |[F,P]|

   @DF-RHF iter   0:  -353.20838543222311   -3.53208e+02   1.21529e-02 
   @DF-RHF iter   1:  -349.11377428200700    4.09461e+00   1.35931e-03 
   @DF-RHF iter   2:  -349.33134419634376   -2.17570e-01   6.89711e-04 DIIS
   @DF-RHF iter   3:  -349.37094875347333   -3.96046e-02   2.07733e-04 DIIS
   @DF-RHF iter   4:  -349.37737691071897   -6.42816e-03   3.91363e-05 DIIS
   @DF-RHF iter   5:  -349.37772988815601   -3.52977e-04   1.34048e-05 DIIS
   @DF-RHF iter   6:  -349.37776502455876   -3.51364e-05   3.49322e-06 DIIS
   @DF-RHF iter   7:  -349.37776780374992   -2.77919e-06   7.78012e-07 DIIS
   @DF-RHF iter   8:  -349.37776793599431   -1.32244e-07   2.68469e-07 DIIS
   @DF-RHF iter   9:  -349.37776794994107   -1.39468e-08   7.74031e-08 DIIS
   @DF-RHF iter  10:  -349.37776795138194   -1.44087e-09   1.89988e-08 DIIS
   @DF-RHF iter  11:  -349.37776795147698   -9.50422e-11   4.83813e-09 DIIS

  ==> Post-Iterations <==

    Orbital Energies (a.u.)
    -----------------------

    Doubly Occupied:                                                      

       1A    -20.542562     2A    -11.264745     3A    -11.221099  
       4A    -11.216801     5A    -11.216517     6A    -11.216067  
       7A    -11.214928     8A    -11.208238     9A     -1.361852  
      10A     -1.095964    11A     -1.053194    12A     -0.989808  
      13A     -0.921405    14A     -0.855966    15A     -0.800945  
      16A     -0.782480    17A     -0.686216    18A     -0.657879  
      19A     -0.629273    20A     -0.618171    21A     -0.607340  
      22A     -0.590559    23A     -0.563730    24A     -0.538044  
      25A     -0.528962    26A     -0.513959    27A     -0.494140  
      28A     -0.484950    29A     -0.478594    30A     -0.464585  
      31A     -0.458897    32A     -0.441813    33A     -0.428327  

    Virtual:                                                              

      34A      0.138114    35A      0.148784    36A      0.152898  
      37A      0.159889    38A      0.175959    39A      0.183959  
      40A      0.191812    41A      0.212495    42A      0.213281  
      43A      0.222704    44A      0.233750    45A      0.239883  
      46A      0.260489    47A      0.261951    48A      0.271255  
      49A      0.293532    50A      0.314383    51A      0.318429  
      52A      0.334740    53A      0.344225    54A      0.365196  
      55A      0.369358    56A      0.384432    57A      0.405185  
      58A      0.414824    59A      0.419833    60A      0.437731  
      61A      0.456417    62A      0.470550    63A      0.477430  
      64A      0.495969    65A      0.508064    66A      0.526520  
      67A      0.548029    68A      0.557220    69A      0.570064  
      70A      0.578042    71A      0.583060    72A      0.590626  
      73A      0.598090    74A      0.606826    75A      0.616545  
      76A      0.619893    77A      0.625912    78A      0.638299  
      79A      0.645818    80A      0.649714    81A      0.658595  
      82A      0.660652    83A      0.668430    84A      0.674688  
      85A      0.680594    86A      0.691874    87A      0.696866  
      88A      0.706141    89A      0.720632    90A      0.724981  
      91A      0.736331    92A      0.758096    93A      0.769563  
      94A      0.775324    95A      0.808582    96A      0.818406  
      97A      0.847360    98A      0.857849    99A      0.869964  
     100A      0.886143   101A      0.899641   102A      0.911797  
     103A      0.925408   104A      0.940183   105A      0.950921  
     106A      0.967606   107A      0.980074   108A      0.990594  
     109A      0.998908   110A      1.011414   111A      1.031327  
     112A      1.051255   113A      1.056199   114A      1.069014  
     115A      1.104860   116A      1.108457   117A      1.122030  
     118A      1.139208   119A      1.142865   120A      1.190205  
     121A      1.194824   122A      1.223308   123A      1.228452  
     124A      1.246336   125A      1.255636   126A      1.256342  
     127A      1.274812   128A      1.278765   129A      1.285892  
     130A      1.297877   131A      1.310694   132A      1.325354  
     133A      1.336985   134A      1.343389   135A      1.352225  
     136A      1.353716   137A      1.369775   138A      1.377254  
     139A      1.386617   140A      1.394524   141A      1.395510  
     142A      1.408500   143A      1.427207   144A      1.429109  
     145A      1.442376   146A      1.443550   147A      1.466385  
     148A      1.475330   149A      1.478766   150A      1.486261  
     151A      1.488744   152A      1.503745   153A      1.520976  
     154A      1.530011   155A      1.540012   156A      1.549661  
     157A      1.560979   158A      1.569620   159A      1.574434  
     160A      1.600890   161A      1.605762   162A      1.612382  
     163A      1.642109   164A      1.652331   165A      1.674079  
     166A      1.679883   167A      1.684226   168A      1.701595  
     169A      1.715375   170A      1.731792   171A      1.741969  
     172A      1.752989   173A      1.768538   174A      1.786984  
     175A      1.810136   176A      1.812686   177A      1.831214  
     178A      1.842260   179A      1.854295   180A      1.874114  
     181A      1.893873   182A      1.906816   183A      1.936331  
     184A      1.984606   185A      2.016180   186A      2.048492  
     187A      2.054691   188A      2.195149   189A      2.265122  
     190A      2.304296   191A      2.370804   192A      2.475927  
     193A      2.520686   194A      2.563707   195A      2.589223  
     196A      2.616742   197A      2.636123   198A      2.660786  
     199A      2.674150   200A      2.694977   201A      2.713700  
     202A      2.724667   203A      2.730893   204A      2.743422  
     205A      2.749631   206A      2.789607   207A      2.799918  
     208A      2.811777   209A      2.821048   210A      2.826334  
     211A      2.842034   212A      2.853516   213A      2.866506  
     214A      2.882362   215A      2.903888   216A      2.922687  
     217A      2.932935   218A      2.945490   219A      2.958582  
     220A      2.967545   221A      2.985657   222A      2.996420  
     223A      3.023499   224A      3.036644   225A      3.048142  
     226A      3.063173   227A      3.070790   228A      3.080592  
     229A      3.102009   230A      3.137201   231A      3.139012  
     232A      3.149849   233A      3.153955   234A      3.179036  
     235A      3.200269   236A      3.220749   237A      3.241066  
     238A      3.255101   239A      3.261061   240A      3.267654  
     241A      3.291740   242A      3.304495   243A      3.309930  
     244A      3.315204   245A      3.329387   246A      3.353186  
     247A      3.355606   248A      3.376054   249A      3.378603  
     250A      3.381025   251A      3.396017   252A      3.399210  
     253A      3.412690   254A      3.416625   255A      3.421094  
     256A      3.432166   257A      3.444032   258A      3.445869  
     259A      3.453820   260A      3.471193   261A      3.476887  
     262A      3.484148   263A      3.491775   264A      3.503149  
     265A      3.509271   266A      3.525125   267A      3.531616  
     268A      3.540770   269A      3.552135   270A      3.567033  
     271A      3.573900   272A      3.583125   273A      3.586156  
     274A      3.606312   275A      3.615474   276A      3.638657  
     277A      3.653283   278A      3.673875   279A      3.679746  
     280A      3.706995   281A      3.729148   282A      3.750220  
     283A      3.758047   284A      3.767467   285A      3.784268  
     286A      3.808203   287A      3.821520   288A      3.827914  
     289A      3.834673   290A      3.847480   291A      3.849966  
     292A      3.868527   293A      3.876407   294A      3.888501  
     295A      3.895836   296A      3.899107   297A      3.936914  
     298A      3.948861   299A      3.955457   300A      3.960472  
     301A      3.973706   302A      3.977109   303A      4.005159  
     304A      4.021016   305A      4.035604   306A      4.068627  
     307A      4.079332   308A      4.092177   309A      4.107194  
     310A      4.114324   311A      4.129042   312A      4.134914  
     313A      4.138385   314A      4.140861   315A      4.151835  
     316A      4.171861   317A      4.172336   318A      4.178186  
     319A      4.198136   320A      4.207611   321A      4.219102  
     322A      4.227292   323A      4.230883   324A      4.256315  
     325A      4.258410   326A      4.271564   327A      4.285339  
     328A      4.294405   329A      4.314872   330A      4.322340  
     331A      4.326849   332A      4.331980   333A      4.353346  
     334A      4.364962   335A      4.375701   336A      4.383052  
     337A      4.390365   338A      4.393719   339A      4.422551  
     340A      4.427572   341A      4.438385   342A      4.450756  
     343A      4.460631   344A      4.468924   345A      4.476831  
     346A      4.497044   347A      4.501884   348A      4.507402  
     349A      4.520711   350A      4.535511   351A      4.542781  
     352A      4.569393   353A      4.571805   354A      4.603173  
     355A      4.610545   356A      4.632159   357A      4.647465  
     358A      4.650228   359A      4.676388   360A      4.682229  
     361A      4.692922   362A      4.693821   363A      4.704561  
     364A      4.736220   365A      4.745067   366A      4.767378  
     367A      4.775652   368A      4.782797   369A      4.796570  
     370A      4.816096   371A      4.820213   372A      4.829024  
     373A      4.859120   374A      4.923864   375A      4.949958  
     376A      4.980054   377A      4.998734   378A      5.012684  
     379A      5.019139   380A      5.038697   381A      5.068233  
     382A      5.077537   383A      5.093122   384A      5.131234  
     385A      5.151083   386A      5.171567   387A      5.188882  
     388A      5.199670   389A      5.204191   390A      5.224468  
     391A      5.239923   392A      5.250077   393A      5.258821  
     394A      5.276089   395A      5.282739   396A      5.320224  
     397A      5.326870   398A      5.350621   399A      5.354493  
     400A      5.367555   401A      5.378801   402A      5.398605  
     403A      5.419451   404A      5.426433   405A      5.445252  
     406A      5.478251   407A      5.512023   408A      5.537061  
     409A      5.555732   410A      5.568581   411A      5.592138  
     412A      5.613109   413A      5.632904   414A      5.652374  
     415A      5.731786   416A      5.745540   417A      5.754524  
     418A      5.778037   419A      5.788117   420A      5.800934  
     421A      5.813874   422A      5.839236   423A      5.860594  
     424A      5.874289   425A      5.888776   426A      5.897535  
     427A      5.932818   428A      5.938384   429A      5.947081  
     430A      5.953527   431A      5.962506   432A      6.007241  
     433A      6.011243   434A      6.047312   435A      6.094264  
     436A      6.097439   437A      6.136167   438A      6.246638  
     439A      6.296704   440A      6.310809   441A      6.338591  
     442A      6.358516   443A      6.408269   444A      6.425219  
     445A      6.459892   446A      6.505489   447A      6.527482  
     448A      6.762903   449A      7.088995   450A      7.181588  
     451A      7.271931   452A      7.322690   453A      7.440956  
     454A      7.579257   455A      7.725427   456A      8.021184  
     457A     12.847637   458A     13.046845   459A     13.330935  
     460A     13.501653   461A     13.652680   462A     13.820540  
     463A     14.034582   464A     14.267577  

    Final Occupation by Irrep:
              A 
    DOCC [    33 ]

  Energy converged.

  @DF-RHF Final Energy:  -349.37776795147698

   => Energetics <=

    Nuclear Repulsion Energy =            385.6617791455908559
    One-Electron Energy =               -1237.7830748839223816
    Two-Electron Energy =                 502.7435277868545427
    DFT Exchange-Correlation Energy =       0.0000000000000000
    Empirical Dispersion Energy =           0.0000000000000000
    PCM Polarization Energy =               0.0000000000000000
    EFP Energy =                            0.0000000000000000
    Total Energy =                       -349.3777679514770398


  Saving occupied orbitals to File 180.

*** tstop() called on cx1-27-1-2 at Sun Sep 11 00:41:36 2016
Module time:
	user time   =      58.71 seconds =       0.98 minutes
	system time =       1.31 seconds =       0.02 minutes
	total time  =         17 seconds =       0.28 minutes
Total time:
	user time   =      58.71 seconds =       0.98 minutes
	system time =       1.31 seconds =       0.02 minutes
	total time  =         17 seconds =       0.28 minutes


Properties will be evaluated at   0.000000,   0.000000,   0.000000 Bohr

Properties computed using the SCF density matrix

  Nuclear Dipole Moment: (a.u.)
     X:     8.3070      Y:    -0.2306      Z:     1.5583

  Electronic Dipole Moment: (a.u.)
     X:    -7.6480      Y:    -0.1134      Z:    -1.3111

  Dipole Moment: (a.u.)
     X:     0.6590      Y:    -0.3440      Z:     0.2471     Total:     0.7834

  Dipole Moment: (Debye)
     X:     1.6750      Y:    -0.8742      Z:     0.6282     Total:     1.9911


*** tstart() called on cx1-27-1-2
*** at Sun Sep 11 00:41:36 2016


         ------------------------------------------------------------
                                   SCF GRAD                          
                          Rob Parrish, Justin Turney,                
                       Andy Simmonett, and Alex Sokolov              
         ------------------------------------------------------------

  ==> Geometry <==

    Molecular point group: c1
    Full point group: C1

    Geometry (in Angstrom), charge = 0, multiplicity = 1:

       Center              X                  Y                   Z               Mass       
    ------------   -----------------  -----------------  -----------------  -----------------
           H         -2.790483907870     0.016516991544    -1.534252697813     1.007825032070
           O         -3.464251907870     0.326084991544    -0.956396697813    15.994914619560
           C         -3.182290907870    -0.069999008456     0.360069302187    12.000000000000
           C         -1.769026907870     0.276090991544     0.804159302187    12.000000000000
           H         -3.327480907870    -1.142613008456     0.383970302187     1.007825032070
           H         -3.901123907870     0.368209991544     1.047850302187     1.007825032070
           C         -0.679045907870    -0.416123008456    -0.008923697813    12.000000000000
           H         -1.636704907870     1.355737991544     0.752028302187     1.007825032070
           H         -1.670242907870     0.009200991544     1.853635302187     1.007825032070
           C          0.732186092130    -0.032334008456     0.428227302187    12.000000000000
           H         -0.811758907870    -0.179693008456    -1.058876697813     1.007825032070
           H         -0.802876907870    -1.492928008456     0.078614302187     1.007825032070
           C          1.818344092130    -0.732399008456    -0.386154697813    12.000000000000
           H          0.844932092130     1.044601991544     0.348308302187     1.007825032070
           H          0.862931092130    -0.275489008456     1.480671302187     1.007825032070
           C          3.250301092130    -0.442242008456     0.066787302187    12.000000000000
           H          1.712594092130    -0.459774008456    -1.433695697813     1.007825032070
           H          1.652449092130    -1.805025008456    -0.335435697813     1.007825032070
           C          3.701373092130     1.003161991544    -0.129388697813    12.000000000000
           H          3.922545092130    -1.093271008456    -0.483689697813     1.007825032070
           H          3.357011092130    -0.713736008456     1.113842302187     1.007825032070
           H          3.600155092130     1.304868991544    -1.167080697813     1.007825032070
           H          4.742677092130     1.121853991544     0.147811302187     1.007825032070
           H          3.124226092130     1.693902991544     0.473424302187     1.007825032070

  Nuclear repulsion =  385.661779145590856

  ==> Basis Set <==

  Basis Set: CC-PVTZ
    Number of shells: 176
    Number of basis function: 464
    Number of Cartesian functions: 520
    Spherical Harmonics?: true
    Max angular momentum: 3

  ==> DFJKGrad: Density-Fitted SCF Gradients <==

    Gradient:                    1
    J tasked:                  Yes
    K tasked:                  Yes
    wK tasked:                  No
    OpenMP threads:              4
    Integrals threads:           4
    Memory (MB):              1430
    Schwarz Cutoff:          0E+00
    Fitting Condition:       1E-12

   => Auxiliary Basis Set <=

  Basis Set: 
    Number of shells: 360
    Number of basis function: 1112
    Number of Cartesian functions: 1328
    Spherical Harmonics?: true
    Max angular momentum: 4


  -Total Gradient:
     Atom            X                  Y                   Z
    ------   -----------------  -----------------  -----------------
       1        0.002494370257     0.000488680710    -0.001653627595
       2        0.004128360633    -0.012182406094    -0.002218075641
       3       -0.004844279407     0.010770056604     0.004930069168
       4        0.000911020645    -0.004291948778    -0.002495974869
       5       -0.000954179812     0.004747130110    -0.009159058595
       6        0.000099149848    -0.002789618151     0.009361194887
       7        0.001487501614     0.001463483919    -0.004328759168
       8        0.000741413990     0.001532581370     0.000850245175
       9       -0.000437764829     0.000973073193     0.000569584945
      10       -0.000852098223    -0.000774456264     0.001499256914
      11       -0.003441593185    -0.000891168179     0.001941177683
      12       -0.000247440146     0.000274836854     0.000226802114
      13       -0.000066251215     0.000235976648    -0.000024323488
      14        0.000264675455     0.000358500518    -0.000057300278
      15        0.000794861030     0.000152869019     0.000444993204
      16       -0.000146450693    -0.000079812628    -0.000036385016
      17       -0.000113240262    -0.000080903201     0.000129907168
      18       -0.000049470743     0.000081913400    -0.000024100297
      19        0.000062836329    -0.000055419352     0.000018816896
      20        0.000093037637     0.000008682364    -0.000035125826
      21        0.000050511132     0.000041329059     0.000054326494
      22       -0.000016885191    -0.000016079413    -0.000025971532
      23        0.000089905987     0.000043663839     0.000014991244
      24       -0.000047990856    -0.000010965546     0.000017336409


*** tstop() called on cx1-27-1-2 at Sun Sep 11 00:41:53 2016
Module time:
	user time   =      63.94 seconds =       1.07 minutes
	system time =       0.95 seconds =       0.02 minutes
	total time  =         17 seconds =       0.28 minutes
Total time:
	user time   =     122.78 seconds =       2.05 minutes
	system time =       2.27 seconds =       0.04 minutes
	total time  =         34 seconds =       0.57 minutes

			-----------------------------------------
			 OPTKING 2.0: for geometry optimizations 
			  - R.A. King,  Bethel University        
			-----------------------------------------

	Internal coordinates to be generated automatically.
	Detected frag 1 with atoms:  1 2 3 4 5 6 7 8 9 10 11 12 13 14 15 16 17 18 19 20
	 21 22 23 24
	---Fragment 1 Bond Connectivity---
	 1 : 2
	 2 : 1 3
	 3 : 2 4 5 6
	 4 : 3 7 8 9
	 5 : 3
	 6 : 3
	 7 : 4 10 11 12
	 8 : 4
	 9 : 4
	 10 : 7 13 14 15
	 11 : 7
	 12 : 7
	 13 : 10 16 17 18
	 14 : 10
	 15 : 10
	 16 : 13 19 20 21
	 17 : 13
	 18 : 13
	 19 : 16 22 23 24
	 20 : 16
	 21 : 16
	 22 : 19
	 23 : 19
	 24 : 19

	Assuming in current code that numbering for constraints corresponds to unified fragment.
	Frozen dihedral atom list: 
	     1     2     3     5
	---Fragment 1 Geometry and Gradient---
	 H          -5.2732503641        0.0312125906       -2.8993174175
	 O          -6.5464873612        0.6162113301       -1.8073278333
	 C          -6.0136582910       -0.1322789556        0.6804323700
	 C          -3.3429763776        0.5217363618        1.5196408483
	 H          -6.2880276283       -2.1592256619        0.7255987143
	 H          -7.3720557963        0.6958160434        1.9801500994
	 C          -1.2832107975       -0.7863585236       -0.0168633450
	 H          -3.0929240362        2.5619735120        1.4211275353
	 H          -3.1563016713        0.0173873542        3.5028630714
	 C           1.3836311924       -0.0611024208        0.8092323238
	 H          -1.5340020218       -0.3395705740       -2.0009869674
	 H          -1.5172174743       -2.8212250721        0.1485595013
	 C           3.4361723495       -1.3840335460       -0.7297266238
	 H           1.5966902550        1.9740116819        0.6582073009
	 H           1.6307034357       -0.5205987786        2.7980632540
	 C           6.1421789135       -0.8357162804        0.1262097103
	 H           3.2363338109       -0.8688469590       -2.7092922268
	 H           3.1226762327       -3.4110029290       -0.6338816041
	 C           6.9945814598        1.8957014309       -0.2445092036
	 H           7.4125359680       -2.0659827950       -0.9140410622
	 H           6.3438315892       -1.3487655872        2.1048569064
	 H           6.8033071600        2.4658450333       -2.2054628938
	 H           8.9623608408        2.1199968051        0.2793228805
	 H           5.9039316913        3.2010127497        0.8946422758
	             0.0024943703        0.0004886807       -0.0016536276
	             0.0041283606       -0.0121824061       -0.0022180756
	            -0.0048442794        0.0107700566        0.0049300692
	             0.0009110206       -0.0042919488       -0.0024959749
	            -0.0009541798        0.0047471301       -0.0091590586
	             0.0000991498       -0.0027896182        0.0093611949
	             0.0014875016        0.0014634839       -0.0043287592
	             0.0007414140        0.0015325814        0.0008502452
	            -0.0004377648        0.0009730732        0.0005695849
	            -0.0008520982       -0.0007744563        0.0014992569
	            -0.0034415932       -0.0008911682        0.0019411777
	            -0.0002474401        0.0002748369        0.0002268021
	            -0.0000662512        0.0002359766       -0.0000243235
	             0.0002646755        0.0003585005       -0.0000573003
	             0.0007948610        0.0001528690        0.0004449932
	            -0.0001464507       -0.0000798126       -0.0000363850
	            -0.0001132403       -0.0000809032        0.0001299072
	            -0.0000494707        0.0000819134       -0.0000241003
	             0.0000628363       -0.0000554194        0.0000188169
	             0.0000930376        0.0000086824       -0.0000351258
	             0.0000505111        0.0000413291        0.0000543265
	            -0.0000168852       -0.0000160794       -0.0000259715
	             0.0000899060        0.0000436638        0.0000149912
	            -0.0000479909       -0.0000109655        0.0000173364

	Previous optimization step data not found.  Starting new optimization.

	---Fragment 1 Intrafragment Coordinates---
	 - Coordinate -           - BOHR/RAD -       - ANG/DEG -
	 R(1,2)           =         1.776456	       0.940060
	 R(2,3)           =         2.651998	       1.403377
	 R(3,4)           =         2.874813	       1.521285
	 R(3,5)           =         2.045930	       1.082660
	 R(3,6)           =         2.054325	       1.087102
	 R(4,7)           =         2.883503	       1.525884
	 R(4,8)           =         2.057863	       1.088974
	 R(4,9)           =         2.054844	       1.087377
	 R(7,10)          =         2.884524	       1.526424
	 R(7,11)          =         2.049210	       1.084395
	 R(7,12)          =         2.054947	       1.087431
	 R(10,13)         =         2.886428	       1.527432
	 R(10,14)         =         2.051802	       1.085767
	 R(10,15)         =         2.056120	       1.088052
	 R(13,16)         =         2.890631	       1.529656
	 R(13,17)         =         2.055245	       1.087589
	 R(13,18)         =         2.053307	       1.086563
	 R(16,19)         =         2.885250	       1.526808
	 R(16,20)         =         2.051703	       1.085714
	 R(16,21)         =         2.054003	       1.086932
	 R(19,22)         =         2.051095	       1.085393
	 R(19,23)         =         2.048625	       1.084086
	 R(19,24)         =         2.047198	       1.083331
	 B(1,2,3)         =         1.917382	     109.857871
	 B(2,3,4)         =         1.978258	     113.345861
	 B(2,3,5)         =         1.847704	     105.865657
	 B(2,3,6)         =         1.925028	     110.295994
	 B(3,4,7)         =         1.987611	     113.881728
	 B(3,4,8)         =         1.901235	     108.932738
	 B(3,4,9)         =         1.886305	     108.077317
	 B(4,3,5)         =         1.921465	     110.091821
	 B(4,3,6)         =         1.915473	     109.748538
	 B(4,7,10)        =         1.975509	     113.188316
	 B(4,7,11)        =         1.906681	     109.244779
	 B(4,7,12)        =         1.901783	     108.964112
	 B(5,3,6)         =         1.872048	     107.260452
	 B(7,4,8)         =         1.915008	     109.721893
	 B(7,4,9)         =         1.915639	     109.758006
	 B(7,10,13)       =         1.970891	     112.923739
	 B(7,10,14)       =         1.901077	     108.923706
	 B(7,10,15)       =         1.909138	     109.385572
	 B(8,4,9)         =         1.853035	     106.171057
	 B(10,7,11)       =         1.913062	     109.610374
	 B(10,7,12)       =         1.908372	     109.341639
	 B(10,13,16)      =         2.005198	     114.889392
	 B(10,13,17)      =         1.906577	     109.238824
	 B(10,13,18)      =         1.895462	     108.601958
	 B(11,7,12)       =         1.854492	     106.254557
	 B(13,10,14)      =         1.919325	     109.969210
	 B(13,10,15)      =         1.904820	     109.138157
	 B(13,16,19)      =         2.002142	     114.714265
	 B(13,16,20)      =         1.892044	     108.406157
	 B(13,16,21)      =         1.906855	     109.254720
	 B(14,10,15)      =         1.854985	     106.282831
	 B(16,13,17)      =         1.905700	     109.188547
	 B(16,13,18)      =         1.892686	     108.442923
	 B(16,19,22)      =         1.937393	     111.004433
	 B(16,19,23)      =         1.933250	     110.767090
	 B(16,19,24)      =         1.954895	     112.007243
	 B(17,13,18)      =         1.852058	     106.115102
	 B(19,16,20)      =         1.896094	     108.638200
	 B(19,16,21)      =         1.908405	     109.343577
	 B(20,16,21)      =         1.852355	     106.132133
	 B(22,19,23)      =         1.879268	     107.674121
	 B(22,19,24)      =         1.880810	     107.762476
	 B(23,19,24)      =         1.875108	     107.435784
	 D(1,2,3,4)       =         0.886165	      50.773530
	*D(1,2,3,5)       =        -1.221730	     -69.999989
	 D(1,2,3,6)       =         3.041735	     174.278590
	 D(2,3,4,7)       =        -1.089366	     -62.416066
	 D(2,3,4,8)       =         1.054284	      60.406016
	 D(2,3,4,9)       =         3.060386	     175.347189
	 D(3,4,7,10)      =         3.117777	     178.635459
	 D(3,4,7,11)      =         0.980963	      56.205063
	 D(3,4,7,12)      =        -1.038154	     -59.481819
	 D(4,7,10,13)     =         3.137973	     179.792631
	 D(4,7,10,14)     =        -1.007570	     -57.729496
	 D(4,7,10,15)     =         1.013097	      58.046163
	 D(5,3,4,7)       =         0.976321	      55.939057
	 D(5,3,4,8)       =         3.119970	     178.761138
	 D(5,3,4,9)       =        -1.157113	     -66.297688
	 D(6,3,4,7)       =         3.033020	     173.779226
	 D(6,3,4,8)       =        -1.106516	     -63.398692
	 D(6,3,4,9)       =         0.899586	      51.542481
	 D(7,10,13,16)    =        -3.083034	    -176.644830
	 D(7,10,13,17)    =         1.052152	      60.283844
	 D(7,10,13,18)    =        -0.960542	     -55.034980
	 D(8,4,7,10)      =         0.981679	      56.246076
	 D(8,4,7,11)      =        -1.155134	     -66.184320
	 D(8,4,7,12)      =         3.108934	     178.128799
	 D(9,4,7,10)      =        -1.048208	     -60.057873
	 D(9,4,7,11)      =         3.098164	     177.511731
	 D(9,4,7,12)      =         1.079047	      61.824850
	 D(10,13,16,19)   =        -1.157093	     -66.296535
	 D(10,13,16,20)   =         3.003821	     172.106256
	 D(10,13,16,21)   =         0.992486	      56.865270
	 D(11,7,10,13)    =        -1.011954	     -57.980719
	 D(11,7,10,14)    =         1.125688	      64.497155
	 D(11,7,10,15)    =        -3.136831	    -179.727187
	 D(12,7,10,13)    =         1.014413	      58.121576
	 D(12,7,10,14)    =        -3.131130	    -179.400551
	 D(12,7,10,15)    =        -1.110464	     -63.624892
	 D(13,16,19,22)   =        -0.986875	     -56.543751
	 D(13,16,19,23)   =        -3.073674	    -176.108530
	 D(13,16,19,24)   =         1.116378	      63.963753
	 D(14,10,13,16)   =         1.072746	      61.463831
	 D(14,10,13,17)   =        -1.075254	     -61.607495
	 D(14,10,13,18)   =        -3.087947	    -176.926319
	 D(15,10,13,16)   =        -0.955725	     -54.759006
	 D(15,10,13,17)   =        -3.103725	    -177.830331
	 D(15,10,13,18)   =         1.166767	      66.850844
	 D(17,13,16,19)   =         0.991376	      56.801685
	 D(17,13,16,20)   =        -1.130895	     -64.795524
	 D(17,13,16,21)   =         3.140955	     179.963489
	 D(18,13,16,19)   =         3.002092	     172.007186
	 D(18,13,16,20)   =         0.879820	      50.409977
	 D(18,13,16,21)   =        -1.131515	     -64.831009
	 D(20,16,19,22)   =         1.133186	      64.926765
	 D(20,16,19,23)   =        -0.953613	     -54.638013
	 D(20,16,19,24)   =        -3.046747	    -174.565730
	 D(21,16,19,22)   =        -3.135622	    -179.657893
	 D(21,16,19,23)   =         1.060764	      60.777329
	 D(21,16,19,24)   =        -1.032369	     -59.150388

	Current energy   :      -349.3777679515

	Generating empirical Hessian (Schlegel '84) for each fragment.
	Taking RFO optimization step.
	Going to follow RFO solution 1.
	Using RFO vector 1.
	Norm of target step-size    0.32996
	Projected energy change by RFO approximation:         0.0113503277

	Back-transformation to cartesian coordinates...
	Could not converge backtransformation.
	Using first guess instead.

	Back-transformation to cartesian coordinates to adjust frozen coordinates...
	Successfully converged to displaced geometry.

	--- Internal Coordinate Step in ANG or DEG, aJ/ANG or AJ/DEG ---
	 ---------------------------------------------------------------------------
	   Coordinate                Previous        Force       Change         New 
	   ----------                --------       ------       ------       ------
	    1 R(1,2)          =      0.940060    -0.021778     0.074372     1.014432
	    2 R(2,3)          =      1.403377     0.008231     0.502526     1.905903
	    3 R(3,4)          =      1.521285     0.012037     0.322950     1.844236
	    4 R(3,5)          =      1.082660     0.039359     0.396274     1.478934
	    5 R(3,6)          =      1.087102    -0.038990     0.101329     1.188431
	    6 R(4,7)          =      1.525884     0.014586     0.137605     1.663489
	    7 R(4,8)          =      1.088974    -0.012925     0.385353     1.474327
	    8 R(4,9)          =      1.087377    -0.002234     0.340261     1.427638
	    9 R(7,10)         =      1.526424    -0.004950     0.336486     1.862910
	   10 R(7,11)         =      1.084395     0.013616     0.336617     1.421012
	   11 R(7,12)         =      1.087431     0.001860     0.386667     1.474098
	   12 R(10,13)        =      1.527432     0.001873     0.136971     1.664403
	   13 R(10,14)        =      1.085767    -0.003191     0.385729     1.471496
	   14 R(10,15)        =      1.088052    -0.004052     0.337409     1.425461
	   15 R(13,16)        =      1.529656    -0.000568     0.337299     1.866956
	   16 R(13,17)        =      1.087589     0.001107     0.333948     1.421537
	   17 R(13,18)        =      1.086563     0.000613     0.383969     1.470532
	   18 R(16,19)        =      1.526808     0.000115     0.501687     2.028496
	   19 R(16,20)        =      1.085714    -0.000578     0.160521     1.246235
	   20 R(16,21)        =      1.086932    -0.000387     0.333734     1.420666
	   21 R(19,22)        =      1.085393    -0.000181     0.333239     1.418632
	   22 R(19,23)        =      1.084086    -0.000782     0.217466     1.301551
	   23 R(19,24)        =      1.083331    -0.000233     0.189880     1.273211
	   24 B(1,2,3)        =    109.857871    -0.000042     0.418895   110.276767
	   25 B(2,3,4)        =    113.345861     0.000326    10.289568   123.635429
	   26 B(2,3,5)        =    105.865657     0.000583     3.622351   109.488008
	   27 B(2,3,6)        =    110.295994    -0.000766   -11.133523    99.162471
	   28 B(3,4,7)        =    113.881728     0.000331   -11.017032   102.864696
	   29 B(3,4,8)        =    108.932738    -0.000118    -0.315058   108.617679
	   30 B(3,4,9)        =    108.077317    -0.000094    11.156210   119.233527
	   31 B(4,3,5)        =    110.091821    -0.000350     3.618179   113.710000
	   32 B(4,3,6)        =    109.748538     0.000171   -14.013130    95.735408
	   33 B(4,7,10)       =    113.188316     0.000003   -11.735902   101.452414
	   34 B(4,7,11)       =    109.244779     0.000172    -6.277925   102.966853
	   35 B(4,7,12)       =    108.964112    -0.000005     9.434637   118.398750
	   36 B(5,3,6)        =    107.260452     0.000025     5.640513   112.900965
	   37 B(7,4,8)        =    109.721893    -0.000062     8.731000   118.452893
	   38 B(7,4,9)        =    109.758006    -0.000162    -7.671960   102.086047
	   39 B(7,10,13)      =    112.923739     0.000048   -11.697057   101.226682
	   40 B(7,10,14)      =    108.923706    -0.000016    -0.410265   108.513441
	   41 B(7,10,15)      =    109.385572    -0.000059    11.204583   120.590155
	   42 B(8,4,9)        =    106.171057     0.000090     0.006383   106.177440
	   43 B(10,7,11)      =    109.610374    -0.000197    10.293628   119.904002
	   44 B(10,7,12)      =    109.341639     0.000011    -0.607528   108.734110
	   45 B(10,13,16)     =    114.889392    -0.000013   -11.598810   103.290581
	   46 B(10,13,17)     =    109.238824     0.000009    -7.436026   101.802799
	   47 B(10,13,18)     =    108.601958     0.000006     9.679024   118.280982
	   48 B(11,7,12)      =    106.254557     0.000017    -0.226834   106.027723
	   49 B(13,10,14)     =    109.969210    -0.000005     8.935588   118.904797
	   50 B(13,10,15)     =    109.138157     0.000015    -6.758840   102.379317
	   51 B(13,16,19)     =    114.714265    -0.000002    -3.231151   111.483114
	   52 B(13,16,20)     =    108.406157    -0.000003   -12.031942    96.374215
	   53 B(13,16,21)     =    109.254720    -0.000002    12.339692   121.594412
	   54 B(14,10,15)     =    106.282831     0.000015    -0.327818   105.955013
	   55 B(16,13,17)     =    109.188547    -0.000003    12.162004   121.350551
	   56 B(16,13,18)     =    108.442923     0.000002    -0.896431   107.546492
	   57 B(16,19,22)     =    111.004433     0.000003    -2.240013   108.764420
	   58 B(16,19,23)     =    110.767090    -0.000005    -3.451164   107.315926
	   59 B(16,19,24)     =    112.007243     0.000005    12.395387   124.402630
	   60 B(17,13,18)     =    106.115102     0.000000    -0.734682   105.380420
	   61 B(19,16,20)     =    108.638200     0.000004    13.025081   121.663281
	   62 B(19,16,21)     =    109.343577     0.000004    -2.377179   106.966398
	   63 B(20,16,21)     =    106.132133    -0.000001    -7.129725    99.002408
	   64 B(22,19,23)     =    107.674121     0.000000    12.898366   120.572487
	   65 B(22,19,24)     =    107.762476    -0.000002    -6.257390   101.505086
	   66 B(23,19,24)     =    107.435784    -0.000000   -12.494721    94.941063
	   67 D(1,2,3,4)      =     50.773530     0.000035    17.622429    68.395959
	   68 *D(1,2,3,5)     =    -69.999989    -0.000000     0.000000   -69.999989
	   69 D(1,2,3,6)      =    174.278590     0.000007    -2.651025   171.627565
	   70 D(2,3,4,7)      =    -62.416066    -0.000115   -18.615165   -81.031231
	   71 D(2,3,4,8)      =     60.406016    -0.000101   -15.093610    45.312406
	   72 D(2,3,4,9)      =    175.347189    -0.000102    -8.336733   167.010456
	   73 D(3,4,7,10)     =    178.635459    -0.000002     2.027151   180.662610
	   74 D(3,4,7,11)     =     56.205063     0.000026    -0.197498    56.007565
	   75 D(3,4,7,12)     =    -59.481819     0.000001    -1.035195   -60.517014
	   76 D(4,7,10,13)    =    179.792631    -0.000006     0.208459   180.001090
	   77 D(4,7,10,14)    =    -57.729496    -0.000003     3.614473   -54.115023
	   78 D(4,7,10,15)    =     58.046163    -0.000008    10.162767    68.208930
	   79 D(5,3,4,7)      =     55.939057     0.000048    -0.099463    55.839594
	   80 D(5,3,4,8)      =    178.761138     0.000062     3.422093   182.183231
	   81 D(5,3,4,9)      =    -66.297688     0.000061    10.178970   -56.118718
	   82 D(6,3,4,7)      =    173.779226     0.000031     0.176618   173.955844
	   83 D(6,3,4,8)      =    -63.398692     0.000045     3.698174   -59.700519
	   84 D(6,3,4,9)      =     51.542481     0.000044    10.455051    61.997532
	   85 D(7,10,13,16)   =   -176.644830     0.000003     0.043809  -176.601021
	   86 D(7,10,13,17)   =     60.283844     0.000004    -3.433000    56.850845
	   87 D(7,10,13,18)   =    -55.034980     0.000002    -2.955506   -57.990486
	   88 D(8,4,7,10)     =     56.246076    -0.000010     4.666295    60.912372
	   89 D(8,4,7,11)     =    -66.184320     0.000019     2.441646   -63.742674
	   90 D(8,4,7,12)     =    178.128799    -0.000007     1.603949   179.732748
	   91 D(9,4,7,10)     =    -60.057873    -0.000005     4.859520   -55.198352
	   92 D(9,4,7,11)     =    177.511731     0.000023     2.634871   180.146602
	   93 D(9,4,7,12)     =     61.824850    -0.000002     1.797174    63.622024
	   94 D(10,13,16,19)  =    -66.296535     0.000000     5.666963   -60.629572
	   95 D(10,13,16,20)  =    172.106256    -0.000000    -0.440661   171.665595
	   96 D(10,13,16,21)  =     56.865270     0.000001    10.112128    66.977397
	   97 D(11,7,10,13)   =    -57.980719     0.000012    -9.646075   -67.626794
	   98 D(11,7,10,14)   =     64.497155     0.000016    -6.240062    58.257093
	   99 D(11,7,10,15)   =   -179.727187     0.000010     0.308233  -179.418954
	  100 D(12,7,10,13)   =     58.121576    -0.000007    -3.649938    54.471637
	  101 D(12,7,10,14)   =   -179.400551    -0.000004    -0.243925  -179.644476
	  102 D(12,7,10,15)   =    -63.624892    -0.000009     6.304370   -57.320523
	  103 D(13,16,19,22)  =    -56.543751    -0.000000    11.978825   -44.564926
	  104 D(13,16,19,23)  =   -176.108530     0.000000    -0.415547  -176.524077
	  105 D(13,16,19,24)  =     63.963753     0.000000    10.677380    74.641133
	  106 D(14,10,13,16)  =     61.463831     0.000001     3.290096    64.753927
	  107 D(14,10,13,17)  =    -61.607495     0.000002    -0.186713   -61.794207
	  108 D(14,10,13,18)  =   -176.926319     0.000000     0.290781  -176.635538
	  109 D(15,10,13,16)  =    -54.759006    -0.000005     3.239190   -51.519816
	  110 D(15,10,13,17)  =   -177.830331    -0.000003    -0.237619  -178.067950
	  111 D(15,10,13,18)  =     66.850844    -0.000005     0.239875    67.090719
	  112 D(17,13,16,19)  =     56.801685     0.000000    -4.476035    52.325650
	  113 D(17,13,16,20)  =    -64.795524    -0.000000   -10.583659   -75.379183
	  114 D(17,13,16,21)  =    179.963489     0.000000    -0.030870   179.932619
	  115 D(18,13,16,19)  =    172.007186    -0.000000     1.540398   173.547584
	  116 D(18,13,16,20)  =     50.409977    -0.000000    -4.567226    45.842751
	  117 D(18,13,16,21)  =    -64.831009     0.000000     5.985563   -58.845447
	  118 D(20,16,19,22)  =     64.926765    -0.000001     3.021854    67.948619
	  119 D(20,16,19,23)  =    -54.638013    -0.000000    -9.372518   -64.010531
	  120 D(20,16,19,24)  =   -174.565730    -0.000000     1.720409  -172.845321
	  121 D(21,16,19,22)  =   -179.657893     0.000000    -0.037264  -179.695157
	  122 D(21,16,19,23)  =     60.777329     0.000000   -12.431636    48.345693
	  123 D(21,16,19,24)  =    -59.150388     0.000001    -1.338709   -60.489097
	 ---------------------------------------------------------------------------
	Successfully symmetrized geometry.

  ==> Convergence Check <==

  Measures of convergence in internal coordinates in au.
  Criteria marked as inactive (o), active & met (*), and active & unmet ( ).
  --------------------------------------------------------------------------------------------- ~
   Step     Total Energy     Delta E     MAX Force     RMS Force      MAX Disp      RMS Disp    ~
  --------------------------------------------------------------------------------------------- ~
    Convergence Criteria    1.00e-06 *    3.00e-04 *             o    1.20e-03 *             o  ~
  --------------------------------------------------------------------------------------------- ~
      1    -349.37776795   -3.49e+02      1.01e-02      1.98e-03 o    9.50e-01      2.90e-01 o  ~
  ---------------------------------------------------------------------------------------------

	Writing optimization data to binary file.
	Structure for next step:
	Cartesian Geometry (in Angstrom)
	    H    -2.8836306175   3.0691877551  -1.4895383427
	    O    -3.3753700823   3.0923313953  -0.6025611519
	    C    -3.2050878457   1.4174892988   0.2909560074
	    C    -1.6173506976   0.7872605922   0.9860154296
	    H    -3.9869330276   0.3909964986  -0.4317302301
	    H    -3.6844581873   1.7118933325   1.3378081219
	    C    -0.8518354408   0.1582862450  -0.3502385204
	    H    -0.9587986186   1.8814546794   1.7226900241
	    H    -1.6396354470  -0.3318618340   1.8721414776
	    C     0.7297198696  -0.4826089128   0.3970041638
	    H    -0.8163169392   1.2609553031  -1.2458587856
	    H    -1.5085387417  -0.9397393446  -1.0823893092
	    C     1.4905942670  -1.1100967632  -0.9437289816
	    H     1.3767362528   0.6147154924   1.1335838869
	    H     0.7124442649  -1.5955878905   1.2874632223
	    C     3.0450417052  -1.8675826932  -0.2398597289
	    H     1.5427540550   0.0202838074  -1.8041283107
	    H     0.7977102617  -2.1542826044  -1.7131786757
	    C     4.2034601046  -0.4741643179   0.6718675795
	    H     3.4083418266  -2.4365003784  -1.2874514908
	    H     2.9988547766  -2.9963402924   0.6215718998
	    H     4.2699148376   0.6762844897  -0.1555184612
	    H     5.2914285735  -1.0712924009   1.0640394303
	    H     3.9473920614   0.0435243399   1.8065449981
			--------------------------
			 OPTKING Finished Execution 
			--------------------------

    Structure for next step:
    Molecular point group: c1
    Full point group: C1

    Geometry (in Angstrom), charge = 0, multiplicity = 1:

    H           -2.887784929961     2.821739298217    -1.504653112499
    O           -3.379524394729     2.844882938363    -0.617675921673
    C           -3.209242158133     1.170040841944     0.275841237605
    C           -1.621505010075     0.539812135315     0.970900659751
    H           -3.991087340067     0.143548041725    -0.446844999858
    H           -3.688612499709     1.464444875586     1.322693352074
    C           -0.855989753264    -0.089162211932    -0.365353290230
    H           -0.962952931035     1.634006222481     1.707575254303
    H           -1.643789759486    -0.579310290851     1.857026707825
    C            0.725565557179    -0.730057369685     0.381889394006
    H           -0.820471251629     1.013506846219    -1.260973555375
    H           -1.512693054149    -1.187187801497    -1.097504079045
    C            1.486439954603    -1.357545220109    -0.958843751397
    H            1.372581940348     0.367267035531     1.118469117057
    H            0.708289952491    -1.843036347435     1.272348452453
    C            3.040887392730    -2.115031150127    -0.254974498681
    H            1.538599742538    -0.227164649546    -1.819243080478
    H            0.793555949221    -2.401731061340    -1.728293445493
    C            4.199305792198    -0.721612774791     0.656752809699
    H            3.404187514171    -2.683948835347    -1.302566260597
    H            2.994700464123    -3.243788749267     0.606457130007
    H            4.265760525111     0.428836032790    -0.170633230988
    H            5.287274261063    -1.318740857786     1.048924660467
    H            3.943237748992    -0.203924117026     1.791430228313

gradient() will perform analytic gradient computation.

*** tstart() called on cx1-27-1-2
*** at Sun Sep 11 00:41:54 2016


         ---------------------------------------------------------
                                   SCF
            by Justin Turney, Rob Parrish, and Andy Simmonett
                              RHF Reference
                        4 Threads,   2000 MiB Core
         ---------------------------------------------------------

  ==> Geometry <==

    Molecular point group: c1
    Full point group: C1

    Geometry (in Angstrom), charge = 0, multiplicity = 1:

       Center              X                  Y                   Z               Mass       
    ------------   -----------------  -----------------  -----------------  -----------------
           H         -2.887784929961     2.821739298217    -1.504653112499     1.007825032070
           O         -3.379524394729     2.844882938363    -0.617675921673    15.994914619560
           C         -3.209242158133     1.170040841944     0.275841237605    12.000000000000
           C         -1.621505010075     0.539812135315     0.970900659751    12.000000000000
           H         -3.991087340067     0.143548041725    -0.446844999858     1.007825032070
           H         -3.688612499709     1.464444875586     1.322693352074     1.007825032070
           C         -0.855989753264    -0.089162211932    -0.365353290230    12.000000000000
           H         -0.962952931035     1.634006222481     1.707575254303     1.007825032070
           H         -1.643789759486    -0.579310290851     1.857026707825     1.007825032070
           C          0.725565557179    -0.730057369685     0.381889394006    12.000000000000
           H         -0.820471251629     1.013506846219    -1.260973555375     1.007825032070
           H         -1.512693054149    -1.187187801497    -1.097504079045     1.007825032070
           C          1.486439954603    -1.357545220109    -0.958843751397    12.000000000000
           H          1.372581940348     0.367267035531     1.118469117057     1.007825032070
           H          0.708289952491    -1.843036347435     1.272348452453     1.007825032070
           C          3.040887392730    -2.115031150127    -0.254974498681    12.000000000000
           H          1.538599742538    -0.227164649546    -1.819243080478     1.007825032070
           H          0.793555949221    -2.401731061340    -1.728293445493     1.007825032070
           C          4.199305792198    -0.721612774791     0.656752809699    12.000000000000
           H          3.404187514171    -2.683948835347    -1.302566260597     1.007825032070
           H          2.994700464123    -3.243788749267     0.606457130007     1.007825032070
           H          4.265760525111     0.428836032790    -0.170633230988     1.007825032070
           H          5.287274261063    -1.318740857786     1.048924660467     1.007825032070
           H          3.943237748992    -0.203924117026     1.791430228313     1.007825032070

  Running in c1 symmetry.

  Rotational constants: A =      0.11645  B =      0.01528  C =      0.01500 [cm^-1]
  Rotational constants: A =   3491.08306  B =    458.06427  C =    449.75251 [MHz]
  Nuclear repulsion =  324.111198717789932

  Charge       = 0
  Multiplicity = 1
  Electrons    = 66
  Nalpha       = 33
  Nbeta        = 33

  ==> Algorithm <==

  SCF Algorithm Type is DF.
  DIIS enabled.
  MOM disabled.
  Fractional occupation disabled.
  Guess Type is READ.
  Energy threshold   = 1.00e-08
  Density threshold  = 1.00e-08
  Integral threshold = 0.00e+00

  ==> Primary Basis <==

  Basis Set: CC-PVTZ
    Number of shells: 176
    Number of basis function: 464
    Number of Cartesian functions: 520
    Spherical Harmonics?: true
    Max angular momentum: 3

  ==> Pre-Iterations <==

   -------------------------------------------------------
    Irrep   Nso     Nmo     Nalpha   Nbeta   Ndocc  Nsocc
   -------------------------------------------------------
     A        464     464       0       0       0       0
   -------------------------------------------------------
    Total     464     464      33      33      33       0
   -------------------------------------------------------

  ==> Integral Setup <==

  ==> DFJK: Density-Fitted J/K Matrices <==

    J tasked:                  Yes
    K tasked:                  Yes
    wK tasked:                  No
    OpenMP threads:              4
    Integrals threads:           4
    Memory (MB):              1430
    Algorithm:                Core
    Integral Cache:           NONE
    Schwarz Cutoff:          1E-12
    Fitting Condition:       1E-12

   => Auxiliary Basis Set <=

  Basis Set: 
    Number of shells: 360
    Number of basis function: 1112
    Number of Cartesian functions: 1328
    Spherical Harmonics?: true
    Max angular momentum: 4

  Minimum eigenvalue in the overlap matrix is 9.1280212106E-04.
  Using Symmetric Orthogonalization.
  SCF Guess: Reading in previously saved MOs, projecting if necessary.

  Using orbitals from previous SCF, no projection.
  Recomputing DOCC and SOCC from number of alpha and beta electrons from previous calculation.
              A 
    DOCC [    33 ]

  ==> Iterations <==

                           Total Energy        Delta E     RMS |[F,P]|

   @DF-RHF iter   0:  -341.20662935011586   -3.41207e+02   3.72723e-03 
   @DF-RHF iter   1:  -347.33007928461046   -6.12345e+00   2.55866e-03 
   @DF-RHF iter   2:  -347.94834580705270   -6.18267e-01   1.78379e-03 DIIS
   @DF-RHF iter   3:  -348.38038306987977   -4.32037e-01   2.18647e-04 DIIS
   @DF-RHF iter   4:  -348.39253634607206   -1.21533e-02   1.23163e-04 DIIS
   @DF-RHF iter   5:  -348.39540188352754   -2.86554e-03   4.11883e-05 DIIS
   @DF-RHF iter   6:  -348.39613009831027   -7.28215e-04   2.18540e-05 DIIS
   @DF-RHF iter   7:  -348.39631441967771   -1.84321e-04   1.21835e-05 DIIS
   @DF-RHF iter   8:  -348.39639505918507   -8.06395e-05   4.16973e-06 DIIS
   @DF-RHF iter   9:  -348.39640652800784   -1.14688e-05   1.51704e-06 DIIS
   @DF-RHF iter  10:  -348.39640746540175   -9.37394e-07   6.06046e-07 DIIS
   @DF-RHF iter  11:  -348.39640762146740   -1.56066e-07   2.14965e-07 DIIS
   @DF-RHF iter  12:  -348.39640764059340   -1.91260e-08   9.00147e-08 DIIS
   @DF-RHF iter  13:  -348.39640764348093   -2.88753e-09   4.02228e-08 DIIS
   @DF-RHF iter  14:  -348.39640764411610   -6.35168e-10   1.44488e-08 DIIS
   @DF-RHF iter  15:  -348.39640764420579   -8.96989e-11   5.02664e-09 DIIS

  ==> Post-Iterations <==

    Orbital Energies (a.u.)
    -----------------------

    Doubly Occupied:                                                      

       1A    -20.556864     2A    -11.377225     3A    -11.353469  
       4A    -11.343881     5A    -11.343368     6A    -11.341711  
       7A    -11.340863     8A    -11.332338     9A     -1.243872  
      10A     -0.987419    11A     -0.942803    12A     -0.878098  
      13A     -0.839354    14A     -0.795357    15A     -0.713272  
      16A     -0.701533    17A     -0.589641    18A     -0.544474  
      19A     -0.536157    20A     -0.522668    21A     -0.508818  
      22A     -0.499642    23A     -0.484838    24A     -0.477576  
      25A     -0.472087    26A     -0.463205    27A     -0.454865  
      28A     -0.444827    29A     -0.435017    30A     -0.426693  
      31A     -0.413089    32A     -0.393707    33A     -0.360345  

    Virtual:                                                              

      34A      0.081527    35A      0.094306    36A      0.101632  
      37A      0.109122    38A      0.113836    39A      0.122795  
      40A      0.128340    41A      0.137381    42A      0.157444  
      43A      0.168702    44A      0.189396    45A      0.195579  
      46A      0.198813    47A      0.204640    48A      0.208586  
      49A      0.216415    50A      0.233388    51A      0.238632  
      52A      0.254802    53A      0.264880    54A      0.267916  
      55A      0.304434    56A      0.321489    57A      0.367106  
      58A      0.375914    59A      0.379269    60A      0.384425  
      61A      0.400402    62A      0.418470    63A      0.435335  
      64A      0.440824    65A      0.450543    66A      0.463844  
      67A      0.472823    68A      0.484354    69A      0.488847  
      70A      0.493787    71A      0.498141    72A      0.502060  
      73A      0.512128    74A      0.526974    75A      0.530160  
      76A      0.535172    77A      0.548901    78A      0.556338  
      79A      0.559264    80A      0.563667    81A      0.570821  
      82A      0.577803    83A      0.585066    84A      0.586205  
      85A      0.597098    86A      0.602453    87A      0.603351  
      88A      0.610167    89A      0.623522    90A      0.647369  
      91A      0.650286    92A      0.667805    93A      0.673741  
      94A      0.703853    95A      0.726058    96A      0.734740  
      97A      0.767912    98A      0.780897    99A      0.802525  
     100A      0.811746   101A      0.837920   102A      0.847632  
     103A      0.870568   104A      0.877234   105A      0.889872  
     106A      0.904148   107A      0.919617   108A      0.927062  
     109A      0.936302   110A      0.950937   111A      0.951607  
     112A      0.959531   113A      0.981977   114A      0.987868  
     115A      0.995113   116A      1.022794   117A      1.039633  
     118A      1.051554   119A      1.052107   120A      1.064008  
     121A      1.071913   122A      1.079491   123A      1.092772  
     124A      1.097742   125A      1.099716   126A      1.110993  
     127A      1.127597   128A      1.134541   129A      1.138708  
     130A      1.141727   131A      1.156217   132A      1.166549  
     133A      1.180477   134A      1.185759   135A      1.193310  
     136A      1.209772   137A      1.222523   138A      1.234981  
     139A      1.247845   140A      1.251403   141A      1.257962  
     142A      1.261998   143A      1.273643   144A      1.281887  
     145A      1.295939   146A      1.310826   147A      1.321084  
     148A      1.336616   149A      1.339910   150A      1.355014  
     151A      1.362056   152A      1.365830   153A      1.372185  
     154A      1.381054   155A      1.384847   156A      1.406415  
     157A      1.412238   158A      1.421975   159A      1.428164  
     160A      1.435119   161A      1.442696   162A      1.448496  
     163A      1.460425   164A      1.468178   165A      1.479401  
     166A      1.487713   167A      1.497556   168A      1.499940  
     169A      1.511216   170A      1.528271   171A      1.537487  
     172A      1.551829   173A      1.554380   174A      1.570623  
     175A      1.586651   176A      1.598233   177A      1.613150  
     178A      1.616923   179A      1.635172   180A      1.648587  
     181A      1.665703   182A      1.675876   183A      1.695692  
     184A      1.698693   185A      1.731197   186A      1.758487  
     187A      1.765527   188A      1.966582   189A      2.026781  
     190A      2.090735   191A      2.148644   192A      2.318567  
     193A      2.341215   194A      2.421219   195A      2.441256  
     196A      2.454626   197A      2.469984   198A      2.483640  
     199A      2.520984   200A      2.536226   201A      2.566316  
     202A      2.568209   203A      2.599080   204A      2.616813  
     205A      2.625356   206A      2.640151   207A      2.659609  
     208A      2.665154   209A      2.672978   210A      2.686752  
     211A      2.704705   212A      2.715644   213A      2.723838  
     214A      2.727106   215A      2.740542   216A      2.751547  
     217A      2.760582   218A      2.772744   219A      2.788831  
     220A      2.801004   221A      2.803037   222A      2.808267  
     223A      2.820121   224A      2.841936   225A      2.852334  
     226A      2.854924   227A      2.868083   228A      2.882278  
     229A      2.898313   230A      2.904451   231A      2.906533  
     232A      2.920526   233A      2.926386   234A      2.930773  
     235A      2.953175   236A      2.962118   237A      2.972089  
     238A      2.978720   239A      2.995133   240A      2.999910  
     241A      3.014803   242A      3.032073   243A      3.043431  
     244A      3.057685   245A      3.061913   246A      3.071508  
     247A      3.079827   248A      3.083256   249A      3.116556  
     250A      3.132098   251A      3.148565   252A      3.161233  
     253A      3.170380   254A      3.194605   255A      3.209773  
     256A      3.216835   257A      3.226292   258A      3.233778  
     259A      3.252526   260A      3.262578   261A      3.289693  
     262A      3.297420   263A      3.311609   264A      3.328879  
     265A      3.341190   266A      3.355472   267A      3.359487  
     268A      3.390125   269A      3.396304   270A      3.403043  
     271A      3.418935   272A      3.422386   273A      3.427424  
     274A      3.436652   275A      3.442491   276A      3.449183  
     277A      3.456678   278A      3.462181   279A      3.464425  
     280A      3.471469   281A      3.474472   282A      3.480473  
     283A      3.492028   284A      3.495308   285A      3.507585  
     286A      3.518284   287A      3.531769   288A      3.533831  
     289A      3.542670   290A      3.547618   291A      3.561978  
     292A      3.573119   293A      3.576891   294A      3.578767  
     295A      3.589872   296A      3.595982   297A      3.606788  
     298A      3.613080   299A      3.622661   300A      3.625439  
     301A      3.631699   302A      3.635709   303A      3.638399  
     304A      3.640048   305A      3.652627   306A      3.661837  
     307A      3.671840   308A      3.680169   309A      3.690900  
     310A      3.696004   311A      3.699989   312A      3.720482  
     313A      3.726300   314A      3.742493   315A      3.745643  
     316A      3.750872   317A      3.767216   318A      3.780234  
     319A      3.789220   320A      3.800578   321A      3.810764  
     322A      3.827702   323A      3.842343   324A      3.847318  
     325A      3.861735   326A      3.872809   327A      3.874548  
     328A      3.891052   329A      3.901698   330A      3.909090  
     331A      3.915825   332A      3.929811   333A      3.932137  
     334A      3.951447   335A      3.952808   336A      3.984485  
     337A      3.993496   338A      4.003702   339A      4.024118  
     340A      4.034092   341A      4.049164   342A      4.062192  
     343A      4.069084   344A      4.079974   345A      4.085198  
     346A      4.100442   347A      4.103912   348A      4.107186  
     349A      4.116190   350A      4.126199   351A      4.136356  
     352A      4.150217   353A      4.159754   354A      4.168121  
     355A      4.174088   356A      4.184346   357A      4.194171  
     358A      4.199917   359A      4.210539   360A      4.220282  
     361A      4.231393   362A      4.237667   363A      4.244081  
     364A      4.252474   365A      4.258620   366A      4.265479  
     367A      4.270197   368A      4.285042   369A      4.287172  
     370A      4.303031   371A      4.318654   372A      4.329872  
     373A      4.347792   374A      4.354666   375A      4.368037  
     376A      4.377889   377A      4.385982   378A      4.391668  
     379A      4.405867   380A      4.417305   381A      4.425231  
     382A      4.442707   383A      4.447515   384A      4.456539  
     385A      4.467700   386A      4.480175   387A      4.488022  
     388A      4.494704   389A      4.504735   390A      4.517470  
     391A      4.519997   392A      4.529842   393A      4.542122  
     394A      4.549568   395A      4.558885   396A      4.564682  
     397A      4.581402   398A      4.597886   399A      4.602844  
     400A      4.611649   401A      4.633077   402A      4.641483  
     403A      4.656573   404A      4.670092   405A      4.677253  
     406A      4.702263   407A      4.714977   408A      4.719931  
     409A      4.734623   410A      4.752172   411A      4.773674  
     412A      4.776964   413A      4.791225   414A      4.812125  
     415A      4.825504   416A      4.835908   417A      4.848433  
     418A      4.863172   419A      4.866809   420A      4.895965  
     421A      4.917564   422A      4.929902   423A      4.938777  
     424A      4.976286   425A      5.014986   426A      5.030551  
     427A      5.056891   428A      5.060260   429A      5.083716  
     430A      5.109611   431A      5.126802   432A      5.143049  
     433A      5.152359   434A      5.365820   435A      5.413665  
     436A      5.443316   437A      5.597791   438A      5.625822  
     439A      5.651680   440A      5.654020   441A      5.673091  
     442A      5.709572   443A      5.727830   444A      5.746633  
     445A      5.878481   446A      5.880201   447A      5.954036  
     448A      6.032239   449A      6.795600   450A      6.833822  
     451A      6.953260   452A      6.971990   453A      7.121966  
     454A      7.164221   455A      7.279327   456A      7.450138  
     457A      7.669789   458A      7.691926   459A      8.429626  
     460A      8.589376   461A      8.620947   462A      8.888314  
     463A      8.971879   464A     11.176473  

    Final Occupation by Irrep:
              A 
    DOCC [    33 ]

  Energy converged.

  @DF-RHF Final Energy:  -348.39640764420579

   => Energetics <=

    Nuclear Repulsion Energy =            324.1111987177899323
    One-Electron Energy =               -1114.7770643713156460
    Two-Electron Energy =                 442.2694580093201466
    DFT Exchange-Correlation Energy =       0.0000000000000000
    Empirical Dispersion Energy =           0.0000000000000000
    PCM Polarization Energy =               0.0000000000000000
    EFP Energy =                            0.0000000000000000
    Total Energy =                       -348.3964076442056239


  Saving occupied orbitals to File 180.

*** tstop() called on cx1-27-1-2 at Sun Sep 11 00:42:13 2016
Module time:
	user time   =      65.90 seconds =       1.10 minutes
	system time =       1.20 seconds =       0.02 minutes
	total time  =         19 seconds =       0.32 minutes
Total time:
	user time   =     191.30 seconds =       3.19 minutes
	system time =       3.55 seconds =       0.06 minutes
	total time  =         54 seconds =       0.90 minutes


Properties will be evaluated at   0.000000,   0.000000,   0.000000 Bohr

Properties computed using the SCF density matrix

  Nuclear Dipole Moment: (a.u.)
     X:     8.2342      Y:    -5.4382      Z:     1.3041

  Electronic Dipole Moment: (a.u.)
     X:    -7.6189      Y:     4.4319      Z:    -1.1630

  Dipole Moment: (a.u.)
     X:     0.6153      Y:    -1.0063      Z:     0.1411     Total:     1.1879

  Dipole Moment: (Debye)
     X:     1.5640      Y:    -2.5577      Z:     0.3586     Total:     3.0194


*** tstart() called on cx1-27-1-2
*** at Sun Sep 11 00:42:13 2016


         ------------------------------------------------------------
                                   SCF GRAD                          
                          Rob Parrish, Justin Turney,                
                       Andy Simmonett, and Alex Sokolov              
         ------------------------------------------------------------

  ==> Geometry <==

    Molecular point group: c1
    Full point group: C1

    Geometry (in Angstrom), charge = 0, multiplicity = 1:

       Center              X                  Y                   Z               Mass       
    ------------   -----------------  -----------------  -----------------  -----------------
           H         -2.887784929961     2.821739298217    -1.504653112499     1.007825032070
           O         -3.379524394729     2.844882938363    -0.617675921673    15.994914619560
           C         -3.209242158133     1.170040841944     0.275841237605    12.000000000000
           C         -1.621505010075     0.539812135315     0.970900659751    12.000000000000
           H         -3.991087340067     0.143548041725    -0.446844999858     1.007825032070
           H         -3.688612499709     1.464444875586     1.322693352074     1.007825032070
           C         -0.855989753264    -0.089162211932    -0.365353290230    12.000000000000
           H         -0.962952931035     1.634006222481     1.707575254303     1.007825032070
           H         -1.643789759486    -0.579310290851     1.857026707825     1.007825032070
           C          0.725565557179    -0.730057369685     0.381889394006    12.000000000000
           H         -0.820471251629     1.013506846219    -1.260973555375     1.007825032070
           H         -1.512693054149    -1.187187801497    -1.097504079045     1.007825032070
           C          1.486439954603    -1.357545220109    -0.958843751397    12.000000000000
           H          1.372581940348     0.367267035531     1.118469117057     1.007825032070
           H          0.708289952491    -1.843036347435     1.272348452453     1.007825032070
           C          3.040887392730    -2.115031150127    -0.254974498681    12.000000000000
           H          1.538599742538    -0.227164649546    -1.819243080478     1.007825032070
           H          0.793555949221    -2.401731061340    -1.728293445493     1.007825032070
           C          4.199305792198    -0.721612774791     0.656752809699    12.000000000000
           H          3.404187514171    -2.683948835347    -1.302566260597     1.007825032070
           H          2.994700464123    -3.243788749267     0.606457130007     1.007825032070
           H          4.265760525111     0.428836032790    -0.170633230988     1.007825032070
           H          5.287274261063    -1.318740857786     1.048924660467     1.007825032070
           H          3.943237748992    -0.203924117026     1.791430228313     1.007825032070

  Nuclear repulsion =  324.111198717789932

  ==> Basis Set <==

  Basis Set: CC-PVTZ
    Number of shells: 176
    Number of basis function: 464
    Number of Cartesian functions: 520
    Spherical Harmonics?: true
    Max angular momentum: 3

  ==> DFJKGrad: Density-Fitted SCF Gradients <==

    Gradient:                    1
    J tasked:                  Yes
    K tasked:                  Yes
    wK tasked:                  No
    OpenMP threads:              4
    Integrals threads:           4
    Memory (MB):              1430
    Schwarz Cutoff:          0E+00
    Fitting Condition:       1E-12

   => Auxiliary Basis Set <=

  Basis Set: 
    Number of shells: 360
    Number of basis function: 1112
    Number of Cartesian functions: 1328
    Spherical Harmonics?: true
    Max angular momentum: 4


  -Total Gradient:
     Atom            X                  Y                   Z
    ------   -----------------  -----------------  -----------------
       1        0.029494999192     0.008029237405    -0.059801660553
       2       -0.045852936865     0.090139269748     0.005804905545
       3        0.026772626327     0.007520726293    -0.036870290124
       4        0.001062326054     0.010260809998     0.019950384905
       5       -0.059698887699    -0.079605829519    -0.048922145005
       6       -0.005144110413     0.008190149805     0.066522572189
       7       -0.009424466648    -0.012757070917    -0.017777117257
       8        0.044891934769     0.078552797940     0.060050836982
       9        0.016618707734    -0.085480786466     0.057761098124
      10        0.007331193353     0.012840628779     0.017494633128
      11       -0.011849499535     0.083555233069    -0.059745845539
      12       -0.041841783447    -0.079390230307    -0.059125254698
      13       -0.008184382643    -0.012371728558    -0.014428853996
      14        0.042299117951     0.080018974095     0.060362092599
      15        0.014397740153    -0.084276809636     0.058442242165
      16        0.003671146125     0.019920977419     0.021980650755
      17       -0.013207538780     0.086989446566    -0.055668683113
      18       -0.044764311784    -0.074153826794    -0.061388066241
      19       -0.022883895751    -0.015566591587    -0.008339948668
      20       -0.004352790659    -0.044737824772    -0.067014947251
      21        0.011598519978    -0.086204512054     0.054493901717
      22       -0.005004892458     0.089455404653    -0.054376204606
      23        0.065472971792    -0.041928075170     0.046114391315
      24        0.008598213251     0.040999630013     0.074481307625


*** tstop() called on cx1-27-1-2 at Sun Sep 11 00:42:30 2016
Module time:
	user time   =      64.65 seconds =       1.08 minutes
	system time =       0.93 seconds =       0.02 minutes
	total time  =         17 seconds =       0.28 minutes
Total time:
	user time   =     256.07 seconds =       4.27 minutes
	system time =       4.48 seconds =       0.07 minutes
	total time  =         71 seconds =       1.18 minutes

			-----------------------------------------
			 OPTKING 2.0: for geometry optimizations 
			  - R.A. King,  Bethel University        
			-----------------------------------------

	Previous internal coordinate definitions found.
	---Fragment 1 Geometry and Gradient---
	 H          -5.4571226483        5.3323144920       -2.8433823076
	 O          -6.3863755654        5.3760496336       -1.1672383308
	 C          -6.0645887730        2.2110567556        0.5212643952
	 C          -3.0642003921        1.0200970990        1.8347363492
	 H          -7.5420620452        0.2712664858       -0.8444146736
	 H          -6.9704674348        2.7673997516        2.4995281932
	 C          -1.6175862062       -0.1684921620       -0.6904176603
	 H          -1.8197173185        3.0878242599        3.2268495819
	 H          -3.1063124655       -1.0947377957        3.5092718992
	 C           1.3711201945       -1.3796084900        0.7216663677
	 H          -1.5504659655        1.9152503732       -2.3828946805
	 H          -2.8585755955       -2.2434598131       -2.0739821391
	 C           2.8089644272       -2.5653886790       -1.8119520944
	 H           2.5938039622        0.6940341148        2.1136003193
	 H           1.3384740329       -3.4828339496        2.4043901207
	 C           5.7464443732       -3.9968296363       -0.4818319734
	 H           2.9075321415       -0.4292789747       -3.4378711913
	 H           1.4996034152       -4.5386139508       -3.2660012892
	 C           7.9355378955       -1.3636505183        1.2410829473
	 H           6.4329821068       -5.0719282535       -2.4614935025
	 H           5.6591637272       -6.1298723691        1.1460378870
	 H           8.0611191409        0.8103826579       -0.3224500757
	 H           9.9915003429       -2.4920590615        1.9821803423
	 H           7.4516394225       -0.3853607331        3.3853125177
	             0.0294949992        0.0080292374       -0.0598016606
	            -0.0458529369        0.0901392697        0.0058049055
	             0.0267726263        0.0075207263       -0.0368702901
	             0.0010623261        0.0102608100        0.0199503849
	            -0.0596988877       -0.0796058295       -0.0489221450
	            -0.0051441104        0.0081901498        0.0665225722
	            -0.0094244666       -0.0127570709       -0.0177771173
	             0.0448919348        0.0785527979        0.0600508370
[...]
	 D(17,13,16,19)   =         0.996034	      57.068561
	 D(17,13,16,20)   =        -1.126738	     -64.557309
	 D(17,13,16,21)   =        -3.137606	    -179.771590
	 D(18,13,16,19)   =         3.007105	     172.294452
	 D(18,13,16,20)   =         0.884334	      50.668582
	 D(18,13,16,21)   =        -1.126535	     -64.545699
	 D(20,16,19,22)   =         1.133412	      64.939730
	 D(20,16,19,23)   =        -0.953275	     -54.618642
	 D(20,16,19,24)   =        -3.046160	    -174.532117
	 D(21,16,19,22)   =        -3.134862	    -179.614359
	 D(21,16,19,23)   =         1.061636	      60.827270
	 D(21,16,19,24)   =        -1.031249	     -59.086206

	Current energy   :      -349.3797491234

	Energy change for the previous step:
		Projected    :        -0.0000026179
		Actual       :        -0.0000007998

	Performing BFGS update.
	Previous computed or guess Hessian on step 1.
	Steps to be used in Hessian update: 11 10
	Taking RFO optimization step.
	Going to follow RFO solution 1.
	Using RFO vector 1.
	Norm of target step-size    0.01651
	Projected energy change by RFO approximation:        -0.0000003139

	Back-transformation to cartesian coordinates...
	Could not converge backtransformation.
	Using first guess instead.

	Back-transformation to cartesian coordinates to adjust frozen coordinates...
	Successfully converged to displaced geometry.

	--- Internal Coordinate Step in ANG or DEG, aJ/ANG or AJ/DEG ---
	 ---------------------------------------------------------------------------
	   Coordinate                Previous        Force       Change         New 
	   ----------                --------       ------       ------       ------
	    1 R(1,2)          =      0.939094    -0.000013    -0.000006     0.939088
	    2 R(2,3)          =      1.402493    -0.000254    -0.000060     1.402433
	    3 R(3,4)          =      1.521182    -0.000161    -0.000010     1.521172
	    4 R(3,5)          =      1.088643     0.000076     0.000070     1.088713
	    5 R(3,6)          =      1.081761    -0.000080    -0.000001     1.081760
	    6 R(4,7)          =      1.527397     0.000065    -0.000003     1.527394
	    7 R(4,8)          =      1.085953    -0.000130     0.000033     1.085987
	    8 R(4,9)          =      1.087066    -0.000259    -0.000030     1.087036
	    9 R(7,10)         =      1.526928    -0.000129    -0.000014     1.526915
	   10 R(7,11)         =      1.087794    -0.000241    -0.000024     1.087770
	   11 R(7,12)         =      1.087688    -0.000208     0.000006     1.087694
	   12 R(10,13)        =      1.527372    -0.000003    -0.000008     1.527364
	   13 R(10,14)        =      1.085242    -0.000304     0.000006     1.085248
	   14 R(10,15)        =      1.087591    -0.000247    -0.000025     1.087566
	   15 R(13,16)        =      1.529711     0.000147     0.000012     1.529722
	   16 R(13,17)        =      1.087819    -0.000193    -0.000012     1.087807
	   17 R(13,18)        =      1.086672    -0.000068     0.000020     1.086692
	   18 R(16,19)        =      1.526835    -0.000315    -0.000022     1.526813
	   19 R(16,20)        =      1.085667    -0.000228     0.000004     1.085671
	   20 R(16,21)        =      1.086865    -0.000094     0.000012     1.086877
	   21 R(19,22)        =      1.085374    -0.000023    -0.000016     1.085359
	   22 R(19,23)        =      1.083992    -0.000141    -0.000017     1.083975
	   23 R(19,24)        =      1.083304    -0.000307     0.000007     1.083311
	   24 B(1,2,3)        =    110.294512     0.000000    -0.011719   110.282793
	   25 B(2,3,4)        =    113.942387    -0.000000    -0.004405   113.937982
	   26 B(2,3,5)        =    110.301505    -0.000000     0.003619   110.305124
	   27 B(2,3,6)        =    105.596521     0.000001    -0.001537   105.594984
	   28 B(3,4,7)        =    114.468846    -0.000000    -0.006846   114.462000
	   29 B(3,4,8)        =    108.664805    -0.000002    -0.001573   108.663232
	   30 B(3,4,9)        =    107.750197     0.000001     0.003173   107.753370
	   31 B(4,3,5)        =    110.290531    -0.000001    -0.004280   110.286251
	   32 B(4,3,6)        =    109.422537     0.000001     0.003758   109.426295
	   33 B(4,7,10)       =    113.097274     0.000001    -0.001645   113.095629
	   34 B(4,7,11)       =    110.027536    -0.000000    -0.001179   110.026357
	   35 B(4,7,12)       =    109.306114     0.000000     0.000893   109.307007
	   36 B(5,3,6)        =    106.955165    -0.000000     0.003563   106.958729
	   37 B(7,4,8)        =    109.773630     0.000001     0.001304   109.774933
	   38 B(7,4,9)        =    109.053870    -0.000001     0.003560   109.057430
	   39 B(7,10,13)      =    113.040753     0.000000    -0.004376   113.036377
	   40 B(7,10,14)      =    108.836356    -0.000002    -0.001242   108.835114
	   41 B(7,10,15)      =    109.114543     0.000000     0.001979   109.116521
	   42 B(8,4,9)        =    106.842466    -0.000000     0.000889   106.843356
	   43 B(10,7,11)      =    108.413081     0.000000     0.006267   108.419348
	   44 B(10,7,12)      =    109.331498    -0.000001    -0.001217   109.330281
	   45 B(10,13,16)     =    114.820345     0.000005     0.004947   114.825292
	   46 B(10,13,17)     =    109.293327    -0.000003    -0.001209   109.292118
	   47 B(10,13,18)     =    108.638498    -0.000001    -0.002869   108.635630
	   48 B(11,7,12)      =    106.445132    -0.000000    -0.003215   106.441916
	   49 B(13,10,14)     =    110.072526     0.000002     0.005618   110.078145
	   50 B(13,10,15)     =    109.205904    -0.000001    -0.002299   109.203605
	   51 B(13,16,19)     =    114.705017     0.000004     0.002671   114.707688
	   52 B(13,16,20)     =    108.388777    -0.000002    -0.007391   108.381386
	   53 B(13,16,21)     =    109.224733     0.000000     0.009125   109.233859
	   54 B(14,10,15)     =    106.347187     0.000000     0.000610   106.347797
	   55 B(16,13,17)     =    109.127419     0.000001     0.009894   109.137313
	   56 B(16,13,18)     =    108.449061    -0.000003    -0.009975   108.439086
	   57 B(16,19,22)     =    111.015718     0.000001     0.004615   111.020333
	   58 B(16,19,23)     =    110.742622    -0.000001    -0.002008   110.740614
	   59 B(16,19,24)     =    112.022691     0.000000     0.003634   112.026324
	   60 B(17,13,18)     =    106.156966     0.000001    -0.001422   106.155544
	   61 B(19,16,20)     =    108.675267    -0.000002    -0.011255   108.664013
	   62 B(19,16,21)     =    109.364888    -0.000001     0.004333   109.369221
	   63 B(20,16,21)     =    106.131020     0.000001     0.002262   106.133281
	   64 B(22,19,23)     =    107.675939    -0.000001    -0.008342   107.667597
	   65 B(22,19,24)     =    107.764220    -0.000000     0.000016   107.764236
	   66 B(23,19,24)     =    107.429610     0.000000     0.001568   107.431178
	   67 D(1,2,3,4)      =     54.668216    -0.000000    -0.006148    54.662069
	   68 *D(1,2,3,5)     =    -69.999989    -0.000000    -0.000000   -69.999989
	   69 D(1,2,3,6)      =    174.780280     0.000000    -0.005088   174.775193
	   70 D(2,3,4,7)      =    -66.260044     0.000000     0.063819   -66.196225
	   71 D(2,3,4,8)      =     56.835839     0.000000     0.059526    56.895365
	   72 D(2,3,4,9)      =    172.255371     0.000000     0.061430   172.316800
	   73 D(3,4,7,10)     =   -177.572597    -0.000000    -0.087390  -177.659987
	   74 D(3,4,7,11)     =     61.031261    -0.000000    -0.093469    60.937792
	   75 D(3,4,7,12)     =    -55.518009    -0.000000    -0.089425   -55.607434
	   76 D(4,7,10,13)    =   -179.569417    -0.000000    -0.009342  -179.578759
	   77 D(4,7,10,14)    =    -56.943201     0.000000    -0.006010   -56.949211
	   78 D(4,7,10,15)    =     58.712496    -0.000000    -0.004887    58.707610
	   79 D(5,3,4,7)      =     58.414029    -0.000000     0.061896    58.475925
	   80 D(5,3,4,8)      =   -178.490088     0.000000     0.057603  -178.432485
	   81 D(5,3,4,9)      =    -63.070557    -0.000000     0.059507   -63.011050
	   82 D(6,3,4,7)      =    175.803836    -0.000000     0.065968   175.869803
	   83 D(6,3,4,8)      =    -61.100282     0.000000     0.061675   -61.038607
	   84 D(6,3,4,9)      =     54.319250    -0.000000     0.063578    54.382828
	   85 D(7,10,13,16)   =   -176.498350     0.000000     0.118459  -176.379892
	   86 D(7,10,13,17)   =     60.517809    -0.000000     0.102840    60.620649
	   87 D(7,10,13,18)   =    -54.900095     0.000000     0.106755   -54.793340
	   88 D(8,4,7,10)     =     59.931437     0.000000    -0.081427    59.850009
	   89 D(8,4,7,11)     =    -61.464705     0.000000    -0.087506   -61.552212
	   90 D(8,4,7,12)     =   -178.013975     0.000000    -0.083463  -178.097438
	   91 D(9,4,7,10)     =    -56.806307     0.000000    -0.085292   -56.891599
	   92 D(9,4,7,11)     =   -178.202449    -0.000000    -0.091371  -178.293820
	   93 D(9,4,7,12)     =     65.248281     0.000000    -0.087327    65.160954
	   94 D(10,13,16,19)  =    -66.004201    -0.000000    -0.274245   -66.278446
	   95 D(10,13,16,20)  =    172.369929    -0.000000    -0.256015   172.113914
	   96 D(10,13,16,21)  =     57.155647    -0.000000    -0.259540    56.896108
	   97 D(11,7,10,13)   =    -57.267181    -0.000000    -0.007453   -57.274634
	   98 D(11,7,10,14)   =     65.359035     0.000000    -0.004121    65.354914
	   99 D(11,7,10,15)   =   -178.985267     0.000000    -0.002998  -178.988265
	  100 D(12,7,10,13)   =     58.390209    -0.000000    -0.008488    58.381721
	  101 D(12,7,10,14)   =   -178.983575     0.000000    -0.005156  -178.988730
	  102 D(12,7,10,15)   =    -63.327877    -0.000000    -0.004033   -63.331910
	  103 D(13,16,19,22)  =    -56.529715     0.000000     0.103592   -56.426123
	  104 D(13,16,19,23)  =   -176.088087     0.000000     0.112362  -175.975724
	  105 D(13,16,19,24)  =     63.998438     0.000000     0.109312    64.107750
	  106 D(14,10,13,16)  =     61.566674     0.000000     0.119009    61.685684
	  107 D(14,10,13,17)  =    -61.417166    -0.000000     0.103391   -61.313775
	  108 D(14,10,13,18)  =   -176.835070     0.000000     0.107306  -176.727764
	  109 D(15,10,13,16)  =    -54.831678     0.000000     0.116405   -54.715273
	  110 D(15,10,13,17)  =   -177.815518    -0.000000     0.100787  -177.714732
	  111 D(15,10,13,18)  =     66.766578     0.000000     0.104701    66.871279
	  112 D(17,13,16,19)  =     57.068561    -0.000000    -0.264597    56.803964
	  113 D(17,13,16,20)  =    -64.557309     0.000000    -0.246367   -64.803676
	  114 D(17,13,16,21)  =   -179.771590    -0.000000    -0.249892  -180.021482
	  115 D(18,13,16,19)  =    172.294452    -0.000000    -0.266410   172.028042
	  116 D(18,13,16,20)  =     50.668582    -0.000000    -0.248179    50.420402
	  117 D(18,13,16,21)  =    -64.545699    -0.000000    -0.251705   -64.797404
	  118 D(20,16,19,22)  =     64.939730    -0.000000     0.087451    65.027181
	  119 D(20,16,19,23)  =    -54.618642     0.000000     0.096221   -54.522420
	  120 D(20,16,19,24)  =   -174.532117     0.000000     0.093171  -174.438946
	  121 D(21,16,19,22)  =   -179.614359    -0.000000     0.086298  -179.528061
	  122 D(21,16,19,23)  =     60.827270    -0.000000     0.095069    60.922338
	  123 D(21,16,19,24)  =    -59.086206    -0.000000     0.092019   -58.994188
	 ---------------------------------------------------------------------------
	Successfully symmetrized geometry.

  ==> Convergence Check <==

  Measures of convergence in internal coordinates in au.
  Criteria marked as inactive (o), active & met (*), and active & unmet ( ).
  ---------------------------------------------------------------------------------------------
   Step     Total Energy     Delta E     MAX Force     RMS Force      MAX Disp      RMS Disp   
  ---------------------------------------------------------------------------------------------
    Convergence Criteria    1.00e-06 *    3.00e-04 *             o    1.20e-03 *             o
  ---------------------------------------------------------------------------------------------
     12    -349.37974912   -8.00e-07 *    6.09e-05 *    1.64e-05 o    4.79e-03      1.49e-03 o  ~
  ---------------------------------------------------------------------------------------------


  **** Optimization is complete! (in 12 steps) ****

  ==> Optimization Summary <==

  Measures of convergence in internal coordinates in au.
  --------------------------------------------------------------------------------------------------------------- ~
   Step         Total Energy             Delta E       MAX Force       RMS Force        MAX Disp        RMS Disp  ~
  --------------------------------------------------------------------------------------------------------------- ~
      1    -349.377767951477   -349.377767951477      0.01006128      0.00198358      0.94963572      0.29026513  ~
      2    -348.396407644206      0.981360307271      0.11304315      0.04292148      0.12989736      0.04500921  ~
      3    -348.627173339835     -0.230765695630      0.11396099      0.04039879      0.25471511      0.08518240  ~
      4    -349.013780713962     -0.386607374127      0.10662555      0.03262890      0.26450483      0.08112960  ~
      5    -349.279396577411     -0.265615863449      0.07713518      0.01944710      0.21818809      0.04741106  ~
      6    -349.359858517473     -0.080461940062      0.03861465      0.00910978      0.17245427      0.04388269  ~
      7    -349.376565196399     -0.016706678926      0.01689662      0.00415119      0.06858641      0.01918986  ~
      8    -349.379363074021     -0.002797877623      0.01006131      0.00144585      0.03243690      0.00987948  ~
      9    -349.379724076594     -0.000361002573      0.00121192      0.00031461      0.02199872      0.00521719  ~
     10    -349.379746923141     -0.000022846547      0.00030710      0.00006514      0.01002776      0.00387755  ~
     11    -349.379748323556     -0.000001400416      0.00011220      0.00003140      0.00562119      0.00241808  ~
     12    -349.379749123365     -0.000000799809      0.00006091      0.00001635      0.00478648      0.00148868  ~
  --------------------------------------------------------------------------------------------------------------- ~

	Writing optimization data to binary file.
	Final energy is   -349.3797491233651
	Final (previous) structure:
	Cartesian Geometry (in Angstrom)
	    H    -2.5810454713   1.9734372648  -0.6269098225
	    O    -3.0923993434   1.9762139453   0.1607491953
	    C    -3.0105719348   0.7296601701   0.7982396028
	    C    -1.5872912343   0.2726568361   1.0800447177
	    H    -3.5422291194  -0.0251819944   0.2214409591
	    H    -3.5429049169   0.8454315453   1.7328118795
	    C    -0.7594460063  -0.0248956019  -0.1685846515
	    H    -1.0907070447   1.0310804580   1.6779515949
	    H    -1.6422061244  -0.6244415224   1.6915278465
	    C     0.6432052324  -0.5369158284   0.1506569925
	    H    -0.6675601317   0.8720626977  -0.7771234065
	    H    -1.2804863134  -0.7590688324  -0.7789714289
	    C     1.4734879426  -0.8241120419  -1.0987485475
	    H     1.1491121110   0.1929777557   0.7744063120
	    H     0.5643811403  -1.4447636738   0.7443351368
	    C     2.8566313174  -1.4187311431  -0.8279030544
	    H     1.5858774258   0.0922434324  -1.6740838020
	    H     0.9210352881  -1.5129701380  -1.7320934046
	    C     3.8220956315  -0.4842952923  -0.1026903459
	    H     3.2979233108  -1.7058075829  -1.7773879435
	    H     2.7459323379  -2.3366463291  -0.2565415940
	    H     3.9472123369   0.4457194171  -0.6480854998
	    H     4.7995459653  -0.9426605544  -0.0050650371
	    H     3.4777428256  -0.2388151395   0.8946606812
	Saving final (previous) structure.
			--------------------------
			 OPTKING Finished Execution 
			--------------------------

    Final optimized geometry and variables:
    Molecular point group: c1
    Full point group: C1

    Geometry (in Angstrom), charge = 0, multiplicity = 1:

    H           -2.581045471256     1.973437264812    -0.626909822518
    O           -3.092399343400     1.976213945289     0.160749195335
    C           -3.010571934847     0.729660170112     0.798239602828
    C           -1.587291234277     0.272656836118     1.080044717706
    H           -3.542229119443    -0.025181994392     0.221440959082
    H           -3.542904916895     0.845431545303     1.732811879535
    C           -0.759446006342    -0.024895601910    -0.168584651469
    H           -1.090707044741     1.031080458033     1.677951594917
    H           -1.642206124367    -0.624441522396     1.691527846465
    C            0.643205232446    -0.536915828430     0.150656992474
    H           -0.667560131693     0.872062697708    -0.777123406458
    H           -1.280486313371    -0.759068832399    -0.778971428914
    C            1.473487942567    -0.824112041879    -1.098748547547
    H            1.149112110995     0.192977755697     0.774406311981
    H            0.564381140339    -1.444763673752     0.744335136810
    C            2.856631317355    -1.418731143137    -0.827903054409
    H            1.585877425787     0.092243432371    -1.674083802024
    H            0.921035288110    -1.512970137985    -1.732093404638
    C            3.822095631541    -0.484295292251    -0.102690345872
    H            3.297923310817    -1.705807582869    -1.777387943518
    H            2.745932337880    -2.336646329054    -0.256541593954
    H            3.947212336928     0.445719417111    -0.648085499775
    H            4.799545965346    -0.942660554393    -0.005065037091
    H            3.477742825587    -0.238815139477     0.894660681213

	Cleaning optimization helper files.


Properties will be evaluated at   0.000000,   0.000000,   0.000000 Bohr

Properties computed using the  density matrix

  Nuclear Dipole Moment: (a.u.)
     X:     7.6177      Y:    -3.8692      Z:    -0.5046

  Electronic Dipole Moment: (a.u.)
     X:    -7.1563      Y:     3.2975      Z:     0.3055

  Dipole Moment: (a.u.)
     X:     0.4614      Y:    -0.5717      Z:    -0.1992     Total:     0.7611

  Dipole Moment: (Debye)
     X:     1.1727      Y:    -1.4530      Z:    -0.5062     Total:     1.9346

  Quadrupole Moment: (Debye Ang)
    XX:   -60.1102     YY:   -57.4492     ZZ:   -52.0197
    XY:     6.1917     XZ:     0.5722     YZ:    -2.1293

  Traceless Quadrupole Moment: (Debye Ang)
    XX:    -3.5838     YY:    -0.9228     ZZ:     4.5066
    XY:     6.1917     XZ:     0.5722     YZ:    -2.1293

  Mulliken Charges: (a.u.)
   Center  Symbol    Alpha    Beta     Spin     Total
       1     H     0.39192  0.39192  0.00000  0.21617
       2     O     4.20600  4.20600  0.00000 -0.41200
       3     C     2.97239  2.97239  0.00000  0.05523
       4     C     3.09621  3.09621  0.00000 -0.19241
       5     H     0.47233  0.47233  0.00000  0.05534
       6     H     0.45095  0.45095  0.00000  0.09810
       7     C     3.09761  3.09761  0.00000 -0.19521
       8     H     0.44941  0.44941  0.00000  0.10118
       9     H     0.45545  0.45545  0.00000  0.08909
      10     C     3.09228  3.09228  0.00000 -0.18456
      11     H     0.46116  0.46116  0.00000  0.07767
      12     H     0.45120  0.45120  0.00000  0.09759
      13     C     3.09490  3.09490  0.00000 -0.18981
      14     H     0.45055  0.45055  0.00000  0.09890
      15     H     0.45350  0.45350  0.00000  0.09301
      16     C     3.09057  3.09057  0.00000 -0.18114
      17     H     0.45422  0.45422  0.00000  0.09156
      18     H     0.44965  0.44965  0.00000  0.10070
      19     C     3.15249  3.15249  0.00000 -0.30499
      20     H     0.44822  0.44822  0.00000  0.10355
      21     H     0.45456  0.45456  0.00000  0.09088
      22     H     0.45474  0.45474  0.00000  0.09052
      23     H     0.44611  0.44611  0.00000  0.10778
      24     H     0.45358  0.45358  0.00000  0.09283

   Total alpha = 33.00000, Total beta = 33.00000, Total charge = -0.00000


*** Psi4 exiting successfully. Buy a developer a beer!
