    -----------------------------------------------------------------------
          Psi4: An Open-Source Ab Initio Electronic Structure Package
                              Psi4 (no tag) Driver

                          Git: Rev {detached?}  

    J. M. Turney, A. C. Simmonett, R. M. Parrish, E. G. Hohenstein,
    F. A. Evangelista, J. T. Fermann, B. J. Mintz, L. A. Burns, J. J. Wilke,
    M. L. Abrams, N. J. Russ, M. L. Leininger, C. L. Janssen, E. T. Seidl,
    W. D. Allen, H. F. Schaefer, R. A. King, E. F. Valeev, C. D. Sherrill,
    and T. D. Crawford, WIREs Comput. Mol. Sci. 2, 556-565 (2012)
    (doi: 10.1002/wcms.93)

                         Additional Contributions by
    A. E. DePrince, M. Saitow, U. Bozkaya, A. Yu. Sokolov
    -----------------------------------------------------------------------


    Psi4 started on: Thu Sep  1 22:18:57 2016

    Process ID:  26975
    PSI4DATADIR: /export131/home/mjharvey/miniconda3/share
    Memory level set to 256.000 MB

  ==> Input File <==

--------------------------------------------------------------------------
set {
	reference rhf
	basis 6-31G*
}


set_num_threads( 1 )
memory 2 gb

molecule MOL {
0 1

H	 3.647955	 0.596884	 1.492904
N	 2.825761	 0.025013	 1.515389
C	 1.724687	 0.676843	 0.820925
H	 2.597455	 -0.115697	 2.481260
C	 0.504594	 -0.236819	 0.772474
H	 2.053610	 0.889726	 -0.191670
H	 1.443099	 1.634280	 1.266370
C	 -0.679275	 0.379305	 0.025956
H	 0.795972	 -1.173651	 0.306341
H	 0.201545	 -0.480042	 1.790482
C	 -1.903357	 -0.536963	 -0.023547
H	 -0.376191	 0.625345	 -0.990633
H	 -0.956914	 1.321098	 0.496903
C	 -3.225172	 0.228290	 0.028445
H	 -1.867824	 -1.134999	 -0.931459
H	 -1.860449	 -1.239604	 0.805977
H	 -3.313397	 0.915643	 -0.808262
H	 -4.073500	 -0.448134	 -0.008893
H	 -3.306061	 0.809945	 0.942516

	symmetry c1
}
set optking {
	frozen_dihedral = ("
		6 3 5 9,
		12 8 5 9,
		1 2 3 6
	")
}

ee = energy('scf')
oeprop('DIPOLE', 'QUADRUPOLE', 'MULLIKEN_CHARGES')
f=open( 'psi4out.xyz', 'w' )
f.write( "19  " )
f.write( str(ee) + "\n" )
f.write( MOL.save_string_xyz() )
f.close()
--------------------------------------------------------------------------

  Memory set to   2.000 GiB by Python script.

*** tstart() called on cx1-3-6-2.cx1.hpc.ic.ac.uk
*** at Thu Sep  1 22:18:57 2016


         ---------------------------------------------------------
                                   SCF
            by Justin Turney, Rob Parrish, and Andy Simmonett
                              RHF Reference
                        1 Threads,   2000 MiB Core
         ---------------------------------------------------------

  ==> Geometry <==

    Molecular point group: c1
    Full point group: C1

    Geometry (in Angstrom), charge = 0, multiplicity = 1:

       Center              X                  Y                   Z               Mass       
    ------------   -----------------  -----------------  -----------------  -----------------
           H          3.744699104130     0.497048557735     0.948559400645     1.007825032070
           N          2.922505104130    -0.074822442265     0.971044400645    14.003074004780
           C          1.821431104130     0.577007557735     0.276580400645    12.000000000000
           H          2.694199104130    -0.215532442265     1.936915400645     1.007825032070
           C          0.601338104130    -0.336654442265     0.228129400645    12.000000000000
           H          2.150354104130     0.789890557735    -0.736014599355     1.007825032070
           H          1.539843104130     1.534444557735     0.722025400645     1.007825032070
           C         -0.582530895870     0.279469557735    -0.518388599355    12.000000000000
           H          0.892716104130    -1.273486442265    -0.238003599355     1.007825032070
           H          0.298289104130    -0.579877442265     1.246137400645     1.007825032070
           C         -1.806612895870    -0.636798442265    -0.567891599355    12.000000000000
           H         -0.279446895870     0.525509557735    -1.534977599355     1.007825032070
           H         -0.860169895870     1.221262557735    -0.047441599355     1.007825032070
           C         -3.128427895870     0.128454557735    -0.515899599355    12.000000000000
           H         -1.771079895870    -1.234834442265    -1.475803599355     1.007825032070
           H         -1.763704895870    -1.339439442265     0.261632400645     1.007825032070
           H         -3.216652895870     0.815807557735    -1.352606599355     1.007825032070
           H         -3.976755895870    -0.547969442265    -0.553237599355     1.007825032070
           H         -3.209316895870     0.710109557735     0.398171400645     1.007825032070

  Running in c1 symmetry.

  Rotational constants: A =      0.46609  B =      0.03856  C =      0.03768 [cm^-1]
  Rotational constants: A =  13972.97249  B =   1156.08427  C =   1129.50210 [MHz]
  Nuclear repulsion =  246.044731618564754

  Charge       = 0
  Multiplicity = 1
  Electrons    = 50
  Nalpha       = 25
  Nbeta        = 25

  ==> Algorithm <==

  SCF Algorithm Type is DF.
  DIIS enabled.
  MOM disabled.
  Fractional occupation disabled.
  Guess Type is CORE.
  Energy threshold   = 1.00e-06
  Density threshold  = 1.00e-06
  Integral threshold = 0.00e+00

  ==> Primary Basis <==

  Basis Set: 6-31G*
    Number of shells: 62
    Number of basis function: 116
    Number of Cartesian functions: 116
    Spherical Harmonics?: false
    Max angular momentum: 2

  ==> Pre-Iterations <==

   -------------------------------------------------------
    Irrep   Nso     Nmo     Nalpha   Nbeta   Ndocc  Nsocc
   -------------------------------------------------------
     A        116     116       0       0       0       0
   -------------------------------------------------------
    Total     116     116      25      25      25       0
   -------------------------------------------------------

 OEINTS: Overlap, kinetic, potential, dipole, and quadrupole integrals
         stored in file 35.

  ==> Integral Setup <==

  ==> DFJK: Density-Fitted J/K Matrices <==

    J tasked:                  Yes
    K tasked:                  Yes
    wK tasked:                  No
    OpenMP threads:              1
    Integrals threads:           1
    Memory (MB):              1430
    Algorithm:                Core
    Integral Cache:           NONE
    Schwarz Cutoff:          1E-12
    Fitting Condition:       1E-12

   => Auxiliary Basis Set <=

  Basis Set: 
    Number of shells: 261
    Number of basis function: 811
    Number of Cartesian functions: 811
    Spherical Harmonics?: false
    Max angular momentum: 3

  Minimum eigenvalue in the overlap matrix is 3.2371599940E-03.
  Using Symmetric Orthogonalization.
  SCF Guess: Core (One-Electron) Hamiltonian.

  ==> Iterations <==

                           Total Energy        Delta E     RMS |[F,P]|

   @DF-RHF iter   1:  -190.95067651200958   -1.90951e+02   7.07099e-02 
   @DF-RHF iter   2:   -93.74100712244791    9.72097e+01   8.73642e-02 DIIS
   @DF-RHF iter   3:  -179.28457483910279   -8.55436e+01   6.12657e-02 DIIS
   @DF-RHF iter   4:  -189.51949771764276   -1.02349e+01   5.48458e-02 DIIS
   @DF-RHF iter   5:  -223.54961520910882   -3.40301e+01   4.34503e-02 DIIS
   @DF-RHF iter   6:  -251.17718356552416   -2.76276e+01   4.76404e-03 DIIS
   @DF-RHF iter   7:  -251.31827701268867   -1.41093e-01   2.21803e-03 DIIS
   @DF-RHF iter   8:  -251.34573949691884   -2.74625e-02   4.82014e-04 DIIS
   @DF-RHF iter   9:  -251.34796770596841   -2.22821e-03   1.27086e-04 DIIS
   @DF-RHF iter  10:  -251.34815053713623   -1.82831e-04   3.91871e-05 DIIS
   @DF-RHF iter  11:  -251.34816609118485   -1.55540e-05   1.78159e-05 DIIS
   @DF-RHF iter  12:  -251.34816983907359   -3.74789e-06   5.35857e-06 DIIS
   @DF-RHF iter  13:  -251.34817013596586   -2.96892e-07   1.37080e-06 DIIS
   @DF-RHF iter  14:  -251.34817015995515   -2.39893e-08   3.58343e-07 DIIS

  ==> Post-Iterations <==

    Orbital Energies (a.u.)
    -----------------------

    Doubly Occupied:                                                      

       1A    -15.532400     2A    -11.239418     3A    -11.212923  
       4A    -11.211723     5A    -11.209669     6A    -11.207754  
       7A     -1.176506     8A     -1.072988     9A     -0.998013  
      10A     -0.900251    11A     -0.813756    12A     -0.788891  
      13A     -0.662989    14A     -0.642892    15A     -0.614986  
      16A     -0.589879    17A     -0.562350    18A     -0.555924  
      19A     -0.524166    20A     -0.500592    21A     -0.483391  
      22A     -0.464521    23A     -0.457046    24A     -0.448358  
      25A     -0.380886  

    Virtual:                                                              

      26A      0.228283    27A      0.236784    28A      0.266293  
      29A      0.274828    30A      0.283416    31A      0.311818  
      32A      0.323107    33A      0.324026    34A      0.332577  
      35A      0.338613    36A      0.352841    37A      0.362927  
      38A      0.364199    39A      0.401573    40A      0.431780  
      41A      0.455818    42A      0.474817    43A      0.494076  
      44A      0.708271    45A      0.726993    46A      0.745954  
      47A      0.765315    48A      0.776724    49A      0.810331  
      50A      0.826920    51A      0.879003    52A      0.910507  
      53A      0.941705    54A      0.963952    55A      0.987866  
      56A      1.012229    57A      1.031405    58A      1.070208  
      59A      1.098027    60A      1.113982    61A      1.148395  
      62A      1.155026    63A      1.176185    64A      1.181614  
      65A      1.185104    66A      1.206031    67A      1.217094  
      68A      1.227056    69A      1.235336    70A      1.238180  
      71A      1.255033    72A      1.258954    73A      1.276537  
      74A      1.318016    75A      1.382548    76A      1.491508  
      77A      1.601494    78A      1.661216    79A      1.725368  
      80A      1.735651    81A      1.815050    82A      1.837112  
      83A      1.939078    84A      2.024951    85A      2.106529  
      86A      2.128308    87A      2.195705    88A      2.214206  
      89A      2.249407    90A      2.278778    91A      2.280932  
      92A      2.338980    93A      2.348628    94A      2.392935  
      95A      2.431829    96A      2.463001    97A      2.569398  
      98A      2.608909    99A      2.650583   100A      2.682934  
     101A      2.705840   102A      2.754939   103A      2.761753  
     104A      2.812255   105A      2.878263   106A      2.929823  
     107A      2.958542   108A      3.032369   109A      3.154016  
     110A      3.190655   111A      4.219966   112A      4.573304  
     113A      4.664982   114A      4.767105   115A      4.874265  
     116A      4.996855  

    Final Occupation by Irrep:
              A 
    DOCC [    25 ]

  Energy converged.

  @DF-RHF Final Energy:  -251.34817015995515

   => Energetics <=

    Nuclear Repulsion Energy =            246.0447316185647537
    One-Electron Energy =                -826.2812630570521151
    Two-Electron Energy =                 328.8883612785317041
    DFT Exchange-Correlation Energy =       0.0000000000000000
    Empirical Dispersion Energy =           0.0000000000000000
    PCM Polarization Energy =               0.0000000000000000
    EFP Energy =                            0.0000000000000000
    Total Energy =                       -251.3481701599557141

    Alert: EFP and PCM quantities not currently incorporated into SCF psivars.

Properties will be evaluated at   0.000000,   0.000000,   0.000000 Bohr
  ==> Properties <==


Properties computed using the SCF density matrix

  Nuclear Dipole Moment: (a.u.)
     X:    -3.5306      Y:     0.8467      Z:    -0.4009

  Electronic Dipole Moment: (a.u.)
     X:     3.4614      Y:    -0.3799      Z:     0.6517

  Dipole Moment: (a.u.)
     X:    -0.0691      Y:     0.4668      Z:     0.2508     Total:     0.5344

  Dipole Moment: (Debye)
     X:    -0.1757      Y:     1.1865      Z:     0.6374     Total:     1.3583


  Saving occupied orbitals to File 180.

*** tstop() called on cx1-3-6-2.cx1.hpc.ic.ac.uk at Thu Sep  1 22:19:06 2016
Module time:
	user time   =       7.92 seconds =       0.13 minutes
	system time =       0.03 seconds =       0.00 minutes
	total time  =          9 seconds =       0.15 minutes
Total time:
	user time   =       7.92 seconds =       0.13 minutes
	system time =       0.03 seconds =       0.00 minutes
	total time  =          9 seconds =       0.15 minutes


Properties will be evaluated at   0.000000,   0.000000,   0.000000 Bohr

Properties computed using the  density matrix

  Nuclear Dipole Moment: (a.u.)
     X:    -3.5306      Y:     0.8467      Z:    -0.4009

  Electronic Dipole Moment: (a.u.)
     X:     3.4614      Y:    -0.3799      Z:     0.6517

  Dipole Moment: (a.u.)
     X:    -0.0691      Y:     0.4668      Z:     0.2508     Total:     0.5344

  Dipole Moment: (Debye)
     X:    -0.1757      Y:     1.1865      Z:     0.6374     Total:     1.3583

  Quadrupole Moment: (Debye Ang)
    XX:   -41.9351     YY:   -42.0479     ZZ:   -37.9457
    XY:     4.7111     XZ:     1.8334     YZ:     0.7250

  Traceless Quadrupole Moment: (Debye Ang)
    XX:    -1.2922     YY:    -1.4050     ZZ:     2.6972
    XY:     4.7111     XZ:     1.8334     YZ:     0.7250

  Mulliken Charges: (a.u.)
   Center  Symbol    Alpha    Beta     Spin     Total
       1     H     0.33251  0.33251  0.00000  0.33498
       2     N     3.92191  3.92191  0.00000 -0.84381
       3     C     3.06058  3.06058  0.00000 -0.12115
       4     H     0.33542  0.33542  0.00000  0.32915
       5     C     3.15311  3.15311  0.00000 -0.30622
       6     H     0.42090  0.42090  0.00000  0.15820
       7     H     0.43471  0.43471  0.00000  0.13057
       8     C     3.15695  3.15695  0.00000 -0.31390
       9     H     0.41285  0.41285  0.00000  0.17430
      10     H     0.42746  0.42746  0.00000  0.14507
      11     C     3.15225  3.15225  0.00000 -0.30450
      12     H     0.42166  0.42166  0.00000  0.15667
      13     H     0.42353  0.42353  0.00000  0.15294
      14     C     3.24009  3.24009  0.00000 -0.48018
      15     H     0.42056  0.42056  0.00000  0.15888
      16     H     0.42130  0.42130  0.00000  0.15741
      17     H     0.42181  0.42181  0.00000  0.15639
      18     H     0.42017  0.42017  0.00000  0.15967
      19     H     0.42224  0.42224  0.00000  0.15553

   Total alpha = 25.00000, Total beta = 25.00000, Total charge =  0.00000


*** PSI4 exiting successfully. Buy a developer a beer!
