    -----------------------------------------------------------------------
          Psi4: An Open-Source Ab Initio Electronic Structure Package
                              Psi4 (no tag) Driver

                          Git: Rev {detached?}  

    J. M. Turney, A. C. Simmonett, R. M. Parrish, E. G. Hohenstein,
    F. A. Evangelista, J. T. Fermann, B. J. Mintz, L. A. Burns, J. J. Wilke,
    M. L. Abrams, N. J. Russ, M. L. Leininger, C. L. Janssen, E. T. Seidl,
    W. D. Allen, H. F. Schaefer, R. A. King, E. F. Valeev, C. D. Sherrill,
    and T. D. Crawford, WIREs Comput. Mol. Sci. 2, 556-565 (2012)
    (doi: 10.1002/wcms.93)

                         Additional Contributions by
    A. E. DePrince, M. Saitow, U. Bozkaya, A. Yu. Sokolov
    -----------------------------------------------------------------------


    Psi4 started on: Fri Sep  2 12:57:49 2016

    Process ID:  27924
    PSI4DATADIR: /export131/home/mjharvey/miniconda3/share
    Memory level set to 256.000 MB

  ==> Input File <==

--------------------------------------------------------------------------
set {
	reference rhf
	basis 6-31G*
}


set_num_threads( 4 )
memory 2 gb

molecule MOL {
0 1

O	 -2.042549	 -1.228399	 -0.269030
C	 -1.653912	 -0.146171	 0.050137
C	 -0.332303	 0.024011	 0.778412
C	 -2.438579	 1.106236	 -0.272369
C	 0.845713	 -0.001731	 -0.208243
H	 -0.323783	 0.953829	 1.340327
H	 -0.235459	 -0.796807	 1.480410
C	 2.200309	 0.136118	 0.488247
H	 0.733710	 0.800019	 -0.936072
H	 0.811185	 -0.933796	 -0.764304
C	 2.093497	 0.792298	 1.864193
H	 2.656216	 -0.846330	 0.590075
H	 2.868009	 0.720377	 -0.140550
H	 1.458381	 0.212294	 2.527725
H	 1.670677	 1.789911	 1.790469
H	 3.068583	 0.879690	 2.332804
H	 -3.277823	 0.863061	 -0.908988
H	 -1.806773	 1.843019	 -0.759671
H	 -2.802853	 1.554979	 0.648059

	symmetry c1
}
set optking {
	frozen_dihedral = ("
		11 8 5 9
	")
}

ee = optimize('scf')
oeprop('DIPOLE', 'QUADRUPOLE', 'MULLIKEN_CHARGES')
f=open( 'psi4out.xyz', 'w' )
f.write( "19  " )
f.write( str(ee) + "\n" )
f.write( MOL.save_string_xyz() )
f.close()
--------------------------------------------------------------------------

  Memory set to   2.000 GiB by Python script.
gradient() will perform analytic gradient computation.

*** tstart() called on cx1-1-3-4.cx1.hpc.ic.ac.uk
*** at Fri Sep  2 12:57:50 2016


         ---------------------------------------------------------
                                   SCF
            by Justin Turney, Rob Parrish, and Andy Simmonett
                              RHF Reference
                        4 Threads,   2000 MiB Core
         ---------------------------------------------------------

  ==> Geometry <==

    Molecular point group: c1
    Full point group: C1

    Geometry (in Angstrom), charge = 0, multiplicity = 1:

       Center              X                  Y                   Z               Mass       
    ------------   -----------------  -----------------  -----------------  -----------------
           O         -1.850360595550    -1.332070234658    -0.622296631956    15.994914619560
           C         -1.461723595550    -0.249842234658    -0.303129631956    12.000000000000
           C         -0.140114595550    -0.079660234658     0.425145368044    12.000000000000
           C         -2.246390595550     1.002564765342    -0.625635631956    12.000000000000
           C          1.037901404450    -0.105402234658    -0.561509631956    12.000000000000
           H         -0.131594595550     0.850157765342     0.987060368044     1.007825032070
           H         -0.043270595550    -0.900478234658     1.127143368044     1.007825032070
           C          2.392497404450     0.032446765342     0.134980368044    12.000000000000
           H          0.925898404450     0.696347765342    -1.289338631956     1.007825032070
           H          1.003373404450    -1.037467234658    -1.117570631956     1.007825032070
           C          2.285685404450     0.688626765342     1.510926368044    12.000000000000
           H          2.848404404450    -0.950001234658     0.236808368044     1.007825032070
           H          3.060197404450     0.616705765342    -0.493816631956     1.007825032070
           H          1.650569404450     0.108622765342     2.174458368044     1.007825032070
           H          1.862865404450     1.686239765342     1.437202368044     1.007825032070
           H          3.260771404450     0.776018765342     1.979537368044     1.007825032070
           H         -3.085634595550     0.759389765342    -1.262254631956     1.007825032070
           H         -1.614584595550     1.739347765342    -1.112937631956     1.007825032070
           H         -2.610664595550     1.451307765342     0.294792368044     1.007825032070

  Running in c1 symmetry.

  Rotational constants: A =      0.18072  B =      0.04160  C =      0.03878 [cm^-1]
  Rotational constants: A =   5417.86110  B =   1247.08504  C =   1162.58129 [MHz]
  Nuclear repulsion =  307.567626256540393

  Charge       = 0
  Multiplicity = 1
  Electrons    = 56
  Nalpha       = 28
  Nbeta        = 28

  ==> Algorithm <==

  SCF Algorithm Type is DF.
  DIIS enabled.
  MOM disabled.
  Fractional occupation disabled.
  Guess Type is CORE.
  Energy threshold   = 1.00e-08
  Density threshold  = 1.00e-08
  Integral threshold = 0.00e+00

  ==> Primary Basis <==

  Basis Set: 6-31G*
    Number of shells: 66
    Number of basis function: 129
    Number of Cartesian functions: 129
    Spherical Harmonics?: false
    Max angular momentum: 2

  ==> Pre-Iterations <==

   -------------------------------------------------------
    Irrep   Nso     Nmo     Nalpha   Nbeta   Ndocc  Nsocc
   -------------------------------------------------------
     A        129     129       0       0       0       0
   -------------------------------------------------------
    Total     129     129      28      28      28       0
   -------------------------------------------------------

 OEINTS: Overlap, kinetic, potential, dipole, and quadrupole integrals
         stored in file 35.

  ==> Integral Setup <==

  ==> DFJK: Density-Fitted J/K Matrices <==

    J tasked:                  Yes
    K tasked:                  Yes
    wK tasked:                  No
    OpenMP threads:              4
    Integrals threads:           4
    Memory (MB):              1430
    Algorithm:                Core
    Integral Cache:           NONE
    Schwarz Cutoff:          1E-12
    Fitting Condition:       1E-12

   => Auxiliary Basis Set <=

  Basis Set: 
    Number of shells: 276
    Number of basis function: 867
    Number of Cartesian functions: 867
    Spherical Harmonics?: false
    Max angular momentum: 3

  Minimum eigenvalue in the overlap matrix is 3.2065264825E-03.
  Using Symmetric Orthogonalization.
  SCF Guess: Core (One-Electron) Hamiltonian.

  ==> Iterations <==

                           Total Energy        Delta E     RMS |[F,P]|

   @DF-RHF iter   1:  -238.75282085626554   -2.38753e+02   6.70710e-02 
   @DF-RHF iter   2:  -208.70325687088371    3.00496e+01   5.42158e-02 DIIS
   @DF-RHF iter   3:  -259.27613213420670   -5.05729e+01   5.55002e-02 DIIS
   @DF-RHF iter   4:  -298.47567265006342   -3.91995e+01   2.57079e-02 DIIS
   @DF-RHF iter   5:  -306.83229449809585   -8.35662e+00   1.48578e-02 DIIS
   @DF-RHF iter   6:  -308.97364394906606   -2.14135e+00   2.81015e-03 DIIS
   @DF-RHF iter   7:  -309.04083300014247   -6.71891e-02   1.11284e-03 DIIS
   @DF-RHF iter   8:  -309.05173346366269   -1.09005e-02   4.89863e-04 DIIS
   @DF-RHF iter   9:  -309.05433672024787   -2.60326e-03   1.43584e-04 DIIS
   @DF-RHF iter  10:  -309.05454541298241   -2.08693e-04   7.09906e-05 DIIS
   @DF-RHF iter  11:  -309.05459001573968   -4.46028e-05   1.47645e-05 DIIS
   @DF-RHF iter  12:  -309.05459500841357   -4.99267e-06   5.95311e-06 DIIS
   @DF-RHF iter  13:  -309.05459578371517   -7.75302e-07   2.38020e-06 DIIS
   @DF-RHF iter  14:  -309.05459598643063   -2.02715e-07   1.02143e-06 DIIS
   @DF-RHF iter  15:  -309.05459604170176   -5.52711e-08   3.86813e-07 DIIS
   @DF-RHF iter  16:  -309.05459605012334   -8.42158e-09   1.27201e-07 DIIS
   @DF-RHF iter  17:  -309.05459605075919   -6.35850e-10   4.90431e-08 DIIS
   @DF-RHF iter  18:  -309.05459605082831   -6.91216e-11   1.62796e-08 DIIS
   @DF-RHF iter  19:  -309.05459605083490   -6.59384e-12   3.94262e-09 DIIS

  ==> Post-Iterations <==

    Orbital Energies (a.u.)
    -----------------------

    Doubly Occupied:                                                      

       1A    -20.546402     2A    -11.323463     3A    -11.229485  
       4A    -11.227974     5A    -11.227840     6A    -11.223910  
       7A    -11.215980     8A     -1.392293     9A     -1.095320  
      10A     -1.025709    11A     -0.978229    12A     -0.905893  
      13A     -0.794477    14A     -0.734229    15A     -0.663278  
      16A     -0.655058    17A     -0.620049    18A     -0.604684  
      19A     -0.589343    20A     -0.565113    21A     -0.556068  
      22A     -0.540671    23A     -0.527614    24A     -0.501447  
      25A     -0.480558    26A     -0.466433    27A     -0.458361  
      28A     -0.396932  

    Virtual:                                                              

      29A      0.170331    30A      0.215437    31A      0.246646  
      32A      0.260362    33A      0.274294    34A      0.289644  
      35A      0.297849    36A      0.307633    37A      0.319371  
      38A      0.342000    39A      0.349069    40A      0.351428  
      41A      0.381144    42A      0.402637    43A      0.408669  
      44A      0.437319    45A      0.469342    46A      0.504306  
      47A      0.523622    48A      0.717674    49A      0.721844  
      50A      0.731514    51A      0.750058    52A      0.774994  
      53A      0.794226    54A      0.808781    55A      0.834768  
      56A      0.869238    57A      0.899830    58A      0.929961  
      59A      0.954782    60A      0.967435    61A      0.981064  
      62A      0.991039    63A      1.065576    64A      1.091451  
      65A      1.123819    66A      1.128295    67A      1.134505  
      68A      1.152965    69A      1.155999    70A      1.177133  
      71A      1.179257    72A      1.189405    73A      1.192084  
      74A      1.204268    75A      1.222150    76A      1.228635  
      77A      1.260765    78A      1.296468    79A      1.343894  
      80A      1.369651    81A      1.409969    82A      1.441330  
      83A      1.516320    84A      1.634152    85A      1.673830  
      86A      1.710178    87A      1.754044    88A      1.793521  
      89A      1.848320    90A      1.893436    91A      2.012569  
      92A      2.057369    93A      2.085325    94A      2.108029  
      95A      2.139488    96A      2.167408    97A      2.189677  
      98A      2.208889    99A      2.259202   100A      2.272000  
     101A      2.295319   102A      2.346961   103A      2.391612  
     104A      2.405860   105A      2.485032   106A      2.514595  
     107A      2.540918   108A      2.570379   109A      2.650403  
     110A      2.668999   111A      2.724060   112A      2.736536  
     113A      2.754450   114A      2.793695   115A      2.852303  
     116A      2.920797   117A      2.984417   118A      3.032303  
     119A      3.088546   120A      3.153725   121A      3.377570  
     122A      3.381703   123A      4.461989   124A      4.528915  
     125A      4.606631   126A      4.711796   127A      4.796850  
     128A      4.896990   129A      5.050450  

    Final Occupation by Irrep:
              A 
    DOCC [    28 ]

  Energy converged.

  @DF-RHF Final Energy:  -309.05459605083490

   => Energetics <=

    Nuclear Repulsion Energy =            307.5676262565403931
    One-Electron Energy =               -1028.1508192845083158
    Two-Electron Energy =                 411.5285969771330770
    DFT Exchange-Correlation Energy =       0.0000000000000000
    Empirical Dispersion Energy =           0.0000000000000000
    PCM Polarization Energy =               0.0000000000000000
    EFP Energy =                            0.0000000000000000
    Total Energy =                       -309.0545960508348458

    Alert: EFP and PCM quantities not currently incorporated into SCF psivars.

Properties will be evaluated at   0.000000,   0.000000,   0.000000 Bohr
  ==> Properties <==


Properties computed using the SCF density matrix

  Nuclear Dipole Moment: (a.u.)
     X:     6.6718      Y:     5.4274      Z:     2.7729

  Electronic Dipole Moment: (a.u.)
     X:    -6.1364      Y:    -4.3746      Z:    -2.4702

  Dipole Moment: (a.u.)
     X:     0.5354      Y:     1.0527      Z:     0.3028     Total:     1.2193

  Dipole Moment: (Debye)
     X:     1.3609      Y:     2.6758      Z:     0.7695     Total:     3.0991


  Saving occupied orbitals to File 180.

*** tstop() called on cx1-1-3-4.cx1.hpc.ic.ac.uk at Fri Sep  2 12:57:57 2016
Module time:
	user time   =      19.41 seconds =       0.32 minutes
	system time =       0.20 seconds =       0.00 minutes
	total time  =          7 seconds =       0.12 minutes
Total time:
	user time   =      19.41 seconds =       0.32 minutes
	system time =       0.20 seconds =       0.00 minutes
	total time  =          7 seconds =       0.12 minutes

*** tstart() called on cx1-1-3-4.cx1.hpc.ic.ac.uk
*** at Fri Sep  2 12:57:57 2016


         ------------------------------------------------------------
                                   SCF GRAD                          
                          Rob Parrish, Justin Turney,                
                       Andy Simmonett, and Alex Sokolov              
         ------------------------------------------------------------

  ==> Geometry <==

    Molecular point group: c1
    Full point group: C1

    Geometry (in Angstrom), charge = 0, multiplicity = 1:

       Center              X                  Y                   Z               Mass       
    ------------   -----------------  -----------------  -----------------  -----------------
           O         -1.850360595550    -1.332070234658    -0.622296631956    15.994914619560
           C         -1.461723595550    -0.249842234658    -0.303129631956    12.000000000000
           C         -0.140114595550    -0.079660234658     0.425145368044    12.000000000000
           C         -2.246390595550     1.002564765342    -0.625635631956    12.000000000000
           C          1.037901404450    -0.105402234658    -0.561509631956    12.000000000000
           H         -0.131594595550     0.850157765342     0.987060368044     1.007825032070
           H         -0.043270595550    -0.900478234658     1.127143368044     1.007825032070
           C          2.392497404450     0.032446765342     0.134980368044    12.000000000000
           H          0.925898404450     0.696347765342    -1.289338631956     1.007825032070
           H          1.003373404450    -1.037467234658    -1.117570631956     1.007825032070
           C          2.285685404450     0.688626765342     1.510926368044    12.000000000000
           H          2.848404404450    -0.950001234658     0.236808368044     1.007825032070
           H          3.060197404450     0.616705765342    -0.493816631956     1.007825032070
           H          1.650569404450     0.108622765342     2.174458368044     1.007825032070
           H          1.862865404450     1.686239765342     1.437202368044     1.007825032070
           H          3.260771404450     0.776018765342     1.979537368044     1.007825032070
           H         -3.085634595550     0.759389765342    -1.262254631956     1.007825032070
           H         -1.614584595550     1.739347765342    -1.112937631956     1.007825032070
           H         -2.610664595550     1.451307765342     0.294792368044     1.007825032070

  Nuclear repulsion =  307.567626256540393

  ==> Basis Set <==

  Basis Set: 6-31G*
    Number of shells: 66
    Number of basis function: 129
    Number of Cartesian functions: 129
    Spherical Harmonics?: false
    Max angular momentum: 2

  ==> DFJKGrad: Density-Fitted SCF Gradients <==

    Gradient:                    1
    J tasked:                  Yes
    K tasked:                  Yes
    wK tasked:                  No
    OpenMP threads:              4
    Integrals threads:           4
    Memory (MB):              1430
    Schwarz Cutoff:          0E+00
    Fitting Condition:       1E-12

   => Auxiliary Basis Set <=

  Basis Set: 
    Number of shells: 276
    Number of basis function: 867
    Number of Cartesian functions: 867
    Spherical Harmonics?: false
    Max angular momentum: 3


  -Total Gradient:
     Atom            X                  Y                   Z
    ------   -----------------  -----------------  -----------------
       1        0.000617830499     0.000378715016     0.000104947227
       2       -0.001407149964     0.000410315886     0.000456022269
       3        0.006363431927     0.001085852135     0.002886297964
       4        0.000038595774    -0.000024380711    -0.000145694107
       5        0.005229411551     0.000023953909     0.004890603514
       6        0.003361799629     0.002963020308     0.002502991506
       7        0.001528695393     0.000097855239     0.000759590975
       8       -0.005481516135     0.000595117997    -0.004192261190
       9        0.002302863410     0.000260577334    -0.001246595052
      10        0.001122435903    -0.001949921914     0.000800505628
      11       -0.007068923054    -0.001315938284    -0.003122165475
      12        0.000289550317    -0.001428930538    -0.001818013213
      13       -0.000519579322     0.001786486209    -0.001124894895
      14       -0.004398703062    -0.002101723046    -0.000313072911
      15       -0.001665693920    -0.000523708437    -0.000993279625
      16       -0.000346895857    -0.000220643068     0.000519432468
      17        0.000007133561    -0.000011558112     0.000006553938
      18       -0.000018026856     0.000004360304     0.000019903745
      19        0.000044740212    -0.000029450227     0.000009127233


*** tstop() called on cx1-1-3-4.cx1.hpc.ic.ac.uk at Fri Sep  2 12:58:03 2016
Module time:
	user time   =      20.40 seconds =       0.34 minutes
	system time =       0.20 seconds =       0.00 minutes
	total time  =          6 seconds =       0.10 minutes
Total time:
	user time   =      39.83 seconds =       0.66 minutes
	system time =       0.40 seconds =       0.01 minutes
	total time  =         13 seconds =       0.22 minutes
CURRENT ENERGY: -309.0545960508

			-----------------------------------------
			 OPTKING 2.0: for geometry optimizations 
			  - R.A. King,  Bethel University        
			-----------------------------------------

	Internal coordinates to be generated automatically.
	Detected frag with atoms:  1 2 3 4 5 6 7 8 9 10 11 12 13 14 15 16 17 18 19
	---Fragment 1 Bond Connectivity---
	 1 : 2
	 2 : 1 3 4
	 3 : 2 5 6 7
	 4 : 2 17 18 19
	 5 : 3 8 9 10
	 6 : 3
	 7 : 3
	 8 : 5 11 12 13
	 9 : 5
	 10 : 5
	 11 : 8 14 15 16
	 12 : 8
	 13 : 8
	 14 : 11
	 15 : 11
	 16 : 11
	 17 : 4
	 18 : 4
	 19 : 4

	Assuming in current code that numbering for constraints corresponds to unified fragment.
	Frozen dihedral atom list: 
	    11     8     5     9
	---Fragment 1 Geometry and Gradient---
	 O          -3.4966747727       -2.5172479333       -1.1759702078
	 C          -2.7622572776       -0.4721333999       -0.5728319872
	 C          -0.2647782128       -0.1505360272        0.8034083123
	 C          -4.2450630131        1.8945728370       -1.1822800034
	 C           1.9613494073       -0.1991813573       -1.0610994254
	 H          -0.2486777462        1.6065653462        1.8652737722
	 H          -0.0817695752       -1.7016572521        2.1299922781
	 C           4.5211648680        0.0613155004        0.2550759289
	 H           1.7496944113        1.3159065697       -2.4364969069
	 H           1.8961009434       -1.9605289453       -2.1119024286
	 C           4.3193194403        1.3013159943        2.8552370426
	 H           5.3827042401       -1.7952421594        0.4475029616
	 H           5.7829350070        1.1654050011       -0.9331781943
	 H           3.1191241377        0.2052672783        4.1091308030
	 H           3.5203054368        3.1865313509        2.7159188731
	 H           6.1619649364        1.4664629405        3.7407834954
	 H          -5.8310043317        1.4350386846       -2.3853155644
	 H          -3.0511227040        3.2868909263       -2.1031473274
	 H          -4.9334411104        2.7425742110        0.5570768417
	             0.0006178305        0.0003787150        0.0001049472
	            -0.0014071500        0.0004103159        0.0004560223
	             0.0063634319        0.0010858521        0.0028862980
	             0.0000385958       -0.0000243807       -0.0001456941
	             0.0052294116        0.0000239539        0.0048906035
	             0.0033617996        0.0029630203        0.0025029915
	             0.0015286954        0.0000978552        0.0007595910
	            -0.0054815161        0.0005951180       -0.0041922612
	             0.0023028634        0.0002605773       -0.0012465951
	             0.0011224359       -0.0019499219        0.0008005056
	            -0.0070689231       -0.0013159383       -0.0031221655
	             0.0002895503       -0.0014289305       -0.0018180132
	            -0.0005195793        0.0017864862       -0.0011248949
	            -0.0043987031       -0.0021017230       -0.0003130729
	            -0.0016656939       -0.0005237084       -0.0009932796
	            -0.0003468959       -0.0002206431        0.0005194325
	             0.0000071336       -0.0000115581        0.0000065539
	            -0.0000180269        0.0000043603        0.0000199037
	             0.0000447402       -0.0000294502        0.0000091272

	Previous optimization step data not found.  Starting new optimization.

	---Fragment 1 Intrafragment Coordinates---
	 - Coordinate -           - BOHR/RAD -       - ANG/DEG -
	 R(1,2)           =         2.255136	       1.193367
	 R(2,3)           =         2.869645	       1.518551
	 R(2,4)           =         2.858573	       1.512692
	 R(3,5)           =         2.904204	       1.536839
	 R(3,6)           =         2.053101	       1.086454
	 R(3,7)           =         2.049218	       1.084400
	 R(4,17)          =         2.042958	       1.081087
	 R(4,18)          =         2.052325	       1.086044
	 R(4,19)          =         2.053858	       1.086855
	 R(5,8)           =         2.890127	       1.529389
	 R(5,9)           =         2.057184	       1.088615
	 R(5,10)          =         2.052021	       1.085883
	 R(8,11)          =         2.887764	       1.528139
	 R(8,12)          =         2.055744	       1.087853
	 R(8,13)          =         2.055000	       1.087459
	 R(11,14)         =         2.052813	       1.086302
	 R(11,15)         =         2.052284	       1.086022
	 R(11,16)         =         2.051051	       1.085369
	 B(1,2,3)         =         2.109852	     120.885632
	 B(1,2,4)         =         2.123367	     121.659979
	 B(2,3,5)         =         1.936211	     110.936693
	 B(2,3,6)         =         1.929199	     110.534943
	 B(2,3,7)         =         1.879014	     107.659575
	 B(2,4,17)        =         1.919838	     109.998643
	 B(2,4,18)        =         1.934323	     110.828559
	 B(2,4,19)        =         1.912552	     109.581178
	 B(3,2,4)         =         2.049818	     117.445927
	 B(3,5,8)         =         1.966040	     112.645819
	 B(3,5,9)         =         1.915621	     109.757018
	 B(3,5,10)        =         1.895220	     108.588096
	 B(5,3,6)         =         1.918105	     109.899331
	 B(5,3,7)         =         1.911843	     109.540555
	 B(5,8,11)        =         1.968002	     112.758235
	 B(5,8,12)        =         1.909664	     109.415673
	 B(5,8,13)        =         1.905962	     109.203592
	 B(6,3,7)         =         1.888398	     108.197214
	 B(8,5,9)         =         1.906274	     109.221452
	 B(8,5,10)        =         1.916366	     109.799707
	 B(8,11,14)       =         1.940762	     111.197451
	 B(8,11,15)       =         1.939634	     111.132855
	 B(8,11,16)       =         1.939635	     111.132905
	 B(9,5,10)        =         1.861390	     106.649773
	 B(11,8,12)       =         1.910071	     109.439020
	 B(11,8,13)       =         1.910123	     109.441984
	 B(12,8,13)       =         1.856691	     106.380582
	 B(14,11,15)      =         1.880001	     107.716096
	 B(14,11,16)      =         1.880232	     107.729350
	 B(15,11,16)      =         1.880856	     107.765117
	 B(17,4,18)       =         1.917699	     109.876061
	 B(17,4,19)       =         1.908566	     109.352762
	 B(18,4,19)       =         1.870111	     107.149457
	 D(1,2,3,5)       =         1.419639	      81.339340
	 D(1,2,3,6)       =        -2.731233	    -156.488130
	 D(1,2,3,7)       =        -0.672026	     -38.504249
	 D(1,2,4,17)      =        -0.123096	      -7.052904
	 D(1,2,4,18)      =        -2.247263	    -128.758683
	 D(1,2,4,19)      =         1.975639	     113.195760
	 D(2,3,5,8)       =        -3.119694	    -178.745300
	 D(2,3,5,9)       =         1.035412	      59.324765
	 D(2,3,5,10)      =        -0.993200	     -56.906146
	 D(3,2,4,17)      =         3.000178	     171.897516
	 D(3,2,4,18)      =         0.876011	      50.191737
	 D(3,2,4,19)      =        -1.184273	     -67.853820
	 D(3,5,8,11)      =        -0.388027	     -22.232320
	 D(3,5,8,12)      =         1.741986	      99.808425
	 D(3,5,8,13)      =        -2.515466	    -144.125603
	 D(4,2,3,5)       =        -1.703785	     -97.619661
	 D(4,2,3,6)       =         0.428528	      24.552869
	 D(4,2,3,7)       =         2.487736	     142.536749
	 D(5,8,11,14)     =         1.050158	      60.169618
	 D(5,8,11,15)     =        -1.044030	     -59.818535
	 D(5,8,11,16)     =        -3.138546	    -179.825433
	 D(6,3,5,8)       =         1.024730	      58.712715
	 D(6,3,5,9)       =        -1.103349	     -63.217220
	 D(6,3,5,10)      =        -3.131961	    -179.448132
	 D(7,3,5,8)       =        -1.047735	     -60.030774
	 D(7,3,5,9)       =         3.107372	     178.039291
	 D(7,3,5,10)      =         1.078760	      61.808379
	*D(9,5,8,11)      =         1.745329	      99.999991
	 D(9,5,8,12)      =        -2.407843	    -137.959264
	 D(9,5,8,13)      =        -0.382110	     -21.893292
	 D(10,5,8,11)     =        -2.502506	    -143.383032
	 D(10,5,8,12)     =        -0.372493	     -21.342287
	 D(10,5,8,13)     =         1.653240	      94.723684
	 D(12,8,11,14)    =        -1.079625	     -61.857966
	 D(12,8,11,15)    =         3.109372	     178.153880
	 D(12,8,11,16)    =         1.014856	      58.146982
	 D(13,8,11,14)    =        -3.107939	    -178.071780
	 D(13,8,11,15)    =         1.081058	      61.940067
	 D(13,8,11,16)    =        -1.013457	     -58.066831

	Current energy   :      -309.0545960508

	Generating empirical Hessian (Schlegel '84) for each fragment.
	Taking RFO optimization step.
	Going to follow RFO solution 1.
	Using RFO vector 1.
	Norm of target step-size    0.35576
	Projected energy change by RFO approximation:        -0.0164033673

	Back-transformation to cartesian coordinates...
	Successfully converged to displaced geometry.

	Back-transformation to cartesian coordinates to adjust frozen coordinates...
	Successfully converged to displaced geometry.

	--- Internal Coordinate Step in ANG or DEG, aJ/ANG or AJ/DEG ---
	 ---------------------------------------------------------------------------
	   Coordinate                Previous        Force       Change         New 
	   ----------                --------       ------       ------       ------
	    1 R(1,2)          =      1.193367     0.004718     0.000276     1.193643
	    2 R(2,3)          =      1.518551    -0.002687    -0.000538     1.518013
	    3 R(2,4)          =      1.512692     0.000532     0.000105     1.512796
	    4 R(3,5)          =      1.536839     0.030962     0.006549     1.543387
	    5 R(3,6)          =      1.086454    -0.031775    -0.005547     1.080907
	    6 R(3,7)          =      1.084400    -0.004566    -0.000792     1.083608
	    7 R(4,17)         =      1.081087     0.000056     0.000010     1.081096
	    8 R(4,18)         =      1.086044     0.000136     0.000024     1.086068
	    9 R(4,19)         =      1.086855     0.000160     0.000028     1.086883
	   10 R(5,8)          =      1.529389     0.183865     0.038038     1.567427
	   11 R(5,9)          =      1.088615    -0.006496    -0.001142     1.087473
	   12 R(5,10)         =      1.085883    -0.010118    -0.001763     1.084120
	   13 R(8,11)         =      1.528139     0.035960     0.007412     1.535551
	   14 R(8,12)         =      1.087853    -0.010230    -0.001794     1.086059
	   15 R(8,13)         =      1.087459    -0.010638    -0.001863     1.085596
	   16 R(11,14)        =      1.086302    -0.028858    -0.005035     1.081267
	   17 R(11,15)        =      1.086022    -0.001935    -0.000337     1.085685
	   18 R(11,16)        =      1.085369     0.000866     0.000151     1.085520
	   19 B(1,2,3)        =    120.885632     0.000047     0.133604   121.019236
	   20 B(1,2,4)        =    121.659979    -0.000020    -0.056233   121.603746
	   21 B(2,3,5)        =    110.936693    -0.000225    -0.881508   110.055185
	   22 B(2,3,6)        =    110.534943    -0.000076    -0.764503   109.770440
	   23 B(2,3,7)        =    107.659575    -0.000020    -0.674998   106.984576
	   24 B(2,4,17)       =    109.998643     0.000000    -0.000460   109.998182
	   25 B(2,4,18)       =    110.828559    -0.000003    -0.012681   110.815878
	   26 B(2,4,19)       =    109.581178     0.000006     0.027378   109.608555
	   27 B(3,2,4)        =    117.445927    -0.000026    -0.072716   117.373211
	   28 B(3,5,8)        =    112.645819     0.002143     7.733173   120.378992
	   29 B(3,5,9)        =    109.757018    -0.000615    -0.508656   109.248362
	   30 B(3,5,10)       =    108.588096    -0.000792    -3.223074   105.365022
	   31 B(5,3,6)        =    109.899331     0.000229     1.323391   111.222722
	   32 B(5,3,7)        =    109.540555     0.000104     0.514031   110.054587
	   33 B(5,8,11)       =    112.758235     0.002320     8.076263   120.834498
	   34 B(5,8,12)       =    109.415673    -0.000622    -1.277918   108.137755
	   35 B(5,8,13)       =    109.203592    -0.000660    -1.662857   107.540734
	   36 B(6,3,7)        =    108.197214    -0.000011     0.452427   108.649640
	   37 B(8,5,9)        =    109.221452    -0.000533    -0.557099   108.664353
	   38 B(8,5,10)       =    109.799707    -0.000590    -2.235200   107.564507
	   39 B(8,11,14)      =    111.197451     0.000269     1.383725   112.581176
	   40 B(8,11,15)      =    111.132855     0.000118     0.645638   111.778493
	   41 B(8,11,16)      =    111.132905    -0.000166    -1.107301   110.025604
	   42 B(9,5,10)       =    106.649773     0.000287    -2.208364   104.441409
	   43 B(11,8,12)      =    109.439020    -0.000678    -2.328730   107.110291
	   44 B(11,8,13)      =    109.441984    -0.000814    -2.401639   107.040345
	   45 B(12,8,13)      =    106.380582     0.000339    -1.229033   105.151549
	   46 B(14,11,15)     =    107.716096    -0.000058     0.477873   108.193969
	   47 B(14,11,16)     =    107.729350    -0.000112    -0.769270   106.960080
	   48 B(15,11,16)     =    107.765117    -0.000063    -0.730887   107.034231
	   49 B(17,4,18)      =    109.876061    -0.000000    -0.007768   109.868293
	   50 B(17,4,19)      =    109.352762    -0.000003    -0.010011   109.342751
	   51 B(18,4,19)      =    107.149457    -0.000000     0.003743   107.153200
	   52 D(1,2,3,5)      =     81.339340    -0.000006     0.002545    81.341886
	   53 D(1,2,3,6)      =   -156.488130     0.000013     0.562461  -155.925669
	   54 D(1,2,3,7)      =    -38.504249    -0.000002     0.294853   -38.209396
	   55 D(1,2,4,17)     =     -7.052904    -0.000001    -0.190835    -7.243739
	   56 D(1,2,4,18)     =   -128.758683    -0.000001    -0.172348  -128.931031
	   57 D(1,2,4,19)     =    113.195760    -0.000001    -0.186256   113.009504
	   58 D(2,3,5,8)      =   -178.745300     0.000025     3.123101  -175.622199
	   59 D(2,3,5,9)      =     59.324765    -0.000053    -1.646155    57.678610
	   60 D(2,3,5,10)     =    -56.906146     0.000049     2.875300   -54.030846
	   61 D(3,2,4,17)     =    171.897516     0.000001     0.155660   172.053177
	   62 D(3,2,4,18)     =     50.191737     0.000001     0.174148    50.365884
	   63 D(3,2,4,19)     =    -67.853820     0.000001     0.160239   -67.693581
	   64 D(3,5,8,11)     =    -22.232320    -0.000065    -4.734697   -26.967017
	   65 D(3,5,8,12)     =     99.808425    -0.000004    -2.988623    96.819802
	   66 D(3,5,8,13)     =   -144.125603    -0.000076    -5.976007  -150.101611
	   67 D(4,2,3,5)      =    -97.619661    -0.000008    -0.339718   -97.959380
	   68 D(4,2,3,6)      =     24.552869     0.000011     0.220197    24.773066
	   69 D(4,2,3,7)      =    142.536749    -0.000004    -0.047411   142.489339
	   70 D(5,8,11,14)    =     60.169618     0.000036     2.132253    62.301871
	   71 D(5,8,11,15)    =    -59.818535    -0.000006     0.094174   -59.724361
	   72 D(5,8,11,16)    =   -179.825433     0.000020     1.325477  -178.499956
	   73 D(6,3,5,8)      =     58.712715     0.000046     3.791330    62.504045
	   74 D(6,3,5,9)      =    -63.217220    -0.000032    -0.977925   -64.195146
	   75 D(6,3,5,10)     =   -179.448132     0.000069     3.543529  -175.904603
	   76 D(7,3,5,8)      =    -60.030774     0.000003     2.074054   -57.956720
	   77 D(7,3,5,9)      =    178.039291    -0.000075    -2.695202   175.344089
	   78 D(7,3,5,10)     =     61.808379     0.000026     1.826253    63.634632
	   79 *D(9,5,8,11)    =     99.999991     0.000000     0.000000    99.999991
	   80 D(9,5,8,12)     =   -137.959264     0.000060     1.746074  -136.213190
	   81 D(9,5,8,13)     =    -21.893292    -0.000012    -1.241310   -23.134603
	   82 D(10,5,8,11)    =   -143.383032    -0.000068    -4.095576  -147.478608
	   83 D(10,5,8,12)    =    -21.342287    -0.000008    -2.349502   -23.691789
	   84 D(10,5,8,13)    =     94.723684    -0.000080    -5.336886    89.386798
	   85 D(12,8,11,14)   =    -61.857966    -0.000031    -0.110388   -61.968354
	   86 D(12,8,11,15)   =    178.153880    -0.000074    -2.148467   176.005414
	   87 D(12,8,11,16)   =     58.146982    -0.000048    -0.917164    57.229819
	   88 D(13,8,11,14)   =   -178.071780     0.000069     3.745794  -174.325986
	   89 D(13,8,11,15)   =     61.940067     0.000027     1.707715    63.647782
	   90 D(13,8,11,16)   =    -58.066831     0.000053     2.939018   -55.127813
	 ---------------------------------------------------------------------------

  ==> Convergence Check <==

  Measures of convergence in internal coordinates in au.
  Criteria marked as inactive (o), active & met (*), and active & unmet ( ).
  --------------------------------------------------------------------------------------------- ~
   Step     Total Energy     Delta E     MAX Force     RMS Force      MAX Disp      RMS Disp    ~
  --------------------------------------------------------------------------------------------- ~
    Convergence Criteria    1.00e-06 *    3.00e-04 *             o    1.20e-03 *             o  ~
  --------------------------------------------------------------------------------------------- ~
      1    -309.05459605   -3.09e+02      3.05e-02      5.96e-03 o    1.41e-01      3.75e-02 o  ~
  ---------------------------------------------------------------------------------------------

	Writing optimization data to binary file.
	Structure for next step:
	Cartesian Geometry (in Angstrom)
	    O    -1.8611677543  -1.3578340891  -0.7798418323
	    C    -1.5431478513  -0.2732955246  -0.3958857319
	    C    -0.3020314884  -0.0778715545   0.4560550112
	    C    -2.3456749856   0.9595343535  -0.7489206937
	    C     0.9537037517  -0.0344626187  -0.4402089431
	    H    -0.3978074477   0.8270001781   1.0394883708
	    H    -0.2464884475  -0.9223011826   1.1328556999
	    C     2.3816203436   0.0564205016   0.1998091160
	    H     0.8470306020   0.7662904409  -1.1682293275
	    H     0.9169379765  -0.9431142600  -1.0303918760
	    C     2.5866008756   0.7005914442   1.5785558245
	    H     2.7933976056  -0.9472123573   0.2516299144
	    H     3.0197683424   0.5892466250  -0.4983187574
	    H     2.0639108908   0.1736705646   2.3648681382
	    H     2.2625022760   1.7366944940   1.5912786228
	    H     3.6403773584   0.6938067044   1.8390606760
	    H    -3.1147121679   0.7073510872  -1.4656875264
	    H    -1.7029760733   1.7353052334  -1.1547044213
	    H    -2.8080175765   1.3630349407   0.1481529515
			--------------------------
			 OPTKING Finished Execution 
			--------------------------

    Structure for next step:
    Molecular point group: c1
    Full point group: C1

    Geometry (in Angstrom), charge = 0, multiplicity = 1:

    O           -1.844527097158    -1.358608879816    -0.763788234932
    C           -1.526507218450    -0.274070398130    -0.379832163879
    C           -0.285390950314    -0.078646442989     0.472108514124
    C           -2.329034291500     0.958759385863    -0.732867098738
    C            0.970344193844    -0.035237510507    -0.424155371694
    H           -0.381166902298     0.826225220539     1.055541829202
    H           -0.229847913685    -0.923076006598     1.148909151182
    C            2.398260676705     0.055645602903     0.215862638518
    H            0.863671052249     0.765515487987    -1.152175700563
    H            0.933578421412    -0.943889082391    -1.014338259549
    C            2.603241193029     0.699816496308     1.594609241771
    H            2.810037907225    -0.947987179396     0.267683432967
    H            3.036408626754     0.588471685595    -0.482265181584
    H            2.080551248147     0.172895656894     2.380921495344
    H            2.279142618250     1.735919466981     1.607332039088
    H            3.657017595364     0.693031756973     1.855114073298
    H           -3.098071415113     0.706576138783    -1.449633876700
    H           -1.686335428324     1.734530206517    -1.138650795332
    H           -2.791376847053     1.362259942190     0.164206477927

gradient() will perform analytic gradient computation.

*** tstart() called on cx1-1-3-4.cx1.hpc.ic.ac.uk
*** at Fri Sep  2 12:58:04 2016


         ---------------------------------------------------------
                                   SCF
            by Justin Turney, Rob Parrish, and Andy Simmonett
                              RHF Reference
                        4 Threads,   2000 MiB Core
         ---------------------------------------------------------

  ==> Geometry <==

    Molecular point group: c1
    Full point group: C1

    Geometry (in Angstrom), charge = 0, multiplicity = 1:

       Center              X                  Y                   Z               Mass       
    ------------   -----------------  -----------------  -----------------  -----------------
           O         -1.844527097158    -1.358608879816    -0.763788234932    15.994914619560
           C         -1.526507218450    -0.274070398130    -0.379832163879    12.000000000000
           C         -0.285390950314    -0.078646442989     0.472108514124    12.000000000000
           C         -2.329034291500     0.958759385863    -0.732867098738    12.000000000000
           C          0.970344193844    -0.035237510507    -0.424155371694    12.000000000000
           H         -0.381166902298     0.826225220539     1.055541829202     1.007825032070
           H         -0.229847913685    -0.923076006598     1.148909151182     1.007825032070
           C          2.398260676705     0.055645602903     0.215862638518    12.000000000000
           H          0.863671052249     0.765515487987    -1.152175700563     1.007825032070
           H          0.933578421412    -0.943889082391    -1.014338259549     1.007825032070
           C          2.603241193029     0.699816496308     1.594609241771    12.000000000000
           H          2.810037907225    -0.947987179396     0.267683432967     1.007825032070
           H          3.036408626754     0.588471685595    -0.482265181584     1.007825032070
           H          2.080551248147     0.172895656894     2.380921495344     1.007825032070
           H          2.279142618250     1.735919466981     1.607332039088     1.007825032070
           H          3.657017595364     0.693031756973     1.855114073298     1.007825032070
           H         -3.098071415113     0.706576138783    -1.449633876700     1.007825032070
           H         -1.686335428324     1.734530206517    -1.138650795332     1.007825032070
           H         -2.791376847053     1.362259942190     0.164206477927     1.007825032070

  Running in c1 symmetry.

  Rotational constants: A =      0.19082  B =      0.03762  C =      0.03528 [cm^-1]
  Rotational constants: A =   5720.69588  B =   1127.78502  C =   1057.71066 [MHz]
  Nuclear repulsion =  301.949831004172495

  Charge       = 0
  Multiplicity = 1
  Electrons    = 56
  Nalpha       = 28
  Nbeta        = 28

  ==> Algorithm <==

  SCF Algorithm Type is DF.
  DIIS enabled.
  MOM disabled.
  Fractional occupation disabled.
  Guess Type is READ.
  Energy threshold   = 1.00e-08
  Density threshold  = 1.00e-08
  Integral threshold = 0.00e+00

  ==> Primary Basis <==

  Basis Set: 6-31G*
    Number of shells: 66
    Number of basis function: 129
    Number of Cartesian functions: 129
    Spherical Harmonics?: false
    Max angular momentum: 2

  ==> Pre-Iterations <==

   -------------------------------------------------------
    Irrep   Nso     Nmo     Nalpha   Nbeta   Ndocc  Nsocc
   -------------------------------------------------------
     A        129     129       0       0       0       0
   -------------------------------------------------------
    Total     129     129      28      28      28       0
   -------------------------------------------------------

 OEINTS: Overlap, kinetic, potential, dipole, and quadrupole integrals
         stored in file 35.

  ==> Integral Setup <==

  ==> DFJK: Density-Fitted J/K Matrices <==

    J tasked:                  Yes
    K tasked:                  Yes
    wK tasked:                  No
    OpenMP threads:              4
    Integrals threads:           4
    Memory (MB):              1430
    Algorithm:                Core
    Integral Cache:           NONE
    Schwarz Cutoff:          1E-12
    Fitting Condition:       1E-12

   => Auxiliary Basis Set <=

  Basis Set: 
    Number of shells: 276
    Number of basis function: 867
    Number of Cartesian functions: 867
    Spherical Harmonics?: false
    Max angular momentum: 3

  Minimum eigenvalue in the overlap matrix is 3.5690882410E-03.
  Using Symmetric Orthogonalization.
  SCF Guess: Reading in previously saved MOs, projecting if necessary.

  Using orbitals from previous SCF, no projection.
  Recomputing DOCC and SOCC from number of alpha and beta electrons from previous calculation.
              A 
    DOCC [    28 ]

  ==> Iterations <==

                           Total Energy        Delta E     RMS |[F,P]|

   @DF-RHF iter   0:  -308.99746528999111   -3.08997e+02   2.56725e-03 
   @DF-RHF iter   1:  -309.05157339344402   -5.41081e-02   4.48446e-04 
   @DF-RHF iter   2:  -309.05470907279067   -3.13568e-03   1.55063e-04 DIIS
   @DF-RHF iter   3:  -309.05515765625267   -4.48583e-04   5.87276e-05 DIIS
   @DF-RHF iter   4:  -309.05521111891034   -5.34627e-05   1.77199e-05 DIIS
   @DF-RHF iter   5:  -309.05522331500737   -1.21961e-05   8.51676e-06 DIIS
   @DF-RHF iter   6:  -309.05522606581388   -2.75081e-06   4.11710e-06 DIIS
   @DF-RHF iter   7:  -309.05522669574742   -6.29934e-07   1.74968e-06 DIIS
   @DF-RHF iter   8:  -309.05522681186750   -1.16120e-07   7.59762e-07 DIIS
   @DF-RHF iter   9:  -309.05522683826047   -2.63930e-08   2.60614e-07 DIIS
   @DF-RHF iter  10:  -309.05522684129511   -3.03464e-09   5.34014e-08 DIIS
   @DF-RHF iter  11:  -309.05522684138595   -9.08358e-11   1.13055e-08 DIIS
   @DF-RHF iter  12:  -309.05522684138822   -2.27374e-12   3.08067e-09 DIIS

  ==> Post-Iterations <==

    Orbital Energies (a.u.)
    -----------------------

    Doubly Occupied:                                                      

       1A    -20.548505     2A    -11.325460     3A    -11.233151  
       4A    -11.230096     5A    -11.228669     6A    -11.227662  
       7A    -11.216811     8A     -1.394008     9A     -1.082542  
      10A     -1.027643    11A     -0.983871    12A     -0.902039  
      13A     -0.796688    14A     -0.733370    15A     -0.658581  
      16A     -0.649388    17A     -0.619834    18A     -0.604588  
      19A     -0.589698    20A     -0.571461    21A     -0.550881  
      22A     -0.544284    23A     -0.520855    24A     -0.498745  
      25A     -0.480085    26A     -0.467004    27A     -0.460034  
      28A     -0.398377  

    Virtual:                                                              

      29A      0.167728    30A      0.213540    31A      0.244530  
      32A      0.267000    33A      0.278813    34A      0.291566  
      35A      0.300740    36A      0.306855    37A      0.318484  
      38A      0.330520    39A      0.337695    40A      0.350827  
      41A      0.373174    42A      0.393172    43A      0.399346  
      44A      0.437117    45A      0.462543    46A      0.491441  
      47A      0.515149    48A      0.707155    49A      0.713291  
      50A      0.733783    51A      0.750784    52A      0.773499  
      53A      0.783902    54A      0.806333    55A      0.835890  
      56A      0.863682    57A      0.880356    58A      0.925190  
      59A      0.945762    60A      0.975511    61A      0.981169  
      62A      0.991935    63A      1.044306    64A      1.091144  
      65A      1.105380    66A      1.120364    67A      1.133277  
      68A      1.134781    69A      1.156780    70A      1.167676  
      71A      1.179147    72A      1.182821    73A      1.188877  
      74A      1.204867    75A      1.216852    76A      1.227686  
      77A      1.263701    78A      1.269437    79A      1.343784  
      80A      1.367112    81A      1.406689    82A      1.458266  
      83A      1.464011    84A      1.547692    85A      1.685232  
      86A      1.702483    87A      1.736616    88A      1.792035  
      89A      1.873285    90A      1.904811    91A      1.981044  
      92A      2.038652    93A      2.075450    94A      2.108220  
      95A      2.117260    96A      2.146773    97A      2.184201  
      98A      2.201784    99A      2.231017   100A      2.255595  
     101A      2.293242   102A      2.333587   103A      2.386353  
     104A      2.396682   105A      2.459108   106A      2.506690  
     107A      2.532212   108A      2.562818   109A      2.648108  
     110A      2.670196   111A      2.685818   112A      2.736044  
     113A      2.759398   114A      2.772192   115A      2.837344  
     116A      2.909049   117A      2.979467   118A      3.053143  
     119A      3.072173   120A      3.127957   121A      3.374773  
     122A      3.377212   123A      4.461252   124A      4.506606  
     125A      4.585746   126A      4.708999   127A      4.801375  
     128A      4.894347   129A      5.021383  

    Final Occupation by Irrep:
              A 
    DOCC [    28 ]

  Energy converged.

  @DF-RHF Final Energy:  -309.05522684138822

   => Energetics <=

    Nuclear Repulsion Energy =            301.9498310041724949
    One-Electron Energy =               -1016.9214568414887481
    Two-Electron Energy =                 405.9163989959276932
    DFT Exchange-Correlation Energy =       0.0000000000000000
    Empirical Dispersion Energy =           0.0000000000000000
    PCM Polarization Energy =               0.0000000000000000
    EFP Energy =                            0.0000000000000000
    Total Energy =                       -309.0552268413885031

    Alert: EFP and PCM quantities not currently incorporated into SCF psivars.

Properties will be evaluated at   0.000000,   0.000000,   0.000000 Bohr
  ==> Properties <==


Properties computed using the SCF density matrix

  Nuclear Dipole Moment: (a.u.)
     X:     6.9974      Y:     5.4031      Z:     3.0362

  Electronic Dipole Moment: (a.u.)
     X:    -6.5413      Y:    -4.3516      Z:    -2.6740

  Dipole Moment: (a.u.)
     X:     0.4562      Y:     1.0515      Z:     0.3622     Total:     1.2021

  Dipole Moment: (Debye)
     X:     1.1594      Y:     2.6727      Z:     0.9206     Total:     3.0553


  Saving occupied orbitals to File 180.

*** tstop() called on cx1-1-3-4.cx1.hpc.ic.ac.uk at Fri Sep  2 12:58:10 2016
Module time:
	user time   =      17.28 seconds =       0.29 minutes
	system time =       0.16 seconds =       0.00 minutes
	total time  =          6 seconds =       0.10 minutes
Total time:
	user time   =      58.76 seconds =       0.98 minutes
	system time =       0.62 seconds =       0.01 minutes
	total time  =         20 seconds =       0.33 minutes

*** tstart() called on cx1-1-3-4.cx1.hpc.ic.ac.uk
*** at Fri Sep  2 12:58:10 2016


         ------------------------------------------------------------
                                   SCF GRAD                          
                          Rob Parrish, Justin Turney,                
                       Andy Simmonett, and Alex Sokolov              
         ------------------------------------------------------------

  ==> Geometry <==

    Molecular point group: c1
    Full point group: C1

    Geometry (in Angstrom), charge = 0, multiplicity = 1:

       Center              X                  Y                   Z               Mass       
    ------------   -----------------  -----------------  -----------------  -----------------
           O         -1.844527097158    -1.358608879816    -0.763788234932    15.994914619560
           C         -1.526507218450    -0.274070398130    -0.379832163879    12.000000000000
           C         -0.285390950314    -0.078646442989     0.472108514124    12.000000000000
           C         -2.329034291500     0.958759385863    -0.732867098738    12.000000000000
           C          0.970344193844    -0.035237510507    -0.424155371694    12.000000000000
           H         -0.381166902298     0.826225220539     1.055541829202     1.007825032070
           H         -0.229847913685    -0.923076006598     1.148909151182     1.007825032070
           C          2.398260676705     0.055645602903     0.215862638518    12.000000000000
           H          0.863671052249     0.765515487987    -1.152175700563     1.007825032070
           H          0.933578421412    -0.943889082391    -1.014338259549     1.007825032070
           C          2.603241193029     0.699816496308     1.594609241771    12.000000000000
           H          2.810037907225    -0.947987179396     0.267683432967     1.007825032070
           H          3.036408626754     0.588471685595    -0.482265181584     1.007825032070
           H          2.080551248147     0.172895656894     2.380921495344     1.007825032070
           H          2.279142618250     1.735919466981     1.607332039088     1.007825032070
           H          3.657017595364     0.693031756973     1.855114073298     1.007825032070
           H         -3.098071415113     0.706576138783    -1.449633876700     1.007825032070
           H         -1.686335428324     1.734530206517    -1.138650795332     1.007825032070
           H         -2.791376847053     1.362259942190     0.164206477927     1.007825032070

  Nuclear repulsion =  301.949831004172495

  ==> Basis Set <==

  Basis Set: 6-31G*
    Number of shells: 66
    Number of basis function: 129
    Number of Cartesian functions: 129
    Spherical Harmonics?: false
    Max angular momentum: 2

  ==> DFJKGrad: Density-Fitted SCF Gradients <==

    Gradient:                    1
    J tasked:                  Yes
    K tasked:                  Yes
    wK tasked:                  No
    OpenMP threads:              4
    Integrals threads:           4
    Memory (MB):              1430
    Schwarz Cutoff:          0E+00
    Fitting Condition:       1E-12

   => Auxiliary Basis Set <=

  Basis Set: 
    Number of shells: 276
    Number of basis function: 867
    Number of Cartesian functions: 867
    Spherical Harmonics?: false
    Max angular momentum: 3


  -Total Gradient:
     Atom            X                  Y                   Z
    ------   -----------------  -----------------  -----------------
       1       -0.000483917157    -0.000615517235    -0.000380846034
       2        0.000547723882     0.000396930101     0.001878173564
       3       -0.007261956240     0.000628457318    -0.002934599924
       4       -0.000011106827    -0.000116343220    -0.000022336637
       5       -0.004187845038     0.000273436311     0.003308889802
       6       -0.001109806610    -0.002595416777    -0.002757701673
       7       -0.000974759204    -0.000105870797    -0.001221728982
       8        0.001956819615     0.005047458271    -0.001522193304
       9        0.001138945805    -0.003277836620    -0.003436749062
      10       -0.003089188373     0.000527745827     0.000987842624
      11        0.006357017585    -0.003794017436     0.004253521779
      12        0.001543742633     0.001024604817    -0.000314956617
      13        0.001371748971     0.000818671003     0.002369862741
      14        0.003095704246     0.001415820996    -0.001318196166
      15        0.001317483161    -0.000506636396    -0.000637223115
      16       -0.000197816742     0.000786395028     0.001806846816
      17       -0.000020176339     0.000045537911    -0.000041892997
      18        0.000013154743     0.000020306011    -0.000046115359
      19       -0.000005768105     0.000026274888     0.000029402544


*** tstop() called on cx1-1-3-4.cx1.hpc.ic.ac.uk at Fri Sep  2 12:58:16 2016
Module time:
	user time   =      20.87 seconds =       0.35 minutes
	system time =       0.23 seconds =       0.00 minutes
	total time  =          6 seconds =       0.10 minutes
Total time:
	user time   =      79.65 seconds =       1.33 minutes
	system time =       0.85 seconds =       0.01 minutes
	total time  =         26 seconds =       0.43 minutes
CURRENT ENERGY: -309.0552268414

			-----------------------------------------
			 OPTKING 2.0: for geometry optimizations 
			  - R.A. King,  Bethel University        
			-----------------------------------------

	Previous internal coordinate definitions found.
	---Fragment 1 Geometry and Gradient---
	 O          -3.4856510583       -2.5673987046       -1.4433505875
	 C          -2.8846805827       -0.5179179936       -0.7177787662
	 C          -0.5393107369       -0.1486202386        0.8921557967
	 C          -4.4012369650        1.8117926666       -1.3849181084
	 C           1.8336847810       -0.0665892445       -0.8015374903
	 H          -0.7203010563        1.5613393909        1.9946849790
	 H          -0.4343496091       -1.7443608523        2.1711236473
	 C           4.5320558742        0.1051549500        0.4079212691
	 H           1.6321017577        1.4466146228       -2.1772965310
	 H           1.7642075400       -1.7836918655       -1.9168215167
	 C           4.9194129127        1.3224615213        3.0133747559
	 H           5.3102020677       -1.7914361465        0.5058483786
	 H           5.7379807321        1.1120503227       -0.9113491166
	 H           3.9316720644        0.3267254411        4.4992895701
	 H           4.3069553663        3.2804123813        3.0374173585
	 H           6.9107617184        1.3096402221        3.5056575438
	 H          -5.8545065147        1.3352353943       -2.7394110199
	 H          -3.1867121277        3.2777870595       -2.1517381642
	 H          -5.2749377746        2.5742982125        0.3103052725
	            -0.0004839172       -0.0006155172       -0.0003808460
	             0.0005477239        0.0003969301        0.0018781736
	            -0.0072619562        0.0006284573       -0.0029345999
	            -0.0000111068       -0.0001163432       -0.0000223366
	            -0.0041878450        0.0002734363        0.0033088898
	            -0.0011098066       -0.0025954168       -0.0027577017
	            -0.0009747592       -0.0001058708       -0.0012217290
	             0.0019568196        0.0050474583       -0.0015221933
	             0.0011389458       -0.0032778366       -0.0034367491
	            -0.0030891884        0.0005277458        0.0009878426
	             0.0063570176       -0.0037940174        0.0042535218
	             0.0015437426        0.0010246048       -0.0003149566
	             0.0013717490        0.0008186710        0.0023698627
	             0.0030957042        0.0014158210       -0.0013181962
	             0.0013174832       -0.0005066364       -0.0006372231
	            -0.0001978167        0.0007863950        0.0018068468
	            -0.0000201763        0.0000455379       -0.0000418930
	             0.0000131547        0.0000203060       -0.0000461154
	            -0.0000057681        0.0000262749        0.0000294025

	---Fragment 1 Intrafragment Coordinates---
	 - Coordinate -           - BOHR/RAD -       - ANG/DEG -
	 R(1,2)           =         2.255658	       1.193643
	 R(2,3)           =         2.868629	       1.518013
	 R(2,4)           =         2.858771	       1.512796
	 R(3,5)           =         2.916579	       1.543387
	 R(3,6)           =         2.042618	       1.080907
	 R(3,7)           =         2.047722	       1.083608
	 R(4,17)          =         2.042976	       1.081096
	 R(4,18)          =         2.052370	       1.086068
	 R(4,19)          =         2.053911	       1.086883
	 R(5,8)           =         2.962008	       1.567427
	 R(5,9)           =         2.055027	       1.087473
	 R(5,10)          =         2.048689	       1.084120
	 R(8,11)          =         2.901770	       1.535551
	 R(8,12)          =         2.052355	       1.086059
	 R(8,13)          =         2.051479	       1.085596
	 R(11,14)         =         2.043298	       1.081267
	 R(11,15)         =         2.051647	       1.085685
	 R(11,16)         =         2.051335	       1.085520
	 B(1,2,3)         =         2.112184	     121.019236
	 B(1,2,4)         =         2.122386	     121.603746
	 B(2,3,5)         =         1.920825	     110.055185
	 B(2,3,6)         =         1.915856	     109.770440
	 B(2,3,7)         =         1.867233	     106.984576
	 B(2,4,17)        =         1.919830	     109.998182
	 B(2,4,18)        =         1.934102	     110.815878
	 B(2,4,19)        =         1.913030	     109.608555
	 B(3,2,4)         =         2.048549	     117.373211
	 B(3,5,8)         =         2.101010	     120.378992
	 B(3,5,9)         =         1.906744	     109.248362
	 B(3,5,10)        =         1.838967	     105.365022
	 B(5,3,6)         =         1.941203	     111.222722
	 B(5,3,7)         =         1.920815	     110.054587
	 B(5,8,11)        =         2.108960	     120.834498
	 B(5,8,12)        =         1.887360	     108.137755
	 B(5,8,13)        =         1.876940	     107.540734
	 B(6,3,7)         =         1.896294	     108.649640
	 B(8,5,9)         =         1.896551	     108.664353
	 B(8,5,10)        =         1.877355	     107.564507
	 B(8,11,14)       =         1.964912	     112.581176
	 B(8,11,15)       =         1.950903	     111.778493
	 B(8,11,16)       =         1.920309	     110.025604
	 B(9,5,10)        =         1.822846	     104.441409
	 B(11,8,12)       =         1.869427	     107.110291
	 B(11,8,13)       =         1.868206	     107.040345
	 B(12,8,13)       =         1.835241	     105.151549
	 B(14,11,15)      =         1.888341	     108.193969
	 B(14,11,16)      =         1.866806	     106.960080
	 B(15,11,16)      =         1.868100	     107.034231
	 B(17,4,18)       =         1.917563	     109.868293
	 B(17,4,19)       =         1.908391	     109.342751
	 B(18,4,19)       =         1.870176	     107.153200
	 D(1,2,3,5)       =         1.419684	      81.341886
	 D(1,2,3,6)       =        -2.721416	    -155.925669
	 D(1,2,3,7)       =        -0.666880	     -38.209396
	 D(1,2,4,17)      =        -0.126427	      -7.243739
	 D(1,2,4,18)      =        -2.250271	    -128.931031
	 D(1,2,4,19)      =         1.972388	     113.009504
	 D(2,3,5,8)       =        -3.065186	    -175.622199
	 D(2,3,5,9)       =         1.006682	      57.678610
	 D(2,3,5,10)      =        -0.943016	     -54.030846
	 D(3,2,4,17)      =         3.002894	     172.053177
	 D(3,2,4,18)      =         0.879051	      50.365884
	 D(3,2,4,19)      =        -1.181476	     -67.693581
	 D(3,5,8,11)      =        -0.470663	     -26.967017
	 D(3,5,8,12)      =         1.689824	      96.819802
	 D(3,5,8,13)      =        -2.619767	    -150.101611
	 D(4,2,3,5)       =        -1.709714	     -97.959380
	 D(4,2,3,6)       =         0.432372	      24.773066
	 D(4,2,3,7)       =         2.486908	     142.489339
	 D(5,8,11,14)     =         1.087373	      62.301871
	 D(5,8,11,15)     =        -1.042387	     -59.724361
	 D(5,8,11,16)     =        -3.115412	    -178.499956
	 D(6,3,5,8)       =         1.090901	      62.504045
	 D(6,3,5,9)       =        -1.120417	     -64.195146
	 D(6,3,5,10)      =        -3.070114	    -175.904603
	 D(7,3,5,8)       =        -1.011536	     -57.956720
	 D(7,3,5,9)       =         3.060332	     175.344089
	 D(7,3,5,10)      =         1.110634	      63.634632
	*D(9,5,8,11)      =         1.745329	      99.999991
	 D(9,5,8,12)      =        -2.377369	    -136.213190
	 D(9,5,8,13)      =        -0.403775	     -23.134603
	 D(10,5,8,11)     =        -2.573987	    -147.478608
	 D(10,5,8,12)     =        -0.413500	     -23.691789
	 D(10,5,8,13)     =         1.560094	      89.386798
	 D(12,8,11,14)    =        -1.081552	     -61.968354
	 D(12,8,11,15)    =         3.071874	     176.005414
	 D(12,8,11,16)    =         0.998849	      57.229819
	 D(13,8,11,14)    =        -3.042562	    -174.325986
	 D(13,8,11,15)    =         1.110863	      63.647782
	 D(13,8,11,16)    =        -0.962162	     -55.127813

	Current energy   :      -309.0552268414

	Energy change for the previous step:
		Projected    :        -0.0164033673
		Actual       :        -0.0006307906
	Energy ratio indicates iffy step: Trust radius decreased to 1.250e-01.


	Performing BFGS update.
	Previous computed or guess Hessian on step 1.
	Steps to be used in Hessian update: 1
	Taking RFO optimization step.
	Going to follow RFO solution 1.
	Using RFO vector 1.

	Determining step-restricting scale parameter for RS-RFO.
	Maximum step size allowed    0.12500

	 Iter      |step|        alpha        rfo_root  
	------------------------------------------------
	    0     0.14656       1.00000           1
	    1     0.13241       1.53517           1
	    2     0.12644       1.95616           1
	    3     0.12507       2.08158           1
	    4     0.12500       2.08860           1
	------------------------------------------------
	Norm of target step-size    0.12500
	Projected energy change by RFO approximation:        -0.0041709648

	Back-transformation to cartesian coordinates...
	Successfully converged to displaced geometry.

	Back-transformation to cartesian coordinates to adjust frozen coordinates...
	Successfully converged to displaced geometry.

	--- Internal Coordinate Step in ANG or DEG, aJ/ANG or AJ/DEG ---
	 ---------------------------------------------------------------------------
	   Coordinate                Previous        Force       Change         New 
	   ----------                --------       ------       ------       ------
	    1 R(1,2)          =      1.193643    -0.006679    -0.000249     1.193393
	    2 R(2,3)          =      1.518013     0.006560     0.000849     1.518862
	    3 R(2,4)          =      1.512796    -0.000097    -0.000011     1.512786
	    4 R(3,5)          =      1.543387    -0.036618    -0.004940     1.538447
	    5 R(3,6)          =      1.080907     0.029354     0.003248     1.084155
	    6 R(3,7)          =      1.083608     0.006019     0.000667     1.084275
	    7 R(4,17)         =      1.081096    -0.000260    -0.000029     1.081067
	    8 R(4,18)         =      1.086068    -0.000326    -0.000037     1.086031
	    9 R(4,19)         =      1.086883    -0.000301    -0.000034     1.086849
	   10 R(5,8)          =      1.567427    -0.133810    -0.017373     1.550054
	   11 R(5,9)          =      1.087473     0.001850     0.000193     1.087666
	   12 R(5,10)         =      1.084120     0.007212     0.000790     1.084910
	   13 R(8,11)         =      1.535551    -0.034741    -0.004541     1.531010
	   14 R(8,12)         =      1.086059     0.003102     0.000325     1.086384
	   15 R(8,13)         =      1.085596     0.002602     0.000266     1.085863
	   16 R(11,14)        =      1.081267     0.025911     0.002863     1.084130
	   17 R(11,15)        =      1.085685     0.007285     0.000822     1.086507
	   18 R(11,16)        =      1.085520    -0.001950    -0.000219     1.085301
	   19 B(1,2,3)        =    121.019236    -0.000033    -0.058044   120.961192
	   20 B(1,2,4)        =    121.603746     0.000021     0.038779   121.642525
	   21 B(2,3,5)        =    110.055185    -0.000122    -0.238667   109.816518
	   22 B(2,3,6)        =    109.770440     0.000105     0.351128   110.121568
	   23 B(2,3,7)        =    106.984576     0.000095     0.348929   107.333506
	   24 B(2,4,17)       =    109.998182    -0.000005    -0.015648   109.982534
	   25 B(2,4,18)       =    110.815878     0.000001     0.004747   110.820625
	   26 B(2,4,19)       =    109.608555    -0.000000    -0.001857   109.606699
	   27 B(3,2,4)        =    117.373211     0.000012     0.021275   117.394486
	   28 B(3,5,8)        =    120.378992    -0.001385    -2.838286   117.540706
	   29 B(3,5,9)        =    109.248362     0.000444     1.134919   110.383281
	   30 B(3,5,10)       =    105.365022     0.000604     1.536734   106.901756
	   31 B(5,3,6)        =    111.222722    -0.000022    -0.146327   111.076396
	   32 B(5,3,7)        =    110.054587    -0.000001    -0.083936   109.970651
	   33 B(5,8,11)       =    120.834498    -0.001400    -2.967522   117.866975
	   34 B(5,8,12)       =    108.137755     0.000357     0.069317   108.207072
	   35 B(5,8,13)       =    107.540734     0.000279     0.401906   107.942641
	   36 B(6,3,7)        =    108.649640    -0.000049    -0.211681   108.437960
	   37 B(8,5,9)        =    108.664353     0.000431     0.655277   109.319630
	   38 B(8,5,10)       =    107.564507     0.000220    -0.149725   107.414782
	   39 B(8,11,14)      =    112.581176    -0.000107    -0.304151   112.277025
	   40 B(8,11,15)      =    111.778493     0.000078     0.246041   112.024534
	   41 B(8,11,16)      =    110.025604    -0.000176    -0.494761   109.530843
	   42 B(9,5,10)       =    104.441409    -0.000183    -0.038302   104.403106
	   43 B(11,8,12)      =    107.110291     0.000430     0.497766   107.608056
	   44 B(11,8,13)      =    107.040345     0.000618     1.972792   109.013137
	   45 B(12,8,13)      =    105.151549    -0.000159     0.383914   105.535463
	   46 B(14,11,15)     =    108.193969    -0.000025    -0.141565   108.052404
	   47 B(14,11,16)     =    106.960080     0.000157     0.421680   107.381760
	   48 B(15,11,16)     =    107.034231     0.000087     0.315070   107.349301
	   49 B(17,4,18)      =    109.868293     0.000004     0.013859   109.882152
	   50 B(17,4,19)      =    109.342751     0.000001    -0.002347   109.340404
	   51 B(18,4,19)      =    107.153200     0.000000     0.001655   107.154855
	   52 D(1,2,3,5)      =     81.341886     0.000001     0.064073    81.405959
	   53 D(1,2,3,6)      =   -155.925669    -0.000007    -0.044788  -155.970456
	   54 D(1,2,3,7)      =    -38.209396     0.000004     0.092234   -38.117162
	   55 D(1,2,4,17)     =     -7.243739     0.000000    -0.128952    -7.372690
	   56 D(1,2,4,18)     =   -128.931031    -0.000000    -0.139027  -129.070058
	   57 D(1,2,4,19)     =    113.009504    -0.000000    -0.142787   112.866716
	   58 D(2,3,5,8)      =   -175.622199    -0.000003     0.632022  -174.990176
	   59 D(2,3,5,9)      =     57.678610     0.000030     1.046195    58.724806
	   60 D(2,3,5,10)     =    -54.030846    -0.000034    -0.213796   -54.244643
	   61 D(3,2,4,17)     =    172.053177     0.000000     0.090793   172.143969
	   62 D(3,2,4,18)     =     50.365884    -0.000000     0.080718    50.446602
	   63 D(3,2,4,19)     =    -67.693581    -0.000000     0.076957   -67.616624
	   64 D(3,5,8,11)     =    -26.967017     0.000030     0.163843   -26.803174
	   65 D(3,5,8,12)     =     96.819802    -0.000009    -1.337918    95.481884
	   66 D(3,5,8,13)     =   -150.101611     0.000019    -0.658579  -150.760190
	   67 D(4,2,3,5)      =    -97.959380     0.000001    -0.154804   -98.114183
	   68 D(4,2,3,6)      =     24.773066    -0.000008    -0.263665    24.509402
	   69 D(4,2,3,7)      =    142.489339     0.000004    -0.126643   142.362696
	   70 D(5,8,11,14)    =     62.301871    -0.000011    -0.143595    62.158276
	   71 D(5,8,11,15)    =    -59.724361     0.000001     0.082209   -59.642152
	   72 D(5,8,11,16)    =   -178.499956    -0.000009    -0.141816  -178.641772
	   73 D(6,3,5,8)      =     62.504045    -0.000011     0.449008    62.953054
	   74 D(6,3,5,9)      =    -64.195146     0.000022     0.863181   -63.331964
	   75 D(6,3,5,10)     =   -175.904603    -0.000042    -0.396810  -176.301413
	   76 D(7,3,5,8)      =    -57.956720     0.000007     0.864267   -57.092454
	   77 D(7,3,5,9)      =    175.344089     0.000040     1.278439   176.622528
	   78 D(7,3,5,10)     =     63.634632    -0.000024     0.018448    63.653080
	   79 *D(9,5,8,11)    =     99.999991     0.000000     0.000000    99.999991
	   80 D(9,5,8,12)     =   -136.213190    -0.000039    -1.501761  -137.714951
	   81 D(9,5,8,13)     =    -23.134603    -0.000010    -0.822422   -23.957025
	   82 D(10,5,8,11)    =   -147.478608     0.000024     0.197615  -147.280993
	   83 D(10,5,8,12)    =    -23.691789    -0.000015    -1.304146   -24.995935
	   84 D(10,5,8,13)    =     89.386798     0.000014    -0.624807    88.761991
	   85 D(12,8,11,14)   =    -61.968354     0.000032     1.537002   -60.431352
	   86 D(12,8,11,15)   =    176.005414     0.000044     1.762806   177.768220
	   87 D(12,8,11,16)   =     57.229819     0.000034     1.538781    58.768600
	   88 D(13,8,11,14)   =   -174.325986    -0.000036    -0.095347  -174.421332
	   89 D(13,8,11,15)   =     63.647782    -0.000024     0.130457    63.778240
	   90 D(13,8,11,16)   =    -55.127813    -0.000034    -0.093568   -55.221380
	 ---------------------------------------------------------------------------

  ==> Convergence Check <==

  Measures of convergence in internal coordinates in au.
  Criteria marked as inactive (o), active & met (*), and active & unmet ( ).
  ---------------------------------------------------------------------------------------------
   Step     Total Energy     Delta E     MAX Force     RMS Force      MAX Disp      RMS Disp   
  ---------------------------------------------------------------------------------------------
    Convergence Criteria    1.00e-06 *    3.00e-04 *             o    1.20e-03 *             o
  ---------------------------------------------------------------------------------------------
      2    -309.05522684   -6.31e-04      1.84e-02      3.89e-03 o    5.18e-02      1.32e-02 o  ~
  ---------------------------------------------------------------------------------------------

	Writing optimization data to binary file.
	Structure for next step:
	Cartesian Geometry (in Angstrom)
	    O    -1.8208943454  -1.3553000441  -0.7138365703
	    C    -1.4911311215  -0.2671252269  -0.3514562103
	    C    -0.2267845589  -0.0654483226   0.4656696918
	    C    -2.3025977012   0.9629934795  -0.6932908175
	    C     0.9970725102  -0.0351937509  -0.4660377700
	    H    -0.2986903614   0.8483325683   1.0446569639
	    H    -0.1490520301  -0.9011492933   1.1521194907
	    C     2.3978173243   0.0435248407   0.1930417120
	    H     0.8975442787   0.7646682067  -1.1963345096
	    H     0.9666483668  -0.9449288059  -1.0563641848
	    C     2.5030258155   0.6945878807   1.5747215544
	    H     2.7918758852  -0.9655989255   0.2743924570
	    H     3.0618024233   0.5605886830  -0.4931552264
	    H     1.9339015919   0.1587640790   2.3259392875
	    H     2.1618709890   1.7261090707   1.5661143729
	    H     3.5397919795   0.6992707731   1.8956160867
	    H    -3.0914924249   0.7044856461  -1.3857687663
	    H    -1.6712019941   1.7345361298  -1.1240165940
	    H    -2.7395105882   1.3750149974   0.2125714892
			--------------------------
			 OPTKING Finished Execution 
			--------------------------

    Structure for next step:
    Molecular point group: c1
    Full point group: C1

    Geometry (in Angstrom), charge = 0, multiplicity = 1:

    O           -1.829538511068    -1.356572054263    -0.718781696398
    C           -1.499775312335    -0.268397320215    -0.356401364074
    C           -0.235428846360    -0.066720431290     0.460724475613
    C           -2.311241830063     0.961721292318    -0.698235945220
    C            0.988428129350    -0.036465861849    -0.470982915041
    H           -0.307334643329     0.847060389821     1.039711703542
    H           -0.157696323416    -0.902421338164     1.147174222105
    C            2.389172836465     0.042252723698     0.188096516601
    H            0.888899905365     0.763396034626    -1.201279598892
    H            0.958003988216    -0.946200847402    -1.061309284784
    C            2.494381319651     0.693315713992     1.569776253491
    H            2.783231367277    -0.966870965421     0.269447255425
    H            3.053157884718     0.559316526525    -0.498100369314
    H            1.925257139481     0.157491953145     2.320993929252
    H            2.153226519116     1.724836825189     1.561169072656
    H            3.531147404415     0.697998605966     1.890670761304
    H           -3.100136493554     0.703213478602    -1.390713841115
    H           -1.679846171251     1.733263883650    -1.128961688817
    H           -2.748154683779     1.373742778758     0.207626292315

gradient() will perform analytic gradient computation.

*** tstart() called on cx1-1-3-4.cx1.hpc.ic.ac.uk
*** at Fri Sep  2 12:58:16 2016


         ---------------------------------------------------------
                                   SCF
            by Justin Turney, Rob Parrish, and Andy Simmonett
                              RHF Reference
                        4 Threads,   2000 MiB Core
         ---------------------------------------------------------

  ==> Geometry <==

    Molecular point group: c1
    Full point group: C1

    Geometry (in Angstrom), charge = 0, multiplicity = 1:

       Center              X                  Y                   Z               Mass       
    ------------   -----------------  -----------------  -----------------  -----------------
           O         -1.829538511068    -1.356572054263    -0.718781696398    15.994914619560
           C         -1.499775312335    -0.268397320215    -0.356401364074    12.000000000000
           C         -0.235428846360    -0.066720431290     0.460724475613    12.000000000000
           C         -2.311241830063     0.961721292318    -0.698235945220    12.000000000000
           C          0.988428129350    -0.036465861849    -0.470982915041    12.000000000000
           H         -0.307334643329     0.847060389821     1.039711703542     1.007825032070
           H         -0.157696323416    -0.902421338164     1.147174222105     1.007825032070
           C          2.389172836465     0.042252723698     0.188096516601    12.000000000000
           H          0.888899905365     0.763396034626    -1.201279598892     1.007825032070
           H          0.958003988216    -0.946200847402    -1.061309284784     1.007825032070
           C          2.494381319651     0.693315713992     1.569776253491    12.000000000000
           H          2.783231367277    -0.966870965421     0.269447255425     1.007825032070
           H          3.053157884718     0.559316526525    -0.498100369314     1.007825032070
           H          1.925257139481     0.157491953145     2.320993929252     1.007825032070
           H          2.153226519116     1.724836825189     1.561169072656     1.007825032070
           H          3.531147404415     0.697998605966     1.890670761304     1.007825032070
           H         -3.100136493554     0.703213478602    -1.390713841115     1.007825032070
           H         -1.679846171251     1.733263883650    -1.128961688817     1.007825032070
           H         -2.748154683779     1.373742778758     0.207626292315     1.007825032070

  Running in c1 symmetry.

  Rotational constants: A =      0.18762  B =      0.03901  C =      0.03653 [cm^-1]
  Rotational constants: A =   5624.64222  B =   1169.42123  C =   1095.01808 [MHz]
  Nuclear repulsion =  304.006140682057151

  Charge       = 0
  Multiplicity = 1
  Electrons    = 56
  Nalpha       = 28
  Nbeta        = 28

  ==> Algorithm <==

  SCF Algorithm Type is DF.
  DIIS enabled.
  MOM disabled.
  Fractional occupation disabled.
  Guess Type is READ.
  Energy threshold   = 1.00e-08
  Density threshold  = 1.00e-08
  Integral threshold = 0.00e+00

  ==> Primary Basis <==

  Basis Set: 6-31G*
    Number of shells: 66
    Number of basis function: 129
    Number of Cartesian functions: 129
    Spherical Harmonics?: false
    Max angular momentum: 2

  ==> Pre-Iterations <==

   -------------------------------------------------------
    Irrep   Nso     Nmo     Nalpha   Nbeta   Ndocc  Nsocc
   -------------------------------------------------------
     A        129     129       0       0       0       0
   -------------------------------------------------------
    Total     129     129      28      28      28       0
   -------------------------------------------------------

 OEINTS: Overlap, kinetic, potential, dipole, and quadrupole integrals
         stored in file 35.

  ==> Integral Setup <==

  ==> DFJK: Density-Fitted J/K Matrices <==

    J tasked:                  Yes
    K tasked:                  Yes
    wK tasked:                  No
    OpenMP threads:              4
    Integrals threads:           4
    Memory (MB):              1430
    Algorithm:                Core
    Integral Cache:           NONE
    Schwarz Cutoff:          1E-12
    Fitting Condition:       1E-12

   => Auxiliary Basis Set <=

  Basis Set: 
    Number of shells: 276
    Number of basis function: 867
    Number of Cartesian functions: 867
    Spherical Harmonics?: false
    Max angular momentum: 3

  Minimum eigenvalue in the overlap matrix is 3.4369474584E-03.
  Using Symmetric Orthogonalization.
  SCF Guess: Reading in previously saved MOs, projecting if necessary.

  Using orbitals from previous SCF, no projection.
  Recomputing DOCC and SOCC from number of alpha and beta electrons from previous calculation.
              A 
    DOCC [    28 ]

  ==> Iterations <==

                           Total Energy        Delta E     RMS |[F,P]|

   @DF-RHF iter   0:  -309.05822822064800   -3.09058e+02   8.07626e-04 
   @DF-RHF iter   1:  -309.05739851151299    8.29709e-04   1.33439e-04 
   @DF-RHF iter   2:  -309.05768389218537   -2.85381e-04   4.55011e-05 DIIS
   @DF-RHF iter   3:  -309.05772558784651   -4.16957e-05   1.43648e-05 DIIS
   @DF-RHF iter   4:  -309.05772878182796   -3.19398e-06   5.30187e-06 DIIS
   @DF-RHF iter   5:  -309.05772972824224   -9.46414e-07   3.10469e-06 DIIS
   @DF-RHF iter   6:  -309.05773004254996   -3.14308e-07   1.32777e-06 DIIS
[...]
	 R(11,14)         =         2.049066	       1.084319
	 R(11,15)         =         2.053580	       1.086708
	 R(11,16)         =         2.051094	       1.085392
	 B(1,2,3)         =         2.111136	     120.959165
	 B(1,2,4)         =         2.123268	     121.654292
	 B(2,3,5)         =         1.922156	     110.131403
	 B(2,3,6)         =         1.924044	     110.239577
	 B(2,3,7)         =         1.875799	     107.475355
	 B(2,4,17)        =         1.919685	     109.989861
	 B(2,4,18)        =         1.934712	     110.850858
	 B(2,4,19)        =         1.912231	     109.562784
	 B(3,2,4)         =         2.048676	     117.380494
	 B(3,5,8)         =         2.026245	     116.095278
	 B(3,5,9)         =         1.930111	     110.587190
	 B(3,5,10)        =         1.872138	     107.265600
	 B(5,3,6)         =         1.934004	     110.810290
	 B(5,3,7)         =         1.916278	     109.794669
	 B(5,8,11)        =         2.033023	     116.483633
	 B(5,8,12)        =         1.891540	     108.377239
	 B(5,8,13)        =         1.896434	     108.657674
	 B(6,3,7)         =         1.890375	     108.310529
	 B(8,5,9)         =         1.912294	     109.566383
	 B(8,5,10)        =         1.886954	     108.114475
	 B(8,11,14)       =         1.950955	     111.781511
	 B(8,11,15)       =         1.955370	     112.034474
	 B(8,11,16)       =         1.920742	     110.050429
	 B(9,5,10)        =         1.824213	     104.519685
	 B(11,8,12)       =         1.876114	     107.493425
	 B(11,8,13)       =         1.909267	     109.392930
	 B(12,8,13)       =         1.848748	     105.925472
	 B(14,11,15)      =         1.882957	     107.885476
	 B(14,11,16)      =         1.875674	     107.468211
	 B(15,11,16)      =         1.874692	     107.411918
	 B(17,4,18)       =         1.917973	     109.891776
	 B(17,4,19)       =         1.908179	     109.330586
	 B(18,4,19)       =         1.870304	     107.160545
	 D(1,2,3,5)       =         1.423703	      81.572201
	 D(1,2,3,6)       =        -2.720085	    -155.849405
	 D(1,2,3,7)       =        -0.663253	     -38.001611
	 D(1,2,4,17)      =        -0.129846	      -7.439653
	 D(1,2,4,18)      =        -2.254513	    -129.174094
	 D(1,2,4,19)      =         1.968114	     112.764629
	 D(2,3,5,8)       =        -3.070796	    -175.943670
	 D(2,3,5,9)       =         1.020004	      58.441918
	 D(2,3,5,10)      =        -0.959255	     -54.961246
	 D(3,2,4,17)      =         2.996269	     171.673569
	 D(3,2,4,18)      =         0.871602	      49.939128
	 D(3,2,4,19)      =        -1.188956	     -68.122149
	 D(3,5,8,11)      =        -0.456061	     -26.130363
	 D(3,5,8,12)      =         1.660889	      95.161918
	 D(3,5,8,13)      =        -2.620979	    -150.171022
	 D(4,2,3,5)       =        -1.702526	     -97.547540
	 D(4,2,3,6)       =         0.436871	      25.030853
	 D(4,2,3,7)       =         2.493703	     142.878648
	 D(5,8,11,14)     =         1.086504	      62.252071
	 D(5,8,11,15)     =        -1.029406	     -58.980647
	 D(5,8,11,16)     =        -3.113851	    -178.410548
	 D(6,3,5,8)       =         1.078866	      61.814487
	 D(6,3,5,9)       =        -1.113519	     -63.799925
	 D(6,3,5,10)      =        -3.092777	    -177.203089
	 D(7,3,5,8)       =        -1.008606	     -57.788863
	 D(7,3,5,9)       =         3.082194	     176.596724
	 D(7,3,5,10)      =         1.102936	      63.193560
	*D(9,5,8,11)      =         1.745329	      99.999991
	 D(9,5,8,12)      =        -2.420907	    -138.707728
	 D(9,5,8,13)      =        -0.419589	     -24.040668
	 D(10,5,8,11)     =        -2.559661	    -146.657783
	 D(10,5,8,12)     =        -0.442712	     -25.365502
	 D(10,5,8,13)     =         1.558606	      89.301558
	 D(12,8,11,14)    =        -1.038586	     -59.506569
	 D(12,8,11,15)    =         3.128690	     179.260713
	 D(12,8,11,16)    =         1.044245	      59.830812
	 D(13,8,11,14)    =        -3.038361	    -174.085258
	 D(13,8,11,15)    =         1.128914	      64.682024
	 D(13,8,11,16)    =        -0.955531	     -54.747877

	Current energy   :      -309.0580546735

	Energy change for the previous step:
		Projected    :        -0.0000000381
		Actual       :        -0.0000000378
	Energy ratio indicates good step: Trust radius increased to 2.812e-01.


	Performing BFGS update.
	Previous computed or guess Hessian on step 1.
	Denominators (dg)(dq) or (dq)(dq) are very small.
	 Skipping Hessian update for step 10.
	Steps to be used in Hessian update: 9 8
	Taking RFO optimization step.
	Going to follow RFO solution 1.
	Rejecting RFO root 1 because normalization gives large value.
	Using RFO vector 2.
	Norm of target step-size    0.00414
	Projected energy change by RFO approximation:        -0.0000000601

	Back-transformation to cartesian coordinates...
	Successfully converged to displaced geometry.

	Back-transformation to cartesian coordinates to adjust frozen coordinates...
	Successfully converged to displaced geometry.

	--- Internal Coordinate Step in ANG or DEG, aJ/ANG or AJ/DEG ---
	 ---------------------------------------------------------------------------
	   Coordinate                Previous        Force       Change         New 
	   ----------                --------       ------       ------       ------
	    1 R(1,2)          =      1.193315    -0.000001    -0.000000     1.193315
	    2 R(2,3)          =      1.518940    -0.000044    -0.000010     1.518930
	    3 R(2,4)          =      1.512783     0.000035     0.000008     1.512792
	    4 R(3,5)          =      1.536534    -0.000031    -0.000012     1.536522
	    5 R(3,6)          =      1.084670     0.000028     0.000006     1.084675
	    6 R(3,7)          =      1.084294    -0.000025    -0.000004     1.084290
	    7 R(4,17)         =      1.081090     0.000002     0.000000     1.081091
	    8 R(4,18)         =      1.085984    -0.000041    -0.000010     1.085974
	    9 R(4,19)         =      1.086861     0.000027     0.000007     1.086868
	   10 R(5,8)          =      1.546657     0.000007     0.000006     1.546664
	   11 R(5,9)          =      1.087851    -0.000015    -0.000003     1.087848
	   12 R(5,10)         =      1.085423     0.000025     0.000004     1.085427
	   13 R(8,11)         =      1.530436    -0.000006    -0.000003     1.530433
	   14 R(8,12)         =      1.086736     0.000001    -0.000000     1.086735
	   15 R(8,13)         =      1.085515    -0.000012    -0.000002     1.085513
	   16 R(11,14)        =      1.084319    -0.000010    -0.000002     1.084317
	   17 R(11,15)        =      1.086708     0.000008     0.000001     1.086709
	   18 R(11,16)        =      1.085392     0.000001     0.000001     1.085393
	   19 B(1,2,3)        =    120.959165     0.000000     0.001440   120.960605
	   20 B(1,2,4)        =    121.654292    -0.000000    -0.000800   121.653492
	   21 B(2,3,5)        =    110.131403     0.000000    -0.000547   110.130856
	   22 B(2,3,6)        =    110.239577    -0.000000    -0.000940   110.238638
	   23 B(2,3,7)        =    107.475355    -0.000000     0.000469   107.475824
	   24 B(2,4,17)       =    109.989861    -0.000000    -0.000677   109.989184
	   25 B(2,4,18)       =    110.850858     0.000001     0.004168   110.855026
	   26 B(2,4,19)       =    109.562784    -0.000000    -0.002653   109.560131
	   27 B(3,2,4)        =    117.380494    -0.000000    -0.000719   117.379775
	   28 B(3,5,8)        =    116.095278    -0.000000    -0.002270   116.093008
	   29 B(3,5,9)        =    110.587190     0.000000     0.001650   110.588840
	   30 B(3,5,10)       =    107.265600     0.000000     0.000836   107.266436
	   31 B(5,3,6)        =    110.810290    -0.000000    -0.001393   110.808897
	   32 B(5,3,7)        =    109.794669    -0.000000     0.000350   109.795019
	   33 B(5,8,11)       =    116.483633    -0.000000    -0.000319   116.483314
	   34 B(5,8,12)       =    108.377239     0.000000     0.001252   108.378491
	   35 B(5,8,13)       =    108.657674    -0.000000    -0.001434   108.656240
	   36 B(6,3,7)        =    108.310529     0.000000     0.002170   108.312699
	   37 B(8,5,9)        =    109.566383     0.000000     0.001794   109.568177
	   38 B(8,5,10)       =    108.114475     0.000000    -0.000929   108.113546
	   39 B(8,11,14)      =    111.781511    -0.000000    -0.000034   111.781477
	   40 B(8,11,15)      =    112.034474    -0.000000    -0.000386   112.034089
	   41 B(8,11,16)      =    110.050429     0.000000    -0.000006   110.050423
	   42 B(9,5,10)       =    104.519685    -0.000000    -0.001093   104.518592
	   43 B(11,8,12)      =    107.493425    -0.000000     0.000314   107.493739
	   44 B(11,8,13)      =    109.392930     0.000000     0.000987   109.393916
	   45 B(12,8,13)      =    105.925472    -0.000000    -0.000834   105.924638
	   46 B(14,11,15)     =    107.885476     0.000000     0.001020   107.886496
	   47 B(14,11,16)     =    107.468211    -0.000000    -0.000251   107.467960
	   48 B(15,11,16)     =    107.411918     0.000000    -0.000338   107.411580
	   49 B(17,4,18)      =    109.891776    -0.000000     0.001319   109.893095
	   50 B(17,4,19)      =    109.330586    -0.000000    -0.002716   109.327870
	   51 B(18,4,19)      =    107.160545     0.000000     0.000479   107.161023
	   52 D(1,2,3,5)      =     81.572201     0.000000     0.054852    81.627053
	   53 D(1,2,3,6)      =   -155.849405     0.000000     0.052100  -155.797305
	   54 D(1,2,3,7)      =    -38.001611     0.000000     0.054459   -37.947152
	   55 D(1,2,4,17)     =     -7.439653     0.000000    -0.030192    -7.469845
	   56 D(1,2,4,18)     =   -129.174094    -0.000000    -0.034162  -129.208256
	   57 D(1,2,4,19)     =    112.764629    -0.000000    -0.035628   112.729001
	   58 D(2,3,5,8)      =   -175.943670     0.000000    -0.001932  -175.945601
	   59 D(2,3,5,9)      =     58.441918    -0.000000    -0.003997    58.437921
	   60 D(2,3,5,10)     =    -54.961246    -0.000000    -0.003989   -54.965236
	   61 D(3,2,4,17)     =    171.673569     0.000000    -0.035963   171.637606
	   62 D(3,2,4,18)     =     49.939128    -0.000000    -0.039933    49.899196
	   63 D(3,2,4,19)     =    -68.122149    -0.000000    -0.041398   -68.163547
	   64 D(3,5,8,11)     =    -26.130363     0.000000    -0.002002   -26.132365
	   65 D(3,5,8,12)     =     95.161918    -0.000000    -0.000828    95.161090
	   66 D(3,5,8,13)     =   -150.171022    -0.000000    -0.001900  -150.172922
	   67 D(4,2,3,5)      =    -97.547540     0.000000     0.060601   -97.486939
	   68 D(4,2,3,6)      =     25.030853     0.000000     0.057849    25.088702
	   69 D(4,2,3,7)      =    142.878648     0.000000     0.060208   142.938856
	   70 D(5,8,11,14)    =     62.252071     0.000000     0.058044    62.310115
	   71 D(5,8,11,15)    =    -58.980647     0.000000     0.057025   -58.923623
	   72 D(5,8,11,16)    =   -178.410548     0.000000     0.057703  -178.352845
	   73 D(6,3,5,8)      =     61.814487     0.000000     0.000566    61.815053
	   74 D(6,3,5,9)      =    -63.799925     0.000000    -0.001500   -63.801425
	   75 D(6,3,5,10)     =   -177.203089     0.000000    -0.001492  -177.204581
	   76 D(7,3,5,8)      =    -57.788863     0.000000    -0.001475   -57.790338
	   77 D(7,3,5,9)      =    176.596724     0.000000    -0.003540   176.593184
	   78 D(7,3,5,10)     =     63.193560    -0.000000    -0.003533    63.190028
	   79 *D(9,5,8,11)    =     99.999991     0.000000     0.000000    99.999991
	   80 D(9,5,8,12)     =   -138.707728    -0.000000     0.001174  -138.706553
	   81 D(9,5,8,13)     =    -24.040668    -0.000000     0.000102   -24.040565
	   82 D(10,5,8,11)    =   -146.657783     0.000000    -0.000863  -146.658646
	   83 D(10,5,8,12)    =    -25.365502    -0.000000     0.000311   -25.365191
	   84 D(10,5,8,13)    =     89.301558    -0.000000    -0.000761    89.300797
	   85 D(12,8,11,14)   =    -59.506569     0.000000     0.056379   -59.450190
	   86 D(12,8,11,15)   =    179.260713     0.000000     0.055359   179.316072
	   87 D(12,8,11,16)   =     59.830812     0.000000     0.056038    59.886850
	   88 D(13,8,11,14)   =   -174.085258     0.000000     0.056692  -174.028566
	   89 D(13,8,11,15)   =     64.682024     0.000000     0.055672    64.737697
	   90 D(13,8,11,16)   =    -54.747877     0.000000     0.056351   -54.691526
	 ---------------------------------------------------------------------------

  ==> Convergence Check <==

  Measures of convergence in internal coordinates in au.
  Criteria marked as inactive (o), active & met (*), and active & unmet ( ).
  ---------------------------------------------------------------------------------------------
   Step     Total Energy     Delta E     MAX Force     RMS Force      MAX Disp      RMS Disp   
  ---------------------------------------------------------------------------------------------
    Convergence Criteria    1.00e-06 *    3.00e-04 *             o    1.20e-03 *             o
  ---------------------------------------------------------------------------------------------
     11    -309.05805467   -3.78e-08 *    8.75e-06 *    2.39e-06 o    1.06e-03 *    4.36e-04 o  ~
  ---------------------------------------------------------------------------------------------


  **** Optimization is complete! (in 11 steps) ****

  ==> Optimization Summary <==

  Measures of convergence in internal coordinates in au.
  --------------------------------------------------------------------------------------------------------------- ~
   Step         Total Energy             Delta E       MAX Force       RMS Force        MAX Disp        RMS Disp  ~
  --------------------------------------------------------------------------------------------------------------- ~
      1    -309.054596050835   -309.054596050835      0.03048616      0.00595802      0.14095737      0.03747422  ~
      2    -309.055226841388     -0.000630790553      0.01840371      0.00388610      0.05179304      0.01317338  ~
      3    -309.057730140184     -0.002503298796      0.00694283      0.00132532      0.03305907      0.01317539  ~
      4    -309.057901935284     -0.000171795100      0.00252891      0.00058857      0.03590216      0.01317436  ~
      5    -309.057965964996     -0.000064029712      0.00299956      0.00059092      0.00930419      0.00329441  ~
      6    -309.058047161680     -0.000081196684      0.00020309      0.00008250      0.00970323      0.00329404  ~
      7    -309.058054305315     -0.000007143635      0.00019068      0.00003755      0.01042618      0.00329418  ~
      8    -309.058053019068      0.000001286247      0.00005317      0.00001900      0.01061019      0.00329404  ~
      9    -309.058052767213      0.000000251855      0.00054477      0.00011010      0.00210451      0.00090893  ~
     10    -309.058054635665     -0.000001868452      0.00001415      0.00000454      0.00135988      0.00046767  ~
     11    -309.058054673457     -0.000000037792      0.00000875      0.00000239      0.00105769      0.00043636  ~
  --------------------------------------------------------------------------------------------------------------- ~

	Writing optimization data to binary file.
	Final energy is   -309.0580546734570
	Final (previous) structure:
	Cartesian Geometry (in Angstrom)
	    O    -1.8375299991  -1.3511229369  -0.6943209823
	    C    -1.4906083703  -0.2654766418  -0.3407410486
	    C    -0.2083092476  -0.0740991598   0.4506264902
	    C    -2.2922957128   0.9726941374  -0.6765142239
	    C     1.0002103088  -0.0515998057  -0.4980097247
	    H    -0.2590142043   0.8402698398   1.0318894485
	    H    -0.1212362141  -0.9093758947   1.1365020891
	    C     2.3905429823   0.0394267234   0.1734347828
	    H     0.8965718921   0.7457866544  -1.2307131809
	    H     0.9673019645  -0.9650416898  -1.0834026023
	    C     2.4397647656   0.6971952778   1.5544320496
	    H     2.7877693547  -0.9668407411   0.2765436753
	    H     3.0669619807   0.5593396988  -0.4977519019
	    H     1.8565068515   0.1460096185   2.2836460572
	    H     2.0685836720   1.7183240158   1.5331095871
	    H     3.4632362319   0.7310895554   1.9142008782
	    H    -3.0926591500   0.7211190588  -1.3583388422
	    H    -1.6579704955   1.7362318715  -1.1169716465
	    H    -2.7134036039   1.3915160191   0.2337182357
	Saving final (previous) structure.
			--------------------------
			 OPTKING Finished Execution 
			--------------------------

    Final optimized geometry and variables:
    Molecular point group: c1
    Full point group: C1

    Geometry (in Angstrom), charge = 0, multiplicity = 1:

    O           -1.837529858744    -1.351122833716    -0.694320929322
    C           -1.490608256486    -0.265476621502    -0.340741022603
    C           -0.208309231720    -0.074099154104     0.450626455759
    C           -2.292295537717     0.972694063112    -0.676514172252
    C            1.000210232370    -0.051599801734    -0.498009686623
    H           -0.259014184564     0.840269775608     1.031889369709
    H           -0.121236204844    -0.909375825293     1.136502002349
    C            2.390542799721     0.039426720405     0.173434769526
    H            0.896571823636     0.745786597479    -1.230713086908
    H            0.967301890650    -0.965041616120    -1.083402519564
    C            2.439764579269     0.697195224511     1.554431930945
    H            2.787769141844    -0.966840667219     0.276543654140
    H            3.066961746453     0.559339656118    -0.497751863932
    H            1.856506709770     0.146009607399     2.283645882837
    H            2.068583514000     1.718323884581     1.533109470061
    H            3.463235967422     0.731089499545     1.914200732066
    H           -3.092658913881     0.721119003686    -1.358338738460
    H           -1.657970368858     1.736231738938    -1.116971561207
    H           -2.713403396724     1.391515912803     0.233718217871

	Cleaning optimization helper files.


Properties will be evaluated at   0.000000,   0.000000,   0.000000 Bohr

Properties computed using the  density matrix

  Nuclear Dipole Moment: (a.u.)
     X:     6.7997      Y:     5.3825      Z:     2.9238

  Electronic Dipole Moment: (a.u.)
     X:    -6.3125      Y:    -4.3310      Z:    -2.5903

  Dipole Moment: (a.u.)
     X:     0.4872      Y:     1.0514      Z:     0.3335     Total:     1.2059

  Dipole Moment: (Debye)
     X:     1.2383      Y:     2.6725      Z:     0.8478     Total:     3.0650

  Quadrupole Moment: (Debye Ang)
    XX:   -46.4567     YY:   -48.6175     ZZ:   -45.3402
    XY:    -5.8383     XZ:    -1.9593     YZ:    -2.5927

  Traceless Quadrupole Moment: (Debye Ang)
    XX:     0.3481     YY:    -1.8127     ZZ:     1.4646
    XY:    -5.8383     XZ:    -1.9593     YZ:    -2.5927

  Mulliken Charges: (a.u.)
   Center  Symbol    Alpha    Beta     Spin     Total
       1     O     4.26208  4.26208  0.00000 -0.52416
       2     C     2.73698  2.73698  0.00000  0.52604
       3     C     3.20211  3.20211  0.00000 -0.40422
       4     C     3.28950  3.28950  0.00000 -0.57900
       5     C     3.16717  3.16717  0.00000 -0.33434
       6     H     0.41422  0.41422  0.00000  0.17156
       7     H     0.40092  0.40092  0.00000  0.19817
       8     C     3.15336  3.15336  0.00000 -0.30673
       9     H     0.41962  0.41962  0.00000  0.16076
      10     H     0.40420  0.40420  0.00000  0.19160
      11     C     3.24428  3.24428  0.00000 -0.48855
      12     H     0.41753  0.41753  0.00000  0.16494
      13     H     0.41738  0.41738  0.00000  0.16523
      14     H     0.41864  0.41864  0.00000  0.16272
      15     H     0.42234  0.42234  0.00000  0.15533
      16     H     0.41624  0.41624  0.00000  0.16753
      17     H     0.39701  0.39701  0.00000  0.20598
      18     H     0.40970  0.40970  0.00000  0.18060
      19     H     0.40673  0.40673  0.00000  0.18654

   Total alpha = 28.00000, Total beta = 28.00000, Total charge =  0.00000


*** PSI4 exiting successfully. Buy a developer a beer!
