    -----------------------------------------------------------------------
          Psi4: An Open-Source Ab Initio Electronic Structure Package
                              Psi4 (no tag) Driver

                          Git: Rev {detached?}  

    J. M. Turney, A. C. Simmonett, R. M. Parrish, E. G. Hohenstein,
    F. A. Evangelista, J. T. Fermann, B. J. Mintz, L. A. Burns, J. J. Wilke,
    M. L. Abrams, N. J. Russ, M. L. Leininger, C. L. Janssen, E. T. Seidl,
    W. D. Allen, H. F. Schaefer, R. A. King, E. F. Valeev, C. D. Sherrill,
    and T. D. Crawford, WIREs Comput. Mol. Sci. 2, 556-565 (2012)
    (doi: 10.1002/wcms.93)

                         Additional Contributions by
    A. E. DePrince, M. Saitow, U. Bozkaya, A. Yu. Sokolov
    -----------------------------------------------------------------------


    Psi4 started on: Thu Sep  1 22:44:07 2016

    Process ID:   5122
    PSI4DATADIR: /export131/home/mjharvey/miniconda3/share
    Memory level set to 256.000 MB

  ==> Input File <==

--------------------------------------------------------------------------
set {
	reference rhf
	basis 6-31G*
}


set_num_threads( 1 )
memory 2 gb

molecule MOL {
0 1

O	 -2.821601	 1.309235	 -0.001213
C	 -2.668563	 0.129746	 -0.000350
C	 -3.801572	 -0.864014	 -0.000442
O	 -1.481751	 -0.454642	 0.000584
H	 -4.417280	 -0.689587	 -0.874708
H	 -3.443784	 -1.883046	 -0.000565
H	 -4.417179	 -0.689832	 0.873954
C	 -0.334255	 0.388708	 0.000906
C	 0.891947	 -0.504646	 0.000751
H	 -0.365390	 1.025305	 -0.873475
H	 -0.365484	 1.024911	 0.875569
C	 2.191998	 0.301789	 0.000897
H	 0.855148	 -1.151283	 -0.871571
H	 0.855132	 -1.151660	 0.872805
C	 2.786289	 0.473981	 1.400002
H	 2.923223	 -0.186756	 -0.640756
H	 2.011409	 1.283118	 -0.434375
C	 4.085488	 1.278312	 1.399929
H	 2.967709	 -0.505715	 1.836302
H	 2.057748	 0.964118	 2.041925
H	 4.845844	 0.795273	 0.792849
H	 4.482164	 1.383087	 2.404870
H	 3.928988	 2.276236	 1.000349

	symmetry c1
}
set optking {
	frozen_dihedral = ("
		13 9 8 10,
		2 4 8 10,
		19 15 12 16,
		1 2 4 8
	")
}

ee = energy('scf')
oeprop('DIPOLE', 'QUADRUPOLE', 'MULLIKEN_CHARGES')
f=open( 'psi4out.xyz', 'w' )
f.write( "23  " )
f.write( str(ee) + "\n" )
f.write( MOL.save_string_xyz() )
f.close()
--------------------------------------------------------------------------

  Memory set to   2.000 GiB by Python script.

*** tstart() called on cx1-3-6-3.cx1.hpc.ic.ac.uk
*** at Thu Sep  1 22:44:08 2016


         ---------------------------------------------------------
                                   SCF
            by Justin Turney, Rob Parrish, and Andy Simmonett
                              RHF Reference
                        1 Threads,   2000 MiB Core
         ---------------------------------------------------------

  ==> Geometry <==

    Molecular point group: c1
    Full point group: C1

    Geometry (in Angstrom), charge = 0, multiplicity = 1:

       Center              X                  Y                   Z               Mass       
    ------------   -----------------  -----------------  -----------------  -----------------
           O         -2.675526090261     1.073804669008    -0.313806560012    15.994914619560
           C         -2.522488090261    -0.105684330992    -0.312943560012    12.000000000000
           C         -3.655497090261    -1.099444330992    -0.313035560012    12.000000000000
           O         -1.335676090261    -0.690072330992    -0.312009560012    15.994914619560
           H         -4.271205090261    -0.925017330992    -1.187301560012     1.007825032070
           H         -3.297709090261    -2.118476330992    -0.313158560012     1.007825032070
           H         -4.271104090261    -0.925262330992     0.561360439988     1.007825032070
           C         -0.188180090261     0.153277669008    -0.311687560012    12.000000000000
           C          1.038021909739    -0.740076330992    -0.311842560012    12.000000000000
           H         -0.219315090261     0.789874669008    -1.186068560012     1.007825032070
           H         -0.219409090261     0.789480669008     0.562975439988     1.007825032070
           C          2.338072909739     0.066358669008    -0.311696560012    12.000000000000
           H          1.001222909739    -1.386713330992    -1.184164560012     1.007825032070
           H          1.001206909739    -1.387090330992     0.560211439988     1.007825032070
           C          2.932363909739     0.238550669008     1.087408439988    12.000000000000
           H          3.069297909739    -0.422186330992    -0.953349560012     1.007825032070
           H          2.157483909739     1.047687669008    -0.746968560012     1.007825032070
           C          4.231562909739     1.042881669008     1.087335439988    12.000000000000
           H          3.113783909739    -0.741145330992     1.523708439988     1.007825032070
           H          2.203822909739     0.728687669008     1.729331439988     1.007825032070
           H          4.991918909739     0.559842669008     0.480255439988     1.007825032070
           H          4.628238909739     1.147656669008     2.092276439988     1.007825032070
           H          4.075062909739     2.040805669008     0.687755439988     1.007825032070

  Running in c1 symmetry.

  Rotational constants: A =      0.17121  B =      0.01713  C =      0.01642 [cm^-1]
  Rotational constants: A =   5132.72738  B =    513.61398  C =    492.34893 [MHz]
  Nuclear repulsion =  454.004587442599984

  Charge       = 0
  Multiplicity = 1
  Electrons    = 72
  Nalpha       = 36
  Nbeta        = 36

  ==> Algorithm <==

  SCF Algorithm Type is DF.
  DIIS enabled.
  MOM disabled.
  Fractional occupation disabled.
  Guess Type is CORE.
  Energy threshold   = 1.00e-06
  Density threshold  = 1.00e-06
  Integral threshold = 0.00e+00

  ==> Primary Basis <==

  Basis Set: 6-31G*
    Number of shells: 82
    Number of basis function: 163
    Number of Cartesian functions: 163
    Spherical Harmonics?: false
    Max angular momentum: 2

  ==> Pre-Iterations <==

   -------------------------------------------------------
    Irrep   Nso     Nmo     Nalpha   Nbeta   Ndocc  Nsocc
   -------------------------------------------------------
     A        163     163       0       0       0       0
   -------------------------------------------------------
    Total     163     163      36      36      36       0
   -------------------------------------------------------

 OEINTS: Overlap, kinetic, potential, dipole, and quadrupole integrals
         stored in file 35.

  ==> Integral Setup <==

  ==> DFJK: Density-Fitted J/K Matrices <==

    J tasked:                  Yes
    K tasked:                  Yes
    wK tasked:                  No
    OpenMP threads:              1
    Integrals threads:           1
    Memory (MB):              1430
    Algorithm:                Core
    Integral Cache:           NONE
    Schwarz Cutoff:          1E-12
    Fitting Condition:       1E-12

   => Auxiliary Basis Set <=

  Basis Set: 
    Number of shells: 342
    Number of basis function: 1079
    Number of Cartesian functions: 1079
    Spherical Harmonics?: false
    Max angular momentum: 3

  Minimum eigenvalue in the overlap matrix is 3.4508723580E-03.
  Using Symmetric Orthogonalization.
  SCF Guess: Core (One-Electron) Hamiltonian.

  ==> Iterations <==

                           Total Energy        Delta E     RMS |[F,P]|

   @DF-RHF iter   1:  -287.28357509683570   -2.87284e+02   6.38728e-02 
   @DF-RHF iter   2:   -68.16913635996872    2.19114e+02   8.18397e-02 DIIS
   @DF-RHF iter   3:  -239.12536518734515   -1.70956e+02   7.58010e-02 DIIS
   @DF-RHF iter   4:  -325.36833113263930   -8.62430e+01   5.43381e-02 DIIS
   @DF-RHF iter   5:  -313.69603661846890    1.16723e+01   5.36146e-02 DIIS
   @DF-RHF iter   6:  -407.76638169363792   -9.40703e+01   1.76397e-02 DIIS
   @DF-RHF iter   7:  -380.18889445190206    2.75775e+01   4.12758e-02 DIIS
   @DF-RHF iter   8:  -406.44378523085055   -2.62549e+01   2.41038e-02 DIIS
   @DF-RHF iter   9:  -422.58914032497381   -1.61454e+01   5.43755e-03 DIIS
   @DF-RHF iter  10:  -422.89800692786577   -3.08867e-01   2.12996e-03 DIIS
   @DF-RHF iter  11:  -422.95985127664682   -6.18443e-02   8.78129e-04 DIIS
   @DF-RHF iter  12:  -422.97243663311320   -1.25854e-02   3.98600e-04 DIIS
   @DF-RHF iter  13:  -422.97510632075040   -2.66969e-03   1.72295e-04 DIIS
   @DF-RHF iter  14:  -422.97565251511963   -5.46194e-04   5.95678e-05 DIIS
   @DF-RHF iter  15:  -422.97571265218022   -6.01371e-05   1.98931e-05 DIIS
   @DF-RHF iter  16:  -422.97572010774576   -7.45557e-06   4.93998e-06 DIIS
   @DF-RHF iter  17:  -422.97572064385730   -5.36112e-07   1.16422e-06 DIIS
   @DF-RHF iter  18:  -422.97572068819528   -4.43380e-08   3.46878e-07 DIIS

  ==> Post-Iterations <==

    Orbital Energies (a.u.)
    -----------------------

    Doubly Occupied:                                                      

       1A    -20.602960     2A    -20.540648     3A    -11.374146  
       4A    -11.281789     5A    -11.232393     6A    -11.223359  
       7A    -11.222779     8A    -11.221505     9A    -11.212498  
      10A     -1.468021    11A     -1.360815    12A     -1.095148  
      13A     -1.041061    14A     -1.002957    15A     -0.930833  
      16A     -0.845253    17A     -0.798025    18A     -0.778443  
      19A     -0.688273    20A     -0.684827    21A     -0.672936  
      22A     -0.634079    23A     -0.615995    24A     -0.586218  
      25A     -0.578844    26A     -0.572980    27A     -0.560790  
      28A     -0.531272    29A     -0.526703    30A     -0.503677  
      31A     -0.496473    32A     -0.478626    33A     -0.469437  
      34A     -0.461553    35A     -0.449045    36A     -0.435626  

    Virtual:                                                              

      37A      0.197124    38A      0.225054    39A      0.248570  
      40A      0.257249    41A      0.265033    42A      0.268582  
      43A      0.303211    44A      0.306332    45A      0.316229  
      46A      0.317379    47A      0.327559    48A      0.335639  
      49A      0.339856    50A      0.353544    51A      0.370628  
      52A      0.397228    53A      0.399720    54A      0.419748  
      55A      0.426806    56A      0.449309    57A      0.467432  
      58A      0.505267    59A      0.574335    60A      0.706787  
      61A      0.714884    62A      0.732994    63A      0.737831  
      64A      0.747728    65A      0.765805    66A      0.770819  
      67A      0.790310    68A      0.804424    69A      0.839187  
      70A      0.843766    71A      0.872638    72A      0.926087  
      73A      0.949934    74A      0.956751    75A      0.968920  
      76A      0.973516    77A      0.996272    78A      1.025314  
      79A      1.056468    80A      1.092645    81A      1.114208  
      82A      1.128448    83A      1.132730    84A      1.143601  
      85A      1.151455    86A      1.175761    87A      1.181042  
      88A      1.192575    89A      1.195367    90A      1.203663  
      91A      1.219774    92A      1.222797    93A      1.225648  
      94A      1.241906    95A      1.257642    96A      1.272448  
      97A      1.297248    98A      1.323004    99A      1.368464  
     100A      1.408028   101A      1.434852   102A      1.452614  
     103A      1.534895   104A      1.623891   105A      1.649635  
     106A      1.677310   107A      1.691445   108A      1.728682  
     109A      1.777267   110A      1.810741   111A      1.848562  
     112A      1.875593   113A      1.981511   114A      1.999287  
     115A      2.044684   116A      2.073272   117A      2.098363  
     118A      2.103544   119A      2.122252   120A      2.163753  
     121A      2.195768   122A      2.221835   123A      2.223306  
     124A      2.242196   125A      2.278081   126A      2.287533  
     127A      2.328082   128A      2.339879   129A      2.387545  
     130A      2.410434   131A      2.453771   132A      2.478046  
     133A      2.547914   134A      2.564151   135A      2.568625  
     136A      2.577221   137A      2.626807   138A      2.653237  
     139A      2.677691   140A      2.706244   141A      2.738388  
     142A      2.789401   143A      2.799890   144A      2.846846  
     145A      2.899368   146A      2.996880   147A      3.025416  
     148A      3.054066   149A      3.080851   150A      3.128111  
     151A      3.182154   152A      3.357611   153A      3.433474  
     154A      3.574879   155A      4.441980   156A      4.556311  
     157A      4.559223   158A      4.628186   159A      4.666885  
     160A      4.764636   161A      4.877615   162A      4.932010  
     163A      4.988307  

    Final Occupation by Irrep:
              A 
    DOCC [    36 ]

  Energy converged.

  @DF-RHF Final Energy:  -422.97572068819528

   => Energetics <=

    Nuclear Repulsion Energy =            454.0045874425999841
    One-Electron Energy =               -1475.6006524123392865
    Two-Electron Energy =                 598.6203442815436802
    DFT Exchange-Correlation Energy =       0.0000000000000000
    Empirical Dispersion Energy =           0.0000000000000000
    PCM Polarization Energy =               0.0000000000000000
    EFP Energy =                            0.0000000000000000
    Total Energy =                       -422.9757206881955653

    Alert: EFP and PCM quantities not currently incorporated into SCF psivars.

Properties will be evaluated at   0.000000,   0.000000,   0.000000 Bohr
  ==> Properties <==


Properties computed using the SCF density matrix

  Nuclear Dipole Moment: (a.u.)
     X:    13.0709      Y:    -0.7499      Z:     2.4596

  Electronic Dipole Moment: (a.u.)
     X:   -12.6369      Y:     0.0142      Z:    -2.4434

  Dipole Moment: (a.u.)
     X:     0.4340      Y:    -0.7356      Z:     0.0162     Total:     0.8543

  Dipole Moment: (Debye)
     X:     1.1032      Y:    -1.8698      Z:     0.0412     Total:     2.1714


  Saving occupied orbitals to File 180.

*** tstop() called on cx1-3-6-3.cx1.hpc.ic.ac.uk at Thu Sep  1 22:44:36 2016
Module time:
	user time   =      27.56 seconds =       0.46 minutes
	system time =       0.30 seconds =       0.01 minutes
	total time  =         28 seconds =       0.47 minutes
Total time:
	user time   =      27.56 seconds =       0.46 minutes
	system time =       0.30 seconds =       0.01 minutes
	total time  =         28 seconds =       0.47 minutes


Properties will be evaluated at   0.000000,   0.000000,   0.000000 Bohr

Properties computed using the  density matrix

  Nuclear Dipole Moment: (a.u.)
     X:    13.0709      Y:    -0.7499      Z:     2.4596

  Electronic Dipole Moment: (a.u.)
     X:   -12.6369      Y:     0.0142      Z:    -2.4434

  Dipole Moment: (a.u.)
     X:     0.4340      Y:    -0.7356      Z:     0.0162     Total:     0.8543

  Dipole Moment: (Debye)
     X:     1.1032      Y:    -1.8698      Z:     0.0412     Total:     2.1714

  Quadrupole Moment: (Debye Ang)
    XX:   -55.4331     YY:   -60.1724     ZZ:   -55.4195
    XY:     7.1408     XZ:    -0.2980     YZ:     0.6327

  Traceless Quadrupole Moment: (Debye Ang)
    XX:     1.5752     YY:    -3.1640     ZZ:     1.5888
    XY:     7.1408     XZ:    -0.2980     YZ:     0.6327

  Mulliken Charges: (a.u.)
   Center  Symbol    Alpha    Beta     Spin     Total
       1     O     4.28397  4.28397  0.00000 -0.56794
       2     C     2.61549  2.61549  0.00000  0.76901
       3     C     3.28779  3.28779  0.00000 -0.57558
       4     O     4.31232  4.31232  0.00000 -0.62464
       5     H     0.39750  0.39750  0.00000  0.20500
       6     H     0.39983  0.39983  0.00000  0.20033
       7     H     0.39752  0.39752  0.00000  0.20496
       8     C     2.99860  2.99860  0.00000  0.00279
       9     C     3.16617  3.16617  0.00000 -0.33234
      10     H     0.41003  0.41003  0.00000  0.17995
      11     H     0.41054  0.41054  0.00000  0.17892
      12     C     3.16384  3.16384  0.00000 -0.32768
      13     H     0.41187  0.41187  0.00000  0.17627
      14     H     0.41258  0.41258  0.00000  0.17484
      15     C     3.15315  3.15315  0.00000 -0.30630
      16     H     0.41661  0.41661  0.00000  0.16678
      17     H     0.41978  0.41978  0.00000  0.16043
      18     C     3.24008  3.24008  0.00000 -0.48016
      19     H     0.42072  0.42072  0.00000  0.15856
      20     H     0.42198  0.42198  0.00000  0.15604
      21     H     0.42106  0.42106  0.00000  0.15787
      22     H     0.41799  0.41799  0.00000  0.16402
      23     H     0.42057  0.42057  0.00000  0.15885

   Total alpha = 36.00000, Total beta = 36.00000, Total charge =  0.00000


*** PSI4 exiting successfully. Buy a developer a beer!
