    -----------------------------------------------------------------------
          Psi4: An Open-Source Ab Initio Electronic Structure Package
                              Psi4 (no tag) Driver

                          Git: Rev {detached?}  

    J. M. Turney, A. C. Simmonett, R. M. Parrish, E. G. Hohenstein,
    F. A. Evangelista, J. T. Fermann, B. J. Mintz, L. A. Burns, J. J. Wilke,
    M. L. Abrams, N. J. Russ, M. L. Leininger, C. L. Janssen, E. T. Seidl,
    W. D. Allen, H. F. Schaefer, R. A. King, E. F. Valeev, C. D. Sherrill,
    and T. D. Crawford, WIREs Comput. Mol. Sci. 2, 556-565 (2012)
    (doi: 10.1002/wcms.93)

                         Additional Contributions by
    A. E. DePrince, M. Saitow, U. Bozkaya, A. Yu. Sokolov
    -----------------------------------------------------------------------


    Psi4 started on: Thu Sep  1 22:44:42 2016

    Process ID:   1074
    PSI4DATADIR: /export131/home/mjharvey/miniconda3/share
    Memory level set to 256.000 MB

  ==> Input File <==

--------------------------------------------------------------------------
set {
	reference rhf
	basis 6-31G*
}


set_num_threads( 1 )
memory 2 gb

molecule MOL {
0 1

H	 2.591676	 2.013956	 0.335017
O	 3.341076	 1.666752	 -0.126416
C	 3.569581	 0.339145	 0.272707
C	 2.539767	 -0.640285	 -0.279495
H	 4.553106	 0.084646	 -0.100901
H	 3.608576	 0.269204	 1.359154
C	 1.115811	 -0.397273	 0.226630
H	 2.556196	 -0.582511	 -1.364741
H	 2.852081	 -1.648031	 -0.010655
C	 0.748357	 1.088699	 0.267641
H	 1.012318	 -0.824177	 1.220314
H	 0.408686	 -0.922441	 -0.415642
C	 -0.696691	 1.383361	 0.686390
H	 1.430403	 1.607738	 0.938656
H	 0.913914	 1.513525	 -0.720192
C	 -1.034907	 1.019485	 2.134728
H	 -0.884184	 2.445483	 0.543000
H	 -1.378527	 0.863389	 0.015148
C	 -2.453720	 1.428303	 2.536318
H	 -0.321072	 1.500641	 2.801840
H	 -0.921401	 -0.050999	 2.287974
C	 -2.796119	 1.060464	 3.979620
H	 -2.571267	 2.501206	 2.400126
H	 -3.167868	 0.956186	 1.864765
H	 -2.119158	 1.543690	 4.678506
H	 -3.806642	 1.364731	 4.234376
H	 -2.723825	 -0.011779	 4.139096

	symmetry c1
}
set optking {
	frozen_dihedral = ("
		14 10 7 4,
		14 10 13 16,
		8 4 3 2,
		10 13 16 20,
		20 16 19 22,
		4 3 2 1
	")
}

ee = energy('scf')
oeprop('DIPOLE', 'QUADRUPOLE', 'MULLIKEN_CHARGES')
f=open( 'psi4out.xyz', 'w' )
f.write( "27  " )
f.write( str(ee) + "\n" )
f.write( MOL.save_string_xyz() )
f.close()
--------------------------------------------------------------------------

  Memory set to   2.000 GiB by Python script.

*** tstart() called on cx1-3-15-4.cx1.hpc.ic.ac.uk
*** at Thu Sep  1 22:44:43 2016


         ---------------------------------------------------------
                                   SCF
            by Justin Turney, Rob Parrish, and Andy Simmonett
                              RHF Reference
                        1 Threads,   2000 MiB Core
         ---------------------------------------------------------

  ==> Geometry <==

    Molecular point group: c1
    Full point group: C1

    Geometry (in Angstrom), charge = 0, multiplicity = 1:

       Center              X                  Y                   Z               Mass       
    ------------   -----------------  -----------------  -----------------  -----------------
           H          2.073800736120     1.224276179411    -0.742839707135     1.007825032070
           O          2.823200736120     0.877072179411    -1.204272707135    15.994914619560
           C          3.051705736120    -0.450534820589    -0.805149707135    12.000000000000
           C          2.021891736120    -1.429964820589    -1.357351707135    12.000000000000
           H          4.035230736120    -0.705033820589    -1.178757707135     1.007825032070
           H          3.090700736120    -0.520475820589     0.281297292865     1.007825032070
           C          0.597935736120    -1.186952820589    -0.851226707135    12.000000000000
           H          2.038320736120    -1.372190820589    -2.442597707135     1.007825032070
           H          2.334205736120    -2.437710820589    -1.088511707135     1.007825032070
           C          0.230481736120     0.299019179411    -0.810215707135    12.000000000000
           H          0.494442736120    -1.613856820589     0.142457292865     1.007825032070
           H         -0.109189263880    -1.712120820589    -1.493498707135     1.007825032070
           C         -1.214566263880     0.593681179411    -0.391466707135    12.000000000000
           H          0.912527736120     0.818058179411    -0.139200707135     1.007825032070
           H          0.396038736120     0.723845179411    -1.798048707135     1.007825032070
           C         -1.552782263880     0.229805179411     1.056871292865    12.000000000000
           H         -1.402059263880     1.655803179411    -0.534856707135     1.007825032070
           H         -1.896402263880     0.073709179411    -1.062708707135     1.007825032070
           C         -2.971595263880     0.638623179411     1.458461292865    12.000000000000
           H         -0.838947263880     0.710961179411     1.723983292865     1.007825032070
           H         -1.439276263880    -0.840678820589     1.210117292865     1.007825032070
           C         -3.313994263880     0.270784179411     2.901763292865    12.000000000000
           H         -3.089142263880     1.711526179411     1.322269292865     1.007825032070
           H         -3.685743263880     0.166506179411     0.786908292865     1.007825032070
           H         -2.637033263880     0.754010179411     3.600649292865     1.007825032070
           H         -4.324517263880     0.575051179411     3.156519292865     1.007825032070
           H         -3.241700263880    -0.801458820589     3.061239292865     1.007825032070

  Running in c1 symmetry.

  Rotational constants: A =      0.11988  B =      0.01745  C =      0.01706 [cm^-1]
  Rotational constants: A =   3593.79279  B =    523.03439  C =    511.40217 [MHz]
  Nuclear repulsion =  474.402575706274035

  Charge       = 0
  Multiplicity = 1
  Electrons    = 74
  Nalpha       = 37
  Nbeta        = 37

  ==> Algorithm <==

  SCF Algorithm Type is DF.
  DIIS enabled.
  MOM disabled.
  Fractional occupation disabled.
  Guess Type is CORE.
  Energy threshold   = 1.00e-06
  Density threshold  = 1.00e-06
  Integral threshold = 0.00e+00

  ==> Primary Basis <==

  Basis Set: 6-31G*
    Number of shells: 90
    Number of basis function: 171
    Number of Cartesian functions: 171
    Spherical Harmonics?: false
    Max angular momentum: 2

  ==> Pre-Iterations <==

   -------------------------------------------------------
    Irrep   Nso     Nmo     Nalpha   Nbeta   Ndocc  Nsocc
   -------------------------------------------------------
     A        171     171       0       0       0       0
   -------------------------------------------------------
    Total     171     171      37      37      37       0
   -------------------------------------------------------

 OEINTS: Overlap, kinetic, potential, dipole, and quadrupole integrals
         stored in file 35.

  ==> Integral Setup <==

  ==> DFJK: Density-Fitted J/K Matrices <==

    J tasked:                  Yes
    K tasked:                  Yes
    wK tasked:                  No
    OpenMP threads:              1
    Integrals threads:           1
    Memory (MB):              1430
    Algorithm:                Core
    Integral Cache:           NONE
    Schwarz Cutoff:          1E-12
    Fitting Condition:       1E-12

   => Auxiliary Basis Set <=

  Basis Set: 
    Number of shells: 378
    Number of basis function: 1179
    Number of Cartesian functions: 1179
    Spherical Harmonics?: false
    Max angular momentum: 3

  Minimum eigenvalue in the overlap matrix is 3.0655465197E-03.
  Using Symmetric Orthogonalization.
  SCF Guess: Core (One-Electron) Hamiltonian.

  ==> Iterations <==

                           Total Energy        Delta E     RMS |[F,P]|

   @DF-RHF iter   1:  -285.53686367745485   -2.85537e+02   5.97418e-02 
   @DF-RHF iter   2:    19.51594164714726    3.05053e+02   6.64869e-02 DIIS
   @DF-RHF iter   3:  -254.58679507051642   -2.74103e+02   5.29802e-02 DIIS
   @DF-RHF iter   4:  -252.42158432951061    2.16521e+00   6.76989e-02 DIIS
   @DF-RHF iter   5:  -374.81504353317331   -1.22393e+02   1.58882e-02 DIIS
   @DF-RHF iter   6:  -294.13503609414585    8.06800e+01   4.97246e-02 DIIS
   @DF-RHF iter   7:  -365.44743517581804   -7.13124e+01   2.52976e-02 DIIS
   @DF-RHF iter   8:  -387.97164667249734   -2.25242e+01   4.17015e-03 DIIS
   @DF-RHF iter   9:  -388.22076948122884   -2.49123e-01   1.36334e-03 DIIS
   @DF-RHF iter  10:  -388.25008084375355   -2.93114e-02   6.84114e-04 DIIS
   @DF-RHF iter  11:  -388.25728553416621   -7.20469e-03   3.69166e-04 DIIS
   @DF-RHF iter  12:  -388.26002364630421   -2.73811e-03   1.09005e-04 DIIS
   @DF-RHF iter  13:  -388.26028279909434   -2.59153e-04   4.35000e-05 DIIS
   @DF-RHF iter  14:  -388.26032753446344   -4.47354e-05   8.39983e-06 DIIS
   @DF-RHF iter  15:  -388.26032953462021   -2.00016e-06   1.59580e-06 DIIS
   @DF-RHF iter  16:  -388.26032961140385   -7.67836e-08   4.59045e-07 DIIS

  ==> Post-Iterations <==

    Orbital Energies (a.u.)
    -----------------------

    Doubly Occupied:                                                      

       1A    -20.540698     2A    -11.265006     3A    -11.225656  
       4A    -11.221256     5A    -11.219141     6A    -11.218057  
       7A    -11.217062     8A    -11.215105     9A    -11.210912  
      10A     -1.356660    11A     -1.099184    12A     -1.062941  
      13A     -1.015632    14A     -0.952925    15A     -0.889124  
      16A     -0.824059    17A     -0.804693    18A     -0.788019  
      19A     -0.700459    20A     -0.648611    21A     -0.629987  
      22A     -0.624449    23A     -0.594155    24A     -0.583167  
      25A     -0.575406    26A     -0.556003    27A     -0.554861  
      28A     -0.533877    29A     -0.520152    30A     -0.500435  
      31A     -0.483857    32A     -0.476907    33A     -0.468976  
      34A     -0.456699    35A     -0.451393    36A     -0.441285  
      37A     -0.415899  

    Virtual:                                                              

      38A      0.220585    39A      0.234607    40A      0.243817  
      41A      0.254329    42A      0.268268    43A      0.286480  
      44A      0.292509    45A      0.305409    46A      0.317462  
      47A      0.321596    48A      0.323969    49A      0.327284  
      50A      0.337944    51A      0.344893    52A      0.351304  
      53A      0.355420    54A      0.361672    55A      0.385846  
      56A      0.402701    57A      0.411977    58A      0.435944  
      59A      0.438868    60A      0.446849    61A      0.461056  
      62A      0.484155    63A      0.504580    64A      0.702657  
      65A      0.706233    66A      0.714445    67A      0.731718  
      68A      0.750482    69A      0.754969    70A      0.775580  
      71A      0.796231    72A      0.818008    73A      0.836919  
      74A      0.889021    75A      0.895488    76A      0.909914  
      77A      0.926041    78A      0.954957    79A      0.961806  
      80A      0.970713    81A      1.020921    82A      1.034131  
      83A      1.039699    84A      1.082798    85A      1.102373  
      86A      1.121518    87A      1.130200    88A      1.136420  
      89A      1.156294    90A      1.164132    91A      1.167596  
      92A      1.178212    93A      1.182917    94A      1.187632  
      95A      1.193370    96A      1.206727    97A      1.210505  
      98A      1.222208    99A      1.224978   100A      1.238405  
     101A      1.245114   102A      1.262184   103A      1.270321  
     104A      1.286892   105A      1.305067   106A      1.347953  
     107A      1.415701   108A      1.448630   109A      1.497423  
     110A      1.511699   111A      1.576797   112A      1.640650  
     113A      1.670232   114A      1.693701   115A      1.748438  
     116A      1.756440   117A      1.785272   118A      1.825878  
     119A      1.844884   120A      1.919960   121A      1.973604  
     122A      1.991458   123A      2.017720   124A      2.039791  
     125A      2.113201   126A      2.147545   127A      2.151444  
     128A      2.192303   129A      2.211286   130A      2.242391  
     131A      2.266771   132A      2.277540   133A      2.299444  
     134A      2.311727   135A      2.330484   136A      2.343137  
     137A      2.389933   138A      2.397686   139A      2.423326  
     140A      2.476549   141A      2.511506   142A      2.563321  
     143A      2.601311   144A      2.617362   145A      2.635583  
     146A      2.661163   147A      2.696083   148A      2.731127  
     149A      2.734099   150A      2.747878   151A      2.774899  
     152A      2.811967   153A      2.840690   154A      2.904807  
     155A      2.925253   156A      2.948571   157A      2.998926  
     158A      3.052132   159A      3.086060   160A      3.133260  
     161A      3.216016   162A      3.230768   163A      4.304103  
     164A      4.555620   165A      4.612265   166A      4.682655  
     167A      4.766940   168A      4.834031   169A      4.872941  
     170A      4.956135   171A      5.027497  

    Final Occupation by Irrep:
              A 
    DOCC [    37 ]

  Energy converged.

  @DF-RHF Final Energy:  -388.26032961140385

   => Energetics <=

    Nuclear Repulsion Energy =            474.4025757062740354
    One-Electron Energy =               -1466.6403946025238838
    Two-Electron Energy =                 603.9774892848447507
    DFT Exchange-Correlation Energy =       0.0000000000000000
    Empirical Dispersion Energy =           0.0000000000000000
    PCM Polarization Energy =               0.0000000000000000
    EFP Energy =                            0.0000000000000000
    Total Energy =                       -388.2603296114050409

    Alert: EFP and PCM quantities not currently incorporated into SCF psivars.

Properties will be evaluated at   0.000000,   0.000000,   0.000000 Bohr
  ==> Properties <==


Properties computed using the SCF density matrix

  Nuclear Dipole Moment: (a.u.)
     X:    -6.8194      Y:    -1.4862      Z:     4.4982

  Electronic Dipole Moment: (a.u.)
     X:     6.2766      Y:     1.0845      Z:    -4.1091

  Dipole Moment: (a.u.)
     X:    -0.5428      Y:    -0.4017      Z:     0.3891     Total:     0.7793

  Dipole Moment: (Debye)
     X:    -1.3796      Y:    -1.0209      Z:     0.9891     Total:     1.9809


  Saving occupied orbitals to File 180.

*** tstop() called on cx1-3-15-4.cx1.hpc.ic.ac.uk at Thu Sep  1 22:45:15 2016
Module time:
	user time   =      31.90 seconds =       0.53 minutes
	system time =       0.26 seconds =       0.00 minutes
	total time  =         32 seconds =       0.53 minutes
Total time:
	user time   =      31.90 seconds =       0.53 minutes
	system time =       0.26 seconds =       0.00 minutes
	total time  =         32 seconds =       0.53 minutes


Properties will be evaluated at   0.000000,   0.000000,   0.000000 Bohr

Properties computed using the  density matrix

  Nuclear Dipole Moment: (a.u.)
     X:    -6.8194      Y:    -1.4862      Z:     4.4982

  Electronic Dipole Moment: (a.u.)
     X:     6.2766      Y:     1.0845      Z:    -4.1091

  Dipole Moment: (a.u.)
     X:    -0.5428      Y:    -0.4017      Z:     0.3891     Total:     0.7793

  Dipole Moment: (Debye)
     X:    -1.3796      Y:    -1.0209      Z:     0.9891     Total:     1.9809

  Quadrupole Moment: (Debye Ang)
    XX:   -65.8333     YY:   -59.9290     ZZ:   -62.7150
    XY:    -4.7202     XZ:     4.3543     YZ:     2.5089

  Traceless Quadrupole Moment: (Debye Ang)
    XX:    -3.0075     YY:     2.8967     ZZ:     0.1108
    XY:    -4.7202     XZ:     4.3543     YZ:     2.5089

  Mulliken Charges: (a.u.)
   Center  Symbol    Alpha    Beta     Spin     Total
       1     H     0.26860  0.26860  0.00000  0.46280
       2     O     4.37750  4.37750  0.00000 -0.75501
       3     C     3.00347  3.00347  0.00000 -0.00694
       4     C     3.16281  3.16281  0.00000 -0.32563
       5     H     0.41372  0.41372  0.00000  0.17256
       6     H     0.43202  0.43202  0.00000  0.13596
       7     C     3.15517  3.15517  0.00000 -0.31034
       8     H     0.41525  0.41525  0.00000  0.16950
       9     H     0.42157  0.42157  0.00000  0.15686
      10     C     3.17442  3.17442  0.00000 -0.34883
      11     H     0.41979  0.41979  0.00000  0.16042
      12     H     0.41779  0.41779  0.00000  0.16443
      13     C     3.15135  3.15135  0.00000 -0.30271
      14     H     0.44178  0.44178  0.00000  0.11643
      15     H     0.40439  0.40439  0.00000  0.19123
      16     C     3.15369  3.15369  0.00000 -0.30739
      17     H     0.42073  0.42073  0.00000  0.15854
      18     H     0.42147  0.42147  0.00000  0.15706
      19     C     3.15137  3.15137  0.00000 -0.30274
      20     H     0.42486  0.42486  0.00000  0.15028
      21     H     0.42148  0.42148  0.00000  0.15705
      22     C     3.23936  3.23936  0.00000 -0.47872
      23     H     0.42264  0.42264  0.00000  0.15472
      24     H     0.42254  0.42254  0.00000  0.15493
      25     H     0.42168  0.42168  0.00000  0.15665
      26     H     0.41875  0.41875  0.00000  0.16250
      27     H     0.42180  0.42180  0.00000  0.15640

   Total alpha = 37.00000, Total beta = 37.00000, Total charge = -0.00000


*** PSI4 exiting successfully. Buy a developer a beer!
