    -----------------------------------------------------------------------
          Psi4: An Open-Source Ab Initio Electronic Structure Package
                              Psi4 1.0.54 Driver

                          Git: Rev {master} 8d4cec3 dirty

    J. M. Turney, A. C. Simmonett, R. M. Parrish, E. G. Hohenstein,
    F. A. Evangelista, J. T. Fermann, B. J. Mintz, L. A. Burns, J. J. Wilke,
    M. L. Abrams, N. J. Russ, M. L. Leininger, C. L. Janssen, E. T. Seidl,
    W. D. Allen, H. F. Schaefer, R. A. King, E. F. Valeev, C. D. Sherrill,
    and T. D. Crawford, WIREs Comput. Mol. Sci. 2, 556-565 (2012)
    (doi: 10.1002/wcms.93)

                         Additional Contributions by
    A. E. DePrince, U. Bozkaya, A. Yu. Sokolov, D. G. A. Smith, R. Di Remigio,
    R. M. Richard, J. F. Gonthier, H. R. McAlexander, M. Saitow, and
    B. P. Pritchard
    -----------------------------------------------------------------------


    Psi4 started on: Sat Sep 10 16:20:56 2016

    Process ID:  33330
    PSI4DATADIR: /export131/home/mjharvey/miniconda3/share/psi4
    Memory level set to 256.000 MB

  ==> Input File <==

--------------------------------------------------------------------------
set {
	reference rhf
	basis cc-pvtz
}


set_num_threads( 4 )
memory 2 gb

molecule MOL {
0 1

H	 -2.644180	 -0.653737	 1.272255
C	 -2.092774	 -0.380414	 0.391915
O	 -0.808934	 -0.154049	 0.752536
F	 -2.163230	 -1.351640	 -0.507133
F	 -2.627232	 0.691260	 -0.169301
C	 0.085006	 0.250800	 -0.215074
C	 1.370439	 -0.548013	 -0.012993
Cl	 0.421658	 1.987697	 -0.091007
H	 -0.272219	 0.063284	 -1.212508
F	 2.005479	 -0.689153	 -1.148698
F	 1.064525	 -1.744317	 0.430391
F	 2.172678	 0.014870	 0.848301

	symmetry c1
}
set optking {
	frozen_dihedral = ("
		10 7 6 9
	")
}

ee,wfn = optimize('scf', return_wfn=True)
oeprop( wfn, 'DIPOLE', 'QUADRUPOLE', 'MULLIKEN_CHARGES')
f=open( 'psi4out.xyz', 'w' )
f.write( "12  " )
f.write( str(ee) + "\n" )
f.write( MOL.save_string_xyz() )
f.close()
--------------------------------------------------------------------------

  Memory set to   2.000 GiB by Python script.
gradient() will perform analytic gradient computation.

*** tstart() called on cx1-27-4-1
*** at Sat Sep 10 16:20:57 2016


         ---------------------------------------------------------
                                   SCF
            by Justin Turney, Rob Parrish, and Andy Simmonett
                              RHF Reference
                        4 Threads,   2000 MiB Core
         ---------------------------------------------------------

  ==> Geometry <==

    Molecular point group: c1
    Full point group: C1

    Geometry (in Angstrom), charge = 0, multiplicity = 1:

       Center              X                  Y                   Z               Mass       
    ------------   -----------------  -----------------  -----------------  -----------------
           H         -2.643149167197    -0.652765012656     1.269541308276     1.007825032070
           C         -2.091743167197    -0.379442012656     0.389201308276    12.000000000000
           O         -0.807903167197    -0.153077012656     0.749822308276    15.994914619560
           F         -2.162199167197    -1.350668012656    -0.509846691724    18.998403224000
           F         -2.626201167197     0.692231987344    -0.172014691724    18.998403224000
           C          0.086036832803     0.251771987344    -0.217787691724    12.000000000000
           C          1.371469832803    -0.547041012656    -0.015706691724    12.000000000000
          CL          0.422688832803     1.988668987344    -0.093720691724    34.968852682000
           H         -0.271188167197     0.064255987344    -1.215221691724     1.007825032070
           F          2.006509832803    -0.688181012656    -1.151411691724    18.998403224000
           F          1.065555832803    -1.743345012656     0.427677308276    18.998403224000
           F          2.173708832803     0.015841987344     0.845587308276    18.998403224000

  Running in c1 symmetry.

  Rotational constants: A =      0.05300  B =      0.02961  C =      0.02211 [cm^-1]
  Rotational constants: A =   1589.04274  B =    887.65844  C =    662.88983 [MHz]
  Nuclear repulsion =  738.800697045375728

  Charge       = 0
  Multiplicity = 1
  Electrons    = 90
  Nalpha       = 45
  Nbeta        = 45

  ==> Algorithm <==

  SCF Algorithm Type is DF.
  DIIS enabled.
  MOM disabled.
  Fractional occupation disabled.
  Guess Type is SAD.
  Energy threshold   = 1.00e-08
  Density threshold  = 1.00e-08
  Integral threshold = 0.00e+00

  ==> Primary Basis <==

  Basis Set: CC-PVTZ
    Number of shells: 114
    Number of basis function: 332
    Number of Cartesian functions: 384
    Spherical Harmonics?: true
    Max angular momentum: 3

  ==> Pre-Iterations <==

   -------------------------------------------------------
    Irrep   Nso     Nmo     Nalpha   Nbeta   Ndocc  Nsocc
   -------------------------------------------------------
     A        332     332       0       0       0       0
   -------------------------------------------------------
    Total     332     332      45      45      45       0
   -------------------------------------------------------

  ==> Integral Setup <==

  ==> DFJK: Density-Fitted J/K Matrices <==

    J tasked:                  Yes
    K tasked:                  Yes
    wK tasked:                  No
    OpenMP threads:              4
    Integrals threads:           4
    Memory (MB):              1430
    Algorithm:                Core
    Integral Cache:           NONE
    Schwarz Cutoff:          1E-12
    Fitting Condition:       1E-12

   => Auxiliary Basis Set <=

  Basis Set: 
    Number of shells: 282
    Number of basis function: 892
    Number of Cartesian functions: 1079
    Spherical Harmonics?: true
    Max angular momentum: 4

  Minimum eigenvalue in the overlap matrix is 7.8452379966E-04.
  Using Symmetric Orthogonalization.
  SCF Guess: Superposition of Atomic Densities via on-the-fly atomic UHF.

  ==> Iterations <==

                           Total Energy        Delta E     RMS |[F,P]|

   @DF-RHF iter   0: -1150.13176496207780   -1.15013e+03   1.64255e-02 
   @DF-RHF iter   1: -1146.25601825571675    3.87575e+00   2.68054e-03 
   @DF-RHF iter   2: -1146.52997596939213   -2.73958e-01   1.47332e-03 DIIS
   @DF-RHF iter   3: -1146.60771205147739   -7.77361e-02   3.01803e-04 DIIS
   @DF-RHF iter   4: -1146.61461899392953   -6.90694e-03   9.75067e-05 DIIS
   @DF-RHF iter   5: -1146.61536201778085   -7.43024e-04   2.45993e-05 DIIS
   @DF-RHF iter   6: -1146.61542256437019   -6.05466e-05   8.60483e-06 DIIS
   @DF-RHF iter   7: -1146.61542860970167   -6.04533e-06   2.72990e-06 DIIS
   @DF-RHF iter   8: -1146.61542940918412   -7.99482e-07   7.05603e-07 DIIS
   @DF-RHF iter   9: -1146.61542948045462   -7.12705e-08   2.43079e-07 DIIS
   @DF-RHF iter  10: -1146.61542948863189   -8.17727e-09   9.41139e-08 DIIS
   @DF-RHF iter  11: -1146.61542948967826   -1.04637e-09   3.20002e-08 DIIS
   @DF-RHF iter  12: -1146.61542948983652   -1.58252e-10   8.91012e-09 DIIS

  ==> Post-Iterations <==

    Orbital Energies (a.u.)
    -----------------------

    Doubly Occupied:                                                      

       1A   -104.856000     2A    -26.356986     3A    -26.352306  
       4A    -26.350824     5A    -26.343241     6A    -26.342573  
       7A    -20.638753     8A    -11.519958     9A    -11.483395  
      10A    -11.400108    11A    -10.581595    12A     -8.048382  
      13A     -8.046407    14A     -8.046308    15A     -1.767895  
      16A     -1.724487    17A     -1.663992    18A     -1.659969  
      19A     -1.644573    20A     -1.485995    21A     -1.177912  
      22A     -1.052998    23A     -0.990639    24A     -0.923905  
      25A     -0.865393    26A     -0.858608    27A     -0.851338  
      28A     -0.828299    29A     -0.818466    30A     -0.794799  
      31A     -0.735064    32A     -0.734049    33A     -0.712073  
      34A     -0.706698    35A     -0.685406    36A     -0.681832  
      37A     -0.664521    38A     -0.663695    39A     -0.650089  
      40A     -0.633409    41A     -0.598495    42A     -0.579174  
      43A     -0.525211    44A     -0.478202    45A     -0.469468  

    Virtual:                                                              

      46A      0.152730    47A      0.158118    48A      0.175602  
      49A      0.253268    50A      0.280063    51A      0.286445  
      52A      0.324952    53A      0.333836    54A      0.356294  
      55A      0.394925    56A      0.399975    57A      0.411221  
      58A      0.467489    59A      0.477580    60A      0.489011  
      61A      0.493205    62A      0.502180    63A      0.508380  
      64A      0.524729    65A      0.535156    66A      0.543083  
      67A      0.557936    68A      0.565760    69A      0.582392  
      70A      0.598265    71A      0.610869    72A      0.644195  
      73A      0.653241    74A      0.676976    75A      0.700006  
      76A      0.739353    77A      0.766017    78A      0.775322  
      79A      0.803862    80A      0.825772    81A      0.855561  
      82A      0.875253    83A      0.888592    84A      0.925218  
      85A      0.935999    86A      0.962411    87A      0.976773  
      88A      0.998505    89A      1.022390    90A      1.026032  
      91A      1.053020    92A      1.065154    93A      1.081690  
      94A      1.100279    95A      1.115434    96A      1.118345  
      97A      1.124833    98A      1.149097    99A      1.155573  
     100A      1.195112   101A      1.217003   102A      1.239662  
     103A      1.267492   104A      1.282234   105A      1.311880  
     106A      1.346977   107A      1.365053   108A      1.389913  
     109A      1.396779   110A      1.416874   111A      1.436475  
     112A      1.476303   113A      1.484038   114A      1.497665  
     115A      1.524437   116A      1.542037   117A      1.602148  
     118A      1.694447   119A      1.817954   120A      1.835652  
     121A      1.920754   122A      1.979248   123A      1.992672  
     124A      2.068911   125A      2.081821   126A      2.108368  
     127A      2.144434   128A      2.171881   129A      2.181954  
     130A      2.190358   131A      2.213630   132A      2.226745  
     133A      2.238239   134A      2.250759   135A      2.262325  
     136A      2.264498   137A      2.291752   138A      2.298245  
     139A      2.331519   140A      2.345427   141A      2.350965  
     142A      2.380202   143A      2.395736   144A      2.397919  
     145A      2.414076   146A      2.428072   147A      2.439991  
     148A      2.457344   149A      2.478776   150A      2.509133  
     151A      2.527164   152A      2.540063   153A      2.572181  
     154A      2.586431   155A      2.606628   156A      2.624632  
     157A      2.631840   158A      2.656858   159A      2.662084  
     160A      2.688336   161A      2.709676   162A      2.733682  
     163A      2.749220   164A      2.776632   165A      2.806973  
     166A      2.811829   167A      2.835094   168A      2.847459  
     169A      2.884817   170A      2.917956   171A      3.022261  
     172A      3.058627   173A      3.112762   174A      3.146528  
     175A      3.161271   176A      3.172664   177A      3.231513  
     178A      3.270315   179A      3.290066   180A      3.307539  
     181A      3.311198   182A      3.335224   183A      3.365573  
     184A      3.380051   185A      3.401120   186A      3.440059  
     187A      3.480620   188A      3.496440   189A      3.538829  
     190A      3.546027   191A      3.577467   192A      3.596449  
     193A      3.632917   194A      3.643904   195A      3.678377  
     196A      3.709801   197A      3.735384   198A      3.744338  
     199A      3.777570   200A      3.806150   201A      3.824249  
     202A      3.833419   203A      3.856699   204A      3.904685  
     205A      3.940662   206A      3.950289   207A      3.976911  
     208A      4.000947   209A      4.035447   210A      4.054071  
     211A      4.084049   212A      4.087210   213A      4.117557  
     214A      4.163918   215A      4.229580   216A      4.288554  
     217A      4.319841   218A      4.359584   219A      4.376267  
     220A      4.428588   221A      4.436568   222A      4.491307  
     223A      4.543832   224A      4.608341   225A      4.711591  
     226A      4.958694   227A      5.038953   228A      5.114163  
     229A      5.129041   230A      5.187511   231A      5.211535  
     232A      5.242181   233A      5.303578   234A      5.325098  
     235A      5.366454   236A      5.377543   237A      5.398239  
     238A      5.422323   239A      5.443620   240A      5.472275  
     241A      5.489740   242A      5.517893   243A      5.554481  
     244A      5.561708   245A      5.775307   246A      5.807764  
     247A      5.818436   248A      5.961506   249A      6.100103  
     250A      6.239672   251A      6.367449   252A      6.475518  
     253A      6.508078   254A      6.557870   255A      6.583260  
     256A      6.645655   257A      6.740434   258A      6.812249  
     259A      7.148786   260A      7.200120   261A      7.298025  
     262A      7.321793   263A      7.341340   264A      7.343956  
     265A      7.347386   266A      7.348524   267A      7.350065  
     268A      7.354617   269A      7.356598   270A      7.359528  
     271A      7.362881   272A      7.363716   273A      7.366222  
     274A      7.378062   275A      7.445074   276A      7.474362  
     277A      7.496805   278A      7.506933   279A      7.510513  
     280A      7.531417   281A      7.560790   282A      7.599351  
     283A      7.624357   284A      7.627889   285A      7.662619  
     286A      7.767067   287A      7.831942   288A      7.871598  
     289A      7.888917   290A      7.936105   291A      7.939291  
     292A      7.953350   293A      7.990554   294A      7.995028  
     295A      8.086644   296A      8.119697   297A      8.153552  
     298A      8.168549   299A      8.886831   300A      8.897275  
     301A      8.915973   302A      8.922856   303A      8.959363  
     304A      8.994730   305A      9.020332   306A      9.026557  
     307A      9.035754   308A      9.078972   309A      9.176558  
     310A      9.321061   311A      9.339919   312A      9.390827  
     313A      9.393640   314A      9.457114   315A      9.491471  
     316A      9.509935   317A      9.559424   318A      9.642954  
     319A      9.655598   320A      9.665149   321A      9.673243  
     322A      9.725738   323A      9.742221   324A     10.779474  
     325A     11.406215   326A     11.990146   327A     12.176621  
     328A     12.434072   329A     12.450449   330A     12.732423  
     331A     13.220080   332A     13.419276  

    Final Occupation by Irrep:
              A 
    DOCC [    45 ]

  Energy converged.

  @DF-RHF Final Energy: -1146.61542948983652

   => Energetics <=

    Nuclear Repulsion Energy =            738.8006970453757276
    One-Electron Energy =               -3060.8452698107948891
    Two-Electron Energy =                1175.4291432755821916
    DFT Exchange-Correlation Energy =       0.0000000000000000
    Empirical Dispersion Energy =           0.0000000000000000
    PCM Polarization Energy =               0.0000000000000000
    EFP Energy =                            0.0000000000000000
    Total Energy =                      -1146.6154294898369699


  Saving occupied orbitals to File 180.

*** tstop() called on cx1-27-4-1 at Sat Sep 10 16:21:06 2016
Module time:
	user time   =      32.69 seconds =       0.54 minutes
	system time =       0.93 seconds =       0.02 minutes
	total time  =          9 seconds =       0.15 minutes
Total time:
	user time   =      32.69 seconds =       0.54 minutes
	system time =       0.93 seconds =       0.02 minutes
	total time  =          9 seconds =       0.15 minutes


Properties will be evaluated at   0.000000,   0.000000,   0.000000 Bohr

Properties computed using the SCF density matrix

  Nuclear Dipole Moment: (a.u.)
     X:    -3.5544      Y:     0.5270      Z:     0.6686

  Electronic Dipole Moment: (a.u.)
     X:     2.9651      Y:    -0.6990      Z:    -0.5751

  Dipole Moment: (a.u.)
     X:    -0.5893      Y:    -0.1719      Z:     0.0935     Total:     0.6210

  Dipole Moment: (Debye)
     X:    -1.4979      Y:    -0.4370      Z:     0.2377     Total:     1.5784


*** tstart() called on cx1-27-4-1
*** at Sat Sep 10 16:21:07 2016


         ------------------------------------------------------------
                                   SCF GRAD                          
                          Rob Parrish, Justin Turney,                
                       Andy Simmonett, and Alex Sokolov              
         ------------------------------------------------------------

  ==> Geometry <==

    Molecular point group: c1
    Full point group: C1

    Geometry (in Angstrom), charge = 0, multiplicity = 1:

       Center              X                  Y                   Z               Mass       
    ------------   -----------------  -----------------  -----------------  -----------------
           H         -2.643149167197    -0.652765012656     1.269541308276     1.007825032070
           C         -2.091743167197    -0.379442012656     0.389201308276    12.000000000000
           O         -0.807903167197    -0.153077012656     0.749822308276    15.994914619560
           F         -2.162199167197    -1.350668012656    -0.509846691724    18.998403224000
           F         -2.626201167197     0.692231987344    -0.172014691724    18.998403224000
           C          0.086036832803     0.251771987344    -0.217787691724    12.000000000000
           C          1.371469832803    -0.547041012656    -0.015706691724    12.000000000000
          CL          0.422688832803     1.988668987344    -0.093720691724    34.968852682000
           H         -0.271188167197     0.064255987344    -1.215221691724     1.007825032070
           F          2.006509832803    -0.688181012656    -1.151411691724    18.998403224000
           F          1.065555832803    -1.743345012656     0.427677308276    18.998403224000
           F          2.173708832803     0.015841987344     0.845587308276    18.998403224000

  Nuclear repulsion =  738.800697045375728

  ==> Basis Set <==

  Basis Set: CC-PVTZ
    Number of shells: 114
    Number of basis function: 332
    Number of Cartesian functions: 384
    Spherical Harmonics?: true
    Max angular momentum: 3

  ==> DFJKGrad: Density-Fitted SCF Gradients <==

    Gradient:                    1
    J tasked:                  Yes
    K tasked:                  Yes
    wK tasked:                  No
    OpenMP threads:              4
    Integrals threads:           4
    Memory (MB):              1430
    Schwarz Cutoff:          0E+00
    Fitting Condition:       1E-12

   => Auxiliary Basis Set <=

  Basis Set: 
    Number of shells: 282
    Number of basis function: 892
    Number of Cartesian functions: 1079
    Spherical Harmonics?: true
    Max angular momentum: 4


  -Total Gradient:
     Atom            X                  Y                   Z
    ------   -----------------  -----------------  -----------------
       1        0.000035972241     0.000066174441     0.000013891368
       2       -0.001057075649    -0.000763260761    -0.000743002805
       3        0.003279473557    -0.004740443856    -0.000308323528
       4       -0.000147464329     0.000297991659     0.000363674314
       5        0.000329731373    -0.000025261834     0.000210539500
       6        0.004570272364    -0.001634682987     0.001262748964
       7       -0.000619795875     0.005379697931    -0.007084841731
       8        0.001936129175    -0.000588977632     0.003138671812
       9        0.000976864081     0.000083614295    -0.000762394844
      10       -0.001510454225    -0.003056179531     0.001391145869
      11       -0.005154606352     0.000582465466     0.003209396153
      12       -0.002639046382     0.004398862930    -0.000691505074


*** tstop() called on cx1-27-4-1 at Sat Sep 10 16:21:15 2016
Module time:
	user time   =      33.06 seconds =       0.55 minutes
	system time =       0.60 seconds =       0.01 minutes
	total time  =          8 seconds =       0.13 minutes
Total time:
	user time   =      65.85 seconds =       1.10 minutes
	system time =       1.54 seconds =       0.03 minutes
	total time  =         18 seconds =       0.30 minutes

			-----------------------------------------
			 OPTKING 2.0: for geometry optimizations 
			  - R.A. King,  Bethel University        
			-----------------------------------------

	Internal coordinates to be generated automatically.
	Detected frag 1 with atoms:  1 2 3 4 5 6 7 8 9 10 11 12
	---Fragment 1 Bond Connectivity---
	 1 : 2
	 2 : 1 3 4 5
	 3 : 2 6
	 4 : 2
	 5 : 2
	 6 : 3 7 8 9
	 7 : 6 10 11 12
	 8 : 6
	 9 : 6
	 10 : 7
	 11 : 7
	 12 : 7

	Assuming in current code that numbering for constraints corresponds to unified fragment.
	Frozen dihedral atom list: 
	    10     7     6     9
	---Fragment 1 Geometry and Gradient---
	 H          -4.9948280544       -1.2335471030        2.3990853870
	 C          -3.9528217263       -0.7170414872        0.7354838832
	 O          -1.5267157279       -0.2892736312        1.4169588110
	 F          -4.0859642708       -2.5523926404       -0.9634706171
	 F          -4.9628009759        1.3081288765       -0.3250606582
	 C           0.1625860513        0.4757801040       -0.4115590925
	 C           2.5917023835       -1.0337576974       -0.0296813458
	 CL          0.7987661334        3.7580397550       -0.1771064403
	 H          -0.5124713665        0.1214262185       -2.2964361881
	 F           3.7917540669       -1.3004736438       -2.1758527636
	 F           2.0136087033       -3.2944446291        0.8081929859
	 F           4.1077143866        0.0299370175        1.5979284341
	             0.0000359722        0.0000661744        0.0000138914
	            -0.0010570756       -0.0007632608       -0.0007430028
	             0.0032794736       -0.0047404439       -0.0003083235
	            -0.0001474643        0.0002979917        0.0003636743
	             0.0003297314       -0.0000252618        0.0002105395
	             0.0045702724       -0.0016346830        0.0012627490
	            -0.0006197959        0.0053796979       -0.0070848417
	             0.0019361292       -0.0005889776        0.0031386718
	             0.0009768641        0.0000836143       -0.0007623948
	            -0.0015104542       -0.0030561795        0.0013911459
	            -0.0051546064        0.0005824655        0.0032093962
	            -0.0026390464        0.0043988629       -0.0006915051

	Previous optimization step data not found.  Starting new optimization.

	---Fragment 1 Intrafragment Coordinates---
	 - Coordinate -           - BOHR/RAD -       - ANG/DEG -
	 R(1,2)           =         2.029809	       1.074129
	 R(2,3)           =         2.556048	       1.352603
	 R(2,4)           =         2.504533	       1.325342
	 R(2,5)           =         2.499225	       1.322533
	 R(3,6)           =         2.604328	       1.378151
	 R(6,7)           =         2.885332	       1.526852
	 R(6,8)           =         3.351555	       1.773567
	 R(6,9)           =         2.033232	       1.075940
	 R(7,10)          =         2.473320	       1.308825
	 R(7,11)          =         2.479301	       1.311989
	 R(7,12)          =         2.465533	       1.304704
	 B(1,2,3)         =         1.887386	     108.139274
	 B(1,2,4)         =         1.920059	     110.011304
	 B(1,2,5)         =         1.924666	     110.275233
	 B(2,3,6)         =         2.068772	     118.531896
	 B(3,2,4)         =         1.932593	     110.729415
	 B(3,2,5)         =         1.940242	     111.167676
	 B(3,6,7)         =         1.874939	     107.426091
	 B(3,6,8)         =         1.940886	     111.204551
	 B(3,6,9)         =         1.965268	     112.601576
	 B(4,2,5)         =         1.859250	     106.527180
	 B(6,7,10)        =         1.928425	     110.490617
	 B(6,7,11)        =         1.902308	     108.994198
	 B(6,7,12)        =         1.959856	     112.291505
	 B(7,6,8)         =         1.921222	     110.077907
	 B(7,6,9)         =         1.887073	     108.121339
	 B(8,6,9)         =         1.873968	     107.370433
	 B(10,7,11)       =         1.883940	     107.941835
	 B(10,7,12)       =         1.897593	     108.724069
	 B(11,7,12)       =         1.889842	     108.279991
	 D(1,2,3,6)       =        -3.109850	    -178.181285
	 D(2,3,6,7)       =        -2.375023	    -136.078792
	 D(2,3,6,8)       =         1.804834	     103.409344
	 D(2,3,6,9)       =        -0.299261	     -17.146386
	 D(3,6,7,10)      =         2.648934	     151.772713
	 D(3,6,7,11)      =         0.581550	      33.320377
	 D(3,6,7,12)      =        -1.512416	     -86.655080
	 D(4,2,3,6)       =         1.068501	      61.220615
	 D(5,2,3,6)       =        -0.994665	     -56.990107
	 D(8,6,7,10)      =        -1.518530	     -87.005354
	 D(8,6,7,11)      =         2.697272	     154.542310
	 D(8,6,7,12)      =         0.603305	      34.566853
	*D(9,6,7,10)      =         0.523598	      29.999961
	 D(9,6,7,11)      =        -1.543785	     -88.452375
	 D(9,6,7,12)      =         2.645433	     151.572168
	 R(5,8)           =         6.262556	       3.314002

	Current energy   :     -1146.6154294898

	Generating empirical Hessian (Schlegel '84) for each fragment.
	Taking RFO optimization step.
	Going to follow RFO solution 1.
	Using RFO vector 1.
	Norm of target step-size    0.27191
	Projected energy change by RFO approximation:         0.0013403332

	Back-transformation to cartesian coordinates...
	Could not converge backtransformation.
	Using first guess instead.

	Back-transformation to cartesian coordinates to adjust frozen coordinates...
	Successfully converged to displaced geometry.

	--- Internal Coordinate Step in ANG or DEG, aJ/ANG or AJ/DEG ---
	 ---------------------------------------------------------------------------
	   Coordinate                Previous        Force       Change         New 
	   ----------                --------       ------       ------       ------
	    1 R(1,2)          =      1.074129     0.000197     0.001107     1.075235
	    2 R(2,3)          =      1.352603    -0.000718    -0.000319     1.352283
	    3 R(2,4)          =      1.325342     0.003767     0.002243     1.327585
	    4 R(2,5)          =      1.322533     0.002467     0.002155     1.324688
	    5 R(3,6)          =      1.378151     0.008199     0.001994     1.380145
	    6 R(6,7)          =      1.526852     0.103782     0.022616     1.549467
	    7 R(6,8)          =      1.773567     0.003921     0.002503     1.776069
	    8 R(6,9)          =      1.075940    -0.003031     0.000135     1.076074
	    9 R(7,10)         =      1.308825     0.013268     0.003865     1.312690
	   10 R(7,11)         =      1.311989    -0.014462     0.004463     1.316452
	   11 R(7,12)         =      1.304704     0.001495     0.002317     1.307021
	   12 B(1,2,3)        =    108.139274    -0.000021    -0.059840   108.079434
	   13 B(1,2,4)        =    110.011304    -0.000007     0.000577   110.011882
	   14 B(1,2,5)        =    110.275233    -0.000047    -0.024414   110.250819
	   15 B(2,3,6)        =    118.531896     0.000115     0.003163   118.535060
	   16 B(3,2,4)        =    110.729415    -0.000057    -0.166473   110.562942
	   17 B(3,2,5)        =    111.167676     0.000174     0.305387   111.473063
	   18 B(3,6,7)        =    107.426091     0.000548     2.909788   110.335879
	   19 B(3,6,8)        =    111.204551    -0.000243    -0.542098   110.662452
	   20 B(3,6,9)        =    112.601576    -0.000080     1.654940   114.256516
	   21 B(4,2,5)        =    106.527180    -0.000044    -0.055795   106.471385
	   22 B(6,7,10)       =    110.490617    -0.000411    -1.561552   108.929065
	   23 B(6,7,11)       =    108.994198     0.000608     1.429135   110.423333
	   24 B(6,7,12)       =    112.291505     0.000601     2.418246   114.709750
	   25 B(7,6,8)        =    110.077907     0.000097     0.300030   110.377937
	   26 B(7,6,9)        =    108.121339    -0.000181    -0.723757   107.397583
	   27 B(8,6,9)        =    107.370433    -0.000139    -3.795098   103.575336
	   28 B(10,7,11)      =    107.941835    -0.000207    -2.112839   105.828996
	   29 B(10,7,12)      =    108.724069    -0.000170     0.306033   109.030103
	   30 B(11,7,12)      =    108.279991    -0.000454    -0.739486   107.540505
	   31 D(1,2,3,6)      =   -178.181285    -0.000009    -0.366421  -178.547707
	   32 D(2,3,6,7)      =   -136.078792     0.000030     1.441055  -134.637738
	   33 D(2,3,6,8)      =    103.409344    -0.000044    -0.503381   102.905964
	   34 D(2,3,6,9)      =    -17.146386     0.000049     3.623668   -13.522719
	   35 D(3,6,7,10)     =    151.772713     0.000027     3.345353   155.118066
	   36 D(3,6,7,11)     =     33.320377     0.000056     5.986796    39.307173
	   37 D(3,6,7,12)     =    -86.655080     0.000005     4.270243   -82.384837
	   38 D(4,2,3,6)      =     61.220615     0.000004    -0.229216    60.991399
	   39 D(5,2,3,6)      =    -56.990107    -0.000001    -0.246721   -57.236828
	   40 D(8,6,7,10)     =    -87.005354     0.000050     4.746620   -82.258734
	   41 D(8,6,7,11)     =    154.542310     0.000079     7.388062   161.930372
	   42 D(8,6,7,12)     =     34.566853     0.000028     5.671509    40.238362
	   43 *D(9,6,7,10)    =     29.999961     0.000000     0.000000    29.999961
	   44 D(9,6,7,11)     =    -88.452375     0.000029     2.641443   -85.810932
	   45 D(9,6,7,12)     =    151.572168    -0.000022     0.924889   152.497058
	   46 R(5,8)          =      3.314002    -0.007160    -0.007851     3.306151
	 ---------------------------------------------------------------------------
	Successfully symmetrized geometry.

  ==> Convergence Check <==

  Measures of convergence in internal coordinates in au.
  Criteria marked as inactive (o), active & met (*), and active & unmet ( ).
  --------------------------------------------------------------------------------------------- ~
   Step     Total Energy     Delta E     MAX Force     RMS Force      MAX Disp      RMS Disp    ~
  --------------------------------------------------------------------------------------------- ~
    Convergence Criteria    1.00e-06 *    3.00e-04 *             o    1.20e-03 *             o  ~
  --------------------------------------------------------------------------------------------- ~
      1   -1146.61542949   -1.15e+03      1.26e-02      3.36e-03 o    1.29e-01      4.05e-02 o  ~
  ---------------------------------------------------------------------------------------------

	Writing optimization data to binary file.
	Structure for next step:
	Cartesian Geometry (in Angstrom)
	    H    -2.6789957850  -0.6541319765   1.2715588247
	    C    -2.1134398799  -0.3907048789   0.3958398127
	    O    -0.8401574889  -0.1423324829   0.7775899853
	    F    -2.1509811911  -1.3834069913  -0.4848497739
	    F    -2.6548413804   0.6610423412  -0.2004081392
	    C     0.0716257472   0.2480536618  -0.1821242816
	    C     1.3990223590  -0.5331790103  -0.0131769425
	   CL     0.3674123478   1.9969454417  -0.0909621306
	    H    -0.2618024092   0.1007150474  -1.1945733787
	    F     2.0216535766  -0.5696335089  -1.1682333196
	    F     1.1565781306  -1.7876838999   0.3038172161
	    F     2.2075119669  -0.0474318954   0.8916418266
			--------------------------
			 OPTKING Finished Execution 
			--------------------------

    Structure for next step:
    Molecular point group: c1
    Full point group: C1

    Geometry (in Angstrom), charge = 0, multiplicity = 1:

    H           -2.677636903371    -0.651285953398     1.275694607403
    C           -2.112080998247    -0.387858855813     0.399975595439
    O           -0.838798607260    -0.139486459805     0.781725767990
    F           -2.149622309425    -1.380560968241    -0.480713991153
    F           -2.653482498680     0.663888364230    -0.196272356480
    C            0.072984628894     0.250899684899    -0.177988498867
    C            1.400381240693    -0.530332987215    -0.009041159772
    CL           0.368771229523     1.999791464742    -0.086826347873
    H           -0.260443527510     0.103561070475    -1.190437595971
    F            2.023012458270    -0.566787485849    -1.164097536829
    F            1.157937012298    -1.784837876896     0.307952998843
    F            2.208870848549    -0.044585872354     0.895777609329

gradient() will perform analytic gradient computation.

*** tstart() called on cx1-27-4-1
*** at Sat Sep 10 16:21:16 2016


         ---------------------------------------------------------
                                   SCF
            by Justin Turney, Rob Parrish, and Andy Simmonett
                              RHF Reference
                        4 Threads,   2000 MiB Core
         ---------------------------------------------------------

  ==> Geometry <==

    Molecular point group: c1
    Full point group: C1

    Geometry (in Angstrom), charge = 0, multiplicity = 1:

       Center              X                  Y                   Z               Mass       
    ------------   -----------------  -----------------  -----------------  -----------------
           H         -2.677636903371    -0.651285953398     1.275694607403     1.007825032070
           C         -2.112080998247    -0.387858855813     0.399975595439    12.000000000000
           O         -0.838798607260    -0.139486459805     0.781725767990    15.994914619560
           F         -2.149622309425    -1.380560968241    -0.480713991153    18.998403224000
           F         -2.653482498680     0.663888364230    -0.196272356480    18.998403224000
           C          0.072984628894     0.250899684899    -0.177988498867    12.000000000000
           C          1.400381240693    -0.530332987215    -0.009041159772    12.000000000000
          CL          0.368771229523     1.999791464742    -0.086826347873    34.968852682000
           H         -0.260443527510     0.103561070475    -1.190437595971     1.007825032070
           F          2.023012458270    -0.566787485849    -1.164097536829    18.998403224000
           F          1.157937012298    -1.784837876896     0.307952998843    18.998403224000
           F          2.208870848549    -0.044585872354     0.895777609329    18.998403224000

  Running in c1 symmetry.

  Rotational constants: A =      0.05256  B =      0.02899  C =      0.02173 [cm^-1]
  Rotational constants: A =   1575.76490  B =    868.98628  C =    651.49492 [MHz]
  Nuclear repulsion =  733.834850595099624

  Charge       = 0
  Multiplicity = 1
  Electrons    = 90
  Nalpha       = 45
  Nbeta        = 45

  ==> Algorithm <==

  SCF Algorithm Type is DF.
  DIIS enabled.
  MOM disabled.
  Fractional occupation disabled.
  Guess Type is READ.
  Energy threshold   = 1.00e-08
  Density threshold  = 1.00e-08
  Integral threshold = 0.00e+00

  ==> Primary Basis <==

  Basis Set: CC-PVTZ
    Number of shells: 114
    Number of basis function: 332
    Number of Cartesian functions: 384
    Spherical Harmonics?: true
    Max angular momentum: 3

  ==> Pre-Iterations <==

   -------------------------------------------------------
    Irrep   Nso     Nmo     Nalpha   Nbeta   Ndocc  Nsocc
   -------------------------------------------------------
     A        332     332       0       0       0       0
   -------------------------------------------------------
    Total     332     332      45      45      45       0
   -------------------------------------------------------

  ==> Integral Setup <==

  ==> DFJK: Density-Fitted J/K Matrices <==

    J tasked:                  Yes
    K tasked:                  Yes
    wK tasked:                  No
    OpenMP threads:              4
    Integrals threads:           4
    Memory (MB):              1430
    Algorithm:                Core
    Integral Cache:           NONE
    Schwarz Cutoff:          1E-12
    Fitting Condition:       1E-12

   => Auxiliary Basis Set <=

  Basis Set: 
    Number of shells: 282
    Number of basis function: 892
    Number of Cartesian functions: 1079
    Spherical Harmonics?: true
    Max angular momentum: 4

  Minimum eigenvalue in the overlap matrix is 8.3774158642E-04.
  Using Symmetric Orthogonalization.
  SCF Guess: Reading in previously saved MOs, projecting if necessary.

  Using orbitals from previous SCF, no projection.
  Recomputing DOCC and SOCC from number of alpha and beta electrons from previous calculation.
              A 
    DOCC [    45 ]

  ==> Iterations <==

                           Total Energy        Delta E     RMS |[F,P]|

   @DF-RHF iter   0: -1146.55330202460118   -1.14655e+03   7.92482e-04 
   @DF-RHF iter   1: -1146.61443756173844   -6.11355e-02   1.34042e-04 
   @DF-RHF iter   2: -1146.61571351849966   -1.27596e-03   5.37712e-05 DIIS
   @DF-RHF iter   3: -1146.61588455201468   -1.71034e-04   2.34797e-05 DIIS
   @DF-RHF iter   4: -1146.61592372372479   -3.91717e-05   5.57278e-06 DIIS
   @DF-RHF iter   5: -1146.61592611274205   -2.38902e-06   2.09181e-06 DIIS
   @DF-RHF iter   6: -1146.61592667733862   -5.64597e-07   4.99406e-07 DIIS
   @DF-RHF iter   7: -1146.61592671292851   -3.55899e-08   1.67296e-07 DIIS
   @DF-RHF iter   8: -1146.61592671586345   -2.93494e-09   5.72267e-08 DIIS
   @DF-RHF iter   9: -1146.61592671632661   -4.63160e-10   2.07975e-08 DIIS
   @DF-RHF iter  10: -1146.61592671640096   -7.43512e-11   6.46580e-09 DIIS

  ==> Post-Iterations <==

    Orbital Energies (a.u.)
    -----------------------

    Doubly Occupied:                                                      

       1A   -104.856225     2A    -26.355698     3A    -26.354744  
       4A    -26.350130     5A    -26.343785     6A    -26.343328  
       7A    -20.643184     8A    -11.524294     9A    -11.485485  
      10A    -11.405490    11A    -10.581834    12A     -8.048617  
      13A     -8.046645    14A     -8.046545    15A     -1.766568  
      16A     -1.723926    17A     -1.663543    18A     -1.655943  
      19A     -1.644416    20A     -1.487479    21A     -1.177567  
      22A     -1.049199    23A     -0.991692    24A     -0.924542  
      25A     -0.862345    26A     -0.857930    27A     -0.849252  
      28A     -0.830122    29A     -0.818850    30A     -0.794540  
      31A     -0.734573    32A     -0.731641    33A     -0.712273  
      34A     -0.707520    35A     -0.684062    36A     -0.678988  
      37A     -0.665053    38A     -0.662331    39A     -0.651399  
      40A     -0.637871    41A     -0.599649    42A     -0.582365  
      43A     -0.525019    44A     -0.478721    45A     -0.469034  

    Virtual:                                                              

      46A      0.151555    47A      0.158048    48A      0.173694  
      49A      0.250499    50A      0.278775    51A      0.286183  
      52A      0.326726    53A      0.328996    54A      0.356882  
      55A      0.388759    56A      0.398150    57A      0.409569  
      58A      0.464902    59A      0.478293    60A      0.487891  
      61A      0.488265    62A      0.499127    63A      0.506574  
      64A      0.524852    65A      0.533622    66A      0.542696  
      67A      0.553709    68A      0.561154    69A      0.577690  
      70A      0.594919    71A      0.609791    72A      0.641452  
      73A      0.650508    74A      0.678283    75A      0.697783  
      76A      0.737678    77A      0.762830    78A      0.767583  
      79A      0.799222    80A      0.824561    81A      0.864855  
      82A      0.869100    83A      0.890640    84A      0.923933  
      85A      0.935442    86A      0.964144    87A      0.973672  
      88A      0.991608    89A      1.021266    90A      1.025636  
      91A      1.047361    92A      1.065820    93A      1.082502  
      94A      1.100764    95A      1.104646    96A      1.115794  
      97A      1.127365    98A      1.137252    99A      1.159022  
     100A      1.189114   101A      1.217174   102A      1.229831  
     103A      1.265755   104A      1.281137   105A      1.314652  
     106A      1.333286   107A      1.361267   108A      1.383699  
     109A      1.393882   110A      1.420434   111A      1.431892  
     112A      1.477054   113A      1.478288   114A      1.496695  
     115A      1.523340   116A      1.545773   117A      1.600380  
     118A      1.690247   119A      1.801223   120A      1.837955  
     121A      1.915721   122A      1.959338   123A      2.004344  
     124A      2.068006   125A      2.072413   126A      2.107440  
     127A      2.142937   128A      2.169587   129A      2.179386  
     130A      2.181679   131A      2.212785   132A      2.226562  
     133A      2.231681   134A      2.253336   135A      2.260464  
     136A      2.265978   137A      2.283566   138A      2.295825  
     139A      2.329329   140A      2.341520   141A      2.352921  
     142A      2.369230   143A      2.391431   144A      2.396938  
     145A      2.406980   146A      2.425894   147A      2.446492  
     148A      2.464832   149A      2.473541   150A      2.502500  
     151A      2.515146   152A      2.534723   153A      2.562601  
     154A      2.576262   155A      2.590708   156A      2.610746  
     157A      2.621561   158A      2.655027   159A      2.658105  
     160A      2.690170   161A      2.699444   162A      2.726012  
     163A      2.739721   164A      2.782884   165A      2.801086  
     166A      2.809843   167A      2.833932   168A      2.854216  
     169A      2.890157   170A      2.931177   171A      3.008914  
     172A      3.069340   173A      3.117706   174A      3.128801  
     175A      3.157613   176A      3.169237   177A      3.239092  
     178A      3.268398   179A      3.288463   180A      3.297509  
     181A      3.308214   182A      3.337077   183A      3.354961  
     184A      3.367151   185A      3.390071   186A      3.431711  
     187A      3.463166   188A      3.498453   189A      3.516311  
     190A      3.544113   191A      3.562321   192A      3.581440  
     193A      3.624252   194A      3.639798   195A      3.664115  
     196A      3.704984   197A      3.727896   198A      3.735527  
     199A      3.773259   200A      3.786901   201A      3.816996  
     202A      3.826299   203A      3.845141   204A      3.897801  
     205A      3.928500   206A      3.935792   207A      3.979824  
     208A      3.996654   209A      4.034685   210A      4.048851  
     211A      4.064084   212A      4.073699   213A      4.117915  
     214A      4.171143   215A      4.225908   216A      4.286938  
     217A      4.316949   218A      4.348979   219A      4.369179  
     220A      4.395659   221A      4.428149   222A      4.468403  
     223A      4.519966   224A      4.592814   225A      4.681279  
     226A      4.940931   227A      5.030235   228A      5.111127  
     229A      5.123441   230A      5.184081   231A      5.216273  
     232A      5.237434   233A      5.295935   234A      5.318873  
     235A      5.350651   236A      5.375374   237A      5.397365  
     238A      5.406632   239A      5.442167   240A      5.475909  
     241A      5.487434   242A      5.503836   243A      5.542648  
     244A      5.565202   245A      5.771412   246A      5.792755  
     247A      5.812664   248A      5.947954   249A      6.078262  
     250A      6.233125   251A      6.356574   252A      6.470263  
     253A      6.500555   254A      6.536473   255A      6.573915  
     256A      6.638517   257A      6.731497   258A      6.808149  
     259A      7.137721   260A      7.195366   261A      7.299710  
     262A      7.321578   263A      7.341441   264A      7.344198  
     265A      7.346054   266A      7.347865   267A      7.350251  
     268A      7.353150   269A      7.355229   270A      7.357228  
     271A      7.361058   272A      7.363716   273A      7.364511  
     274A      7.376066   275A      7.442077   276A      7.471782  
     277A      7.491516   278A      7.494766   279A      7.511363  
     280A      7.528563   281A      7.556705   282A      7.587374  
     283A      7.618012   284A      7.629092   285A      7.658929  
     286A      7.760175   287A      7.821443   288A      7.856364  
     289A      7.881385   290A      7.927649   291A      7.931981  
     292A      7.955253   293A      7.986631   294A      7.989156  
     295A      8.080599   296A      8.084360   297A      8.147474  
     298A      8.162848   299A      8.883857   300A      8.894034  
     301A      8.916473   302A      8.921671   303A      8.957754  
     304A      8.994323   305A      9.015383   306A      9.016325  
     307A      9.035191   308A      9.070324   309A      9.147319  
     310A      9.312036   311A      9.336044   312A      9.379953  
     313A      9.388651   314A      9.452500   315A      9.495375  
     316A      9.505353   317A      9.556022   318A      9.639993  
     319A      9.654518   320A      9.665341   321A      9.670339  
     322A      9.725950   323A      9.735865   324A     10.757344  
     325A     11.347445   326A     11.947105   327A     12.103034  
     328A     12.390686   329A     12.408997   330A     12.628379  
     331A     13.086891   332A     13.388796  

    Final Occupation by Irrep:
              A 
    DOCC [    45 ]

  Energy converged.

  @DF-RHF Final Energy: -1146.61592671640096

   => Energetics <=

    Nuclear Repulsion Energy =            733.8348505950996241
    One-Electron Energy =               -3050.8927183438063366
    Two-Electron Energy =                1170.4419410323052944
    DFT Exchange-Correlation Energy =       0.0000000000000000
    Empirical Dispersion Energy =           0.0000000000000000
    PCM Polarization Energy =               0.0000000000000000
    EFP Energy =                            0.0000000000000000
    Total Energy =                      -1146.6159267164011908


  Saving occupied orbitals to File 180.

*** tstop() called on cx1-27-4-1 at Sat Sep 10 16:21:24 2016
Module time:
	user time   =      25.79 seconds =       0.43 minutes
	system time =       0.60 seconds =       0.01 minutes
	total time  =          8 seconds =       0.13 minutes
Total time:
	user time   =      93.68 seconds =       1.56 minutes
	system time =       2.19 seconds =       0.04 minutes
	total time  =         27 seconds =       0.45 minutes


Properties will be evaluated at   0.000000,   0.000000,   0.000000 Bohr

Properties computed using the SCF density matrix

  Nuclear Dipole Moment: (a.u.)
     X:    -3.6495      Y:     0.5917      Z:     0.7644

  Electronic Dipole Moment: (a.u.)
     X:     3.0231      Y:    -0.7356      Z:    -0.6258

  Dipole Moment: (a.u.)
     X:    -0.6264      Y:    -0.1439      Z:     0.1386     Total:     0.6575

  Dipole Moment: (Debye)
     X:    -1.5921      Y:    -0.3658      Z:     0.3522     Total:     1.6711


*** tstart() called on cx1-27-4-1
*** at Sat Sep 10 16:21:24 2016


         ------------------------------------------------------------
                                   SCF GRAD                          
                          Rob Parrish, Justin Turney,                
                       Andy Simmonett, and Alex Sokolov              
         ------------------------------------------------------------

  ==> Geometry <==

    Molecular point group: c1
    Full point group: C1

    Geometry (in Angstrom), charge = 0, multiplicity = 1:

       Center              X                  Y                   Z               Mass       
    ------------   -----------------  -----------------  -----------------  -----------------
           H         -2.677636903371    -0.651285953398     1.275694607403     1.007825032070
           C         -2.112080998247    -0.387858855813     0.399975595439    12.000000000000
           O         -0.838798607260    -0.139486459805     0.781725767990    15.994914619560
           F         -2.149622309425    -1.380560968241    -0.480713991153    18.998403224000
           F         -2.653482498680     0.663888364230    -0.196272356480    18.998403224000
           C          0.072984628894     0.250899684899    -0.177988498867    12.000000000000
           C          1.400381240693    -0.530332987215    -0.009041159772    12.000000000000
          CL          0.368771229523     1.999791464742    -0.086826347873    34.968852682000
           H         -0.260443527510     0.103561070475    -1.190437595971     1.007825032070
           F          2.023012458270    -0.566787485849    -1.164097536829    18.998403224000
           F          1.157937012298    -1.784837876896     0.307952998843    18.998403224000
           F          2.208870848549    -0.044585872354     0.895777609329    18.998403224000

  Nuclear repulsion =  733.834850595099510

  ==> Basis Set <==

  Basis Set: CC-PVTZ
    Number of shells: 114
    Number of basis function: 332
    Number of Cartesian functions: 384
    Spherical Harmonics?: true
    Max angular momentum: 3

  ==> DFJKGrad: Density-Fitted SCF Gradients <==

    Gradient:                    1
    J tasked:                  Yes
    K tasked:                  Yes
    wK tasked:                  No
    OpenMP threads:              4
    Integrals threads:           4
    Memory (MB):              1430
    Schwarz Cutoff:          0E+00
    Fitting Condition:       1E-12

   => Auxiliary Basis Set <=

  Basis Set: 
    Number of shells: 282
    Number of basis function: 892
    Number of Cartesian functions: 1079
    Spherical Harmonics?: true
    Max angular momentum: 4


  -Total Gradient:
     Atom            X                  Y                   Z
    ------   -----------------  -----------------  -----------------
       1       -0.000371477191    -0.000356898822     0.000774887364
       2        0.001109840359     0.001536416447     0.001918808643
       3       -0.005991107352    -0.000421088289     0.002870213734
       4        0.000189635284    -0.001576746409    -0.001206343033
       5       -0.001716566644     0.001741882666    -0.001231043126
       6       -0.003798467028    -0.004345004867     0.001093907727
       7        0.001531703477     0.013120299866    -0.000808810128
       8       -0.002946646091    -0.001211225185    -0.001809565562
       9        0.003142472707     0.007863829995    -0.003146029182
      10       -0.002193332262    -0.009537265550    -0.000550087190
      11        0.005021509050    -0.005593296594    -0.002157436705
      12        0.006022435696    -0.001220903193     0.004251497454


*** tstop() called on cx1-27-4-1 at Sat Sep 10 16:21:33 2016
Module time:
	user time   =      33.12 seconds =       0.55 minutes
	system time =       0.63 seconds =       0.01 minutes
	total time  =          9 seconds =       0.15 minutes
Total time:
	user time   =     126.90 seconds =       2.12 minutes
	system time =       2.83 seconds =       0.05 minutes
	total time  =         36 seconds =       0.60 minutes

			-----------------------------------------
			 OPTKING 2.0: for geometry optimizations 
			  - R.A. King,  Bethel University        
			-----------------------------------------

	Previous internal coordinate definitions found.
	---Fragment 1 Geometry and Gradient---
	 H          -5.0600004307       -1.2307520861        2.4107134372
	 C          -3.9912546572       -0.7329470157        0.7558443352
	 O          -1.5850996484       -0.2635912083        1.4772476125
	 F          -4.0621974540       -2.6088821397       -0.9084177915
	 F          -5.0143552209        1.2545671912       -0.3709010012
	 C           0.1379209605        0.4741316913       -0.3363495177
	 C           2.6463370265       -1.0021841051       -0.0170853159
	 CL          0.6968766295        3.7790581912       -0.1640780186
	 H          -0.4921669401        0.1957020612       -2.2496010347
	 F           3.8229395095       -1.0710731238       -2.1998255366
	 F           2.1881838324       -3.3728547789        0.5819468296
	 F           4.1741609667       -0.0842550881        1.6927743576
	            -0.0003714772       -0.0003568988        0.0007748874
	             0.0011098404        0.0015364164        0.0019188086
	            -0.0059911074       -0.0004210883        0.0028702137
	             0.0001896353       -0.0015767464       -0.0012063430
	            -0.0017165666        0.0017418827       -0.0012310431
	            -0.0037984670       -0.0043450049        0.0010939077
	             0.0015317035        0.0131202999       -0.0008088101
	            -0.0029466461       -0.0012112252       -0.0018095656
	             0.0031424727        0.0078638300       -0.0031460292
	            -0.0021933323       -0.0095372655       -0.0005500872
	             0.0050215091       -0.0055932966       -0.0021574367
	             0.0060224357       -0.0012209032        0.0042514975

	---Fragment 1 Intrafragment Coordinates---
	 - Coordinate -           - BOHR/RAD -       - ANG/DEG -
	 R(1,2)           =         2.031900	       1.075235
	 R(2,3)           =         2.555445	       1.352283
	 R(2,4)           =         2.508771	       1.327585
	 R(2,5)           =         2.503298	       1.324688
	 R(3,6)           =         2.608097	       1.380145
	 R(6,7)           =         2.928069	       1.549467
	 R(6,8)           =         3.356285	       1.776069
	 R(6,9)           =         2.033486	       1.076074
	 R(7,10)          =         2.480624	       1.312690
	 R(7,11)          =         2.487735	       1.316452
	 R(7,12)          =         2.469911	       1.307021
	 B(1,2,3)         =         1.886342	     108.079434
	 B(1,2,4)         =         1.920070	     110.011882
	 B(1,2,5)         =         1.924240	     110.250819
	 B(2,3,6)         =         2.068827	     118.535060
	 B(3,2,4)         =         1.929687	     110.562942
	 B(3,2,5)         =         1.945572	     111.473063
	 B(3,6,7)         =         1.925724	     110.335879
	 B(3,6,8)         =         1.931424	     110.662452
	 B(3,6,9)         =         1.994152	     114.256516
	 B(4,2,5)         =         1.858276	     106.471385
	 B(6,7,10)        =         1.901171	     108.929065
	 B(6,7,11)        =         1.927251	     110.423333
	 B(6,7,12)        =         2.002063	     114.709750
	 B(7,6,8)         =         1.926458	     110.377937
	 B(7,6,9)         =         1.874441	     107.397583
	 B(8,6,9)         =         1.807731	     103.575336
	 B(10,7,11)       =         1.847064	     105.828996
	 B(10,7,12)       =         1.902934	     109.030103
	 B(11,7,12)       =         1.876936	     107.540505
	 D(1,2,3,6)       =        -3.116245	    -178.547707
	 D(2,3,6,7)       =        -2.349872	    -134.637738
	 D(2,3,6,8)       =         1.796048	     102.905964
	 D(2,3,6,9)       =        -0.236016	     -13.522719
	 D(3,6,7,10)      =         2.707321	     155.118066
	 D(3,6,7,11)      =         0.686040	      39.307173
	 D(3,6,7,12)      =        -1.437887	     -82.384837
	 D(4,2,3,6)       =         1.064501	      60.991399
	 D(5,2,3,6)       =        -0.998971	     -57.236828
	 D(8,6,7,10)      =        -1.435686	     -82.258734
	 D(8,6,7,11)      =         2.826218	     161.930372
	 D(8,6,7,12)      =         0.702292	      40.238362
	*D(9,6,7,10)      =         0.523598	      29.999961
	 D(9,6,7,11)      =        -1.497683	     -85.810932
	 D(9,6,7,12)      =         2.661576	     152.497058
	 R(5,8)           =         6.247720	       3.306151

	Current energy   :     -1146.6159267164

	Energy change for the previous step:
		Projected    :         0.0013403332
		Actual       :        -0.0004972266

	Performing BFGS update.
	Previous computed or guess Hessian on step 1.
	Steps to be used in Hessian update: 1
	Taking RFO optimization step.
	Going to follow RFO solution 1.
	Using RFO vector 1.
	Norm of target step-size    0.07981
	Projected energy change by RFO approximation:        -0.0007216122

	Back-transformation to cartesian coordinates...
	Could not converge backtransformation.
	Using first guess instead.

	Back-transformation to cartesian coordinates to adjust frozen coordinates...
	Successfully converged to displaced geometry.

	--- Internal Coordinate Step in ANG or DEG, aJ/ANG or AJ/DEG ---
	 ---------------------------------------------------------------------------
	   Coordinate                Previous        Force       Change         New 
	   ----------                --------       ------       ------       ------
	    1 R(1,2)          =      1.075235    -0.007530    -0.001151     1.074084
	    2 R(2,3)          =      1.352283    -0.005409    -0.000740     1.351543
	    3 R(2,4)          =      1.327585    -0.016263    -0.001638     1.325947
	    4 R(2,5)          =      1.324688    -0.021877    -0.002028     1.322660
	    5 R(3,6)          =      1.380145    -0.054076    -0.004801     1.375344
	    6 R(6,7)          =      1.549467    -0.087360    -0.010155     1.539313
	    7 R(6,8)          =      1.776069     0.013511     0.001196     1.777265
	    8 R(6,9)          =      1.076074    -0.007494    -0.001051     1.075024
	    9 R(7,10)         =      1.312690     0.002401    -0.000626     1.312063
	   10 R(7,11)         =      1.316452    -0.032014    -0.003467     1.312985
	   11 R(7,12)         =      1.307021    -0.051202    -0.003632     1.303388
	   12 B(1,2,3)        =    108.079434     0.000036     0.147653   108.227087
	   13 B(1,2,4)        =    110.011882     0.000009     0.086640   110.098522
	   14 B(1,2,5)        =    110.250819     0.000032     0.066757   110.317576
	   15 B(2,3,6)        =    118.535060    -0.000142    -0.355414   118.179646
	   16 B(3,2,4)        =    110.562942     0.000064     0.127838   110.690780
	   17 B(3,2,5)        =    111.473063    -0.000159    -0.432218   111.040844
	   18 B(3,6,7)        =    110.335879    -0.000344    -0.795206   109.540672
	   19 B(3,6,8)        =    110.662452     0.000266     0.237042   110.899494
	   20 B(3,6,9)        =    114.256516     0.000170     0.317652   114.574168
	   21 B(4,2,5)        =    106.471385     0.000020     0.003347   106.474732
	   22 B(6,7,10)       =    108.929065    -0.000180    -0.294891   108.634174
	   23 B(6,7,11)       =    110.423333    -0.000618    -0.859510   109.563823
	   24 B(6,7,12)       =    114.709750    -0.000357    -0.787160   113.922590
	   25 B(7,6,8)        =    110.377937    -0.000242    -0.584006   109.793931
	   26 B(7,6,9)        =    107.397583     0.000052     0.013609   107.411192
	   27 B(8,6,9)        =    103.575336     0.000108     0.852099   104.427435
	   28 B(10,7,11)      =    105.828996     0.000512     1.449729   107.278725
	   29 B(10,7,12)      =    109.030103     0.000283     0.149229   109.179332
	   30 B(11,7,12)      =    107.540505     0.000445     0.517779   108.058284
	   31 D(1,2,3,6)      =   -178.547707     0.000009     0.395282  -178.152425
	   32 D(2,3,6,7)      =   -134.637738    -0.000016     0.388531  -134.249207
	   33 D(2,3,6,8)      =    102.905964     0.000066     1.501369   104.407333
	   34 D(2,3,6,9)      =    -13.522719    -0.000032     0.033226   -13.489492
	   35 D(3,6,7,10)     =    155.118066     0.000006    -0.104043   155.014023
	   36 D(3,6,7,11)     =     39.307173    -0.000032    -1.196628    38.110545
	   37 D(3,6,7,12)     =    -82.384837     0.000002    -0.672035   -83.056873
	   38 D(4,2,3,6)      =     60.991399    -0.000007     0.118607    61.110006
	   39 D(5,2,3,6)      =    -57.236828     0.000001     0.306708   -56.930120
	   40 D(8,6,7,10)     =    -82.258734    -0.000008    -0.719316   -82.978050
	   41 D(8,6,7,11)     =    161.930372    -0.000046    -1.811901   160.118472
	   42 D(8,6,7,12)     =     40.238362    -0.000012    -1.287308    38.951054
	   43 *D(9,6,7,10)    =     29.999961    -0.000000     0.000000    29.999961
	   44 D(9,6,7,11)     =    -85.810932    -0.000038    -1.092585   -86.903517
	   45 D(9,6,7,12)     =    152.497058    -0.000004    -0.567992   151.929065
	   46 R(5,8)          =      3.306151     0.002036     0.010436     3.316586
	 ---------------------------------------------------------------------------
	Successfully symmetrized geometry.

  ==> Convergence Check <==

  Measures of convergence in internal coordinates in au.
  Criteria marked as inactive (o), active & met (*), and active & unmet ( ).
  ---------------------------------------------------------------------------------------------
   Step     Total Energy     Delta E     MAX Force     RMS Force      MAX Disp      RMS Disp   
  ---------------------------------------------------------------------------------------------
    Convergence Criteria    1.00e-06 *    3.00e-04 *             o    1.20e-03 *             o
  ---------------------------------------------------------------------------------------------
      2   -1146.61592672   -4.97e-04      1.06e-02      3.32e-03 o    3.16e-02      1.17e-02 o  ~
  ---------------------------------------------------------------------------------------------

	Writing optimization data to binary file.
	Structure for next step:
	Cartesian Geometry (in Angstrom)
	    H    -2.6654322821  -0.6580911133   1.2726008879
	    C    -2.0986031171  -0.3963389203   0.3986170625
	    O    -0.8272566454  -0.1415187459   0.7799473848
	    F    -2.1340445797  -1.3876753661  -0.4812299477
	    F    -2.6349218166   0.6547856479  -0.1988188492
	    C     0.0724389415   0.2542166548  -0.1820886019
	    C     1.3858765827  -0.5304042380  -0.0125752748
	   CL     0.3945488230   1.9984347965  -0.0697469893
	    H    -0.2613273063   0.1080752467  -1.1934830847
	    F     2.0035350027  -0.5688915424  -1.1695223000
	    F     1.1169028100  -1.7697790840   0.3273271131
	    F     2.1881761611  -0.0304092111   0.8847216913
			--------------------------
			 OPTKING Finished Execution 
			--------------------------

    Structure for next step:
    Molecular point group: c1
    Full point group: C1

    Geometry (in Angstrom), charge = 0, multiplicity = 1:

    H           -2.666434339005    -0.658429674197     1.270146761248
    C           -2.099605173952    -0.396677481164     0.396162935893
    O           -0.828258702256    -0.141857306724     0.777493258237
    F           -2.135046636586    -1.388013926954    -0.483684074254
    F           -2.635923873490     0.654447087014    -0.201272975755
    C            0.071436884603     0.253878093894    -0.184542728470
    C            1.384874525796    -0.530742798891    -0.015029401382
    CL           0.393546766096     1.998096235642    -0.072201115952
    H           -0.262329363192     0.107736685876    -1.195937211287
    F            2.002532945780    -0.569230103293    -1.171976426624
    F            1.115900753155    -1.770117644844     0.324872986478
    F            2.187174104253    -0.030747771944     0.882267564687

gradient() will perform analytic gradient computation.

*** tstart() called on cx1-27-4-1
*** at Sat Sep 10 16:21:33 2016


         ---------------------------------------------------------
                                   SCF
            by Justin Turney, Rob Parrish, and Andy Simmonett
                              RHF Reference
                        4 Threads,   2000 MiB Core
         ---------------------------------------------------------

  ==> Geometry <==

    Molecular point group: c1
    Full point group: C1

    Geometry (in Angstrom), charge = 0, multiplicity = 1:

       Center              X                  Y                   Z               Mass       
    ------------   -----------------  -----------------  -----------------  -----------------
           H         -2.666434339005    -0.658429674197     1.270146761248     1.007825032070
           C         -2.099605173952    -0.396677481164     0.396162935893    12.000000000000
           O         -0.828258702256    -0.141857306724     0.777493258237    15.994914619560
           F         -2.135046636586    -1.388013926954    -0.483684074254    18.998403224000
           F         -2.635923873490     0.654447087014    -0.201272975755    18.998403224000
           C          0.071436884603     0.253878093894    -0.184542728470    12.000000000000
           C          1.384874525796    -0.530742798891    -0.015029401382    12.000000000000
          CL          0.393546766096     1.998096235642    -0.072201115952    34.968852682000
           H         -0.262329363192     0.107736685876    -1.195937211287     1.007825032070
           F          2.002532945780    -0.569230103293    -1.171976426624    18.998403224000
           F          1.115900753155    -1.770117644844     0.324872986478    18.998403224000
           F          2.187174104253    -0.030747771944     0.882267564687    18.998403224000

  Running in c1 symmetry.

  Rotational constants: A =      0.05267  B =      0.02946  C =      0.02201 [cm^-1]
  Rotational constants: A =   1578.97643  B =    883.04371  C =    659.90314 [MHz]
  Nuclear repulsion =  736.886892914677787

  Charge       = 0
  Multiplicity = 1
  Electrons    = 90
  Nalpha       = 45
  Nbeta        = 45

  ==> Algorithm <==

  SCF Algorithm Type is DF.
  DIIS enabled.
  MOM disabled.
  Fractional occupation disabled.
  Guess Type is READ.
  Energy threshold   = 1.00e-08
  Density threshold  = 1.00e-08
  Integral threshold = 0.00e+00

  ==> Primary Basis <==

  Basis Set: CC-PVTZ
    Number of shells: 114
    Number of basis function: 332
    Number of Cartesian functions: 384
    Spherical Harmonics?: true
    Max angular momentum: 3

  ==> Pre-Iterations <==

   -------------------------------------------------------
    Irrep   Nso     Nmo     Nalpha   Nbeta   Ndocc  Nsocc
   -------------------------------------------------------
     A        332     332       0       0       0       0
   -------------------------------------------------------
    Total     332     332      45      45      45       0
   -------------------------------------------------------

  ==> Integral Setup <==

  ==> DFJK: Density-Fitted J/K Matrices <==

    J tasked:                  Yes
    K tasked:                  Yes
    wK tasked:                  No
    OpenMP threads:              4
    Integrals threads:           4
    Memory (MB):              1430
    Algorithm:                Core
    Integral Cache:           NONE
    Schwarz Cutoff:          1E-12
    Fitting Condition:       1E-12

   => Auxiliary Basis Set <=

  Basis Set: 
    Number of shells: 282
    Number of basis function: 892
    Number of Cartesian functions: 1079
    Spherical Harmonics?: true
    Max angular momentum: 4

  Minimum eigenvalue in the overlap matrix is 8.1587189203E-04.
  Using Symmetric Orthogonalization.
  SCF Guess: Reading in previously saved MOs, projecting if necessary.

  Using orbitals from previous SCF, no projection.
  Recomputing DOCC and SOCC from number of alpha and beta electrons from previous calculation.
              A 
    DOCC [    45 ]

  ==> Iterations <==

                           Total Energy        Delta E     RMS |[F,P]|

   @DF-RHF iter   0: -1146.63991097943563   -1.14664e+03   2.06704e-04 
   @DF-RHF iter   1: -1146.61648065141162    2.34303e-02   3.14204e-05 
   @DF-RHF iter   2: -1146.61656212357957   -8.14722e-05   1.25738e-05 DIIS
   @DF-RHF iter   3: -1146.61657591323046   -1.37897e-05   5.87738e-06 DIIS
   @DF-RHF iter   4: -1146.61657907671133   -3.16348e-06   1.47770e-06 DIIS
   @DF-RHF iter   5: -1146.61657929352987   -2.16819e-07   5.23328e-07 DIIS
   @DF-RHF iter   6: -1146.61657933250672   -3.89769e-08   1.49296e-07 DIIS
   @DF-RHF iter   7: -1146.61657933672768   -4.22096e-09   5.22976e-08 DIIS
   @DF-RHF iter   8: -1146.61657933717197   -4.44288e-10   1.95076e-08 DIIS
   @DF-RHF iter   9: -1146.61657933722290   -5.09317e-11   5.63713e-09 DIIS

  ==> Post-Iterations <==

    Orbital Energies (a.u.)
    -----------------------

    Doubly Occupied:                                                      

       1A   -104.854684     2A    -26.355427     3A    -26.355381  
       4A    -26.351626     5A    -26.343515     6A    -26.343470  
       7A    -20.641937     8A    -11.521976     9A    -11.484575  
      10A    -11.401881    11A    -10.580317    12A     -8.047097  
      13A     -8.045136    14A     -8.045037    15A     -1.767715  
      16A     -1.725156    17A     -1.664541    18A     -1.659294  
      19A     -1.645029    20A     -1.488643    21A     -1.176847  
      22A     -1.050254    23A     -0.992025    24A     -0.924764  
      25A     -0.864164    26A     -0.859307    27A     -0.851276  
      28A     -0.830550    29A     -0.819649    30A     -0.794640  
      31A     -0.735098    32A     -0.733537    33A     -0.712508  
      34A     -0.707904    35A     -0.685520    36A     -0.681245  
      37A     -0.665126    38A     -0.664004    39A     -0.650736  
      40A     -0.636111    41A     -0.599495    42A     -0.581415  
      43A     -0.523666    44A     -0.477629    45A     -0.468055  

    Virtual:                                                              

      46A      0.151860    47A      0.158714    48A      0.175230  
      49A      0.254819    50A      0.279113    51A      0.286859  
      52A      0.325212    53A      0.332171    54A      0.358597  
      55A      0.392398    56A      0.399247    57A      0.410800  
      58A      0.466390    59A      0.479812    60A      0.489018  
      61A      0.490133    62A      0.499262    63A      0.507801  
      64A      0.524723    65A      0.534745    66A      0.542556  
      67A      0.554668    68A      0.563185    69A      0.579557  
      70A      0.597991    71A      0.611827    72A      0.643216  
      73A      0.652488    74A      0.679466    75A      0.698638  
      76A      0.738754    77A      0.764190    78A      0.768644  
      79A      0.800586    80A      0.826631    81A      0.864993  
      82A      0.871468    83A      0.890735    84A      0.923193  
      85A      0.935819    86A      0.963045    87A      0.973127  
      88A      0.995607    89A      1.022069    90A      1.027295  
      91A      1.050589    92A      1.065887    93A      1.083121  
      94A      1.101564    95A      1.107928    96A      1.115988  
      97A      1.125868    98A      1.141639    99A      1.153929  
     100A      1.191460   101A      1.219434   102A      1.238286  
     103A      1.267433   104A      1.280739   105A      1.313334  
     106A      1.336819   107A      1.363958   108A      1.383901  
     109A      1.394772   110A      1.418578   111A      1.433605  
     112A      1.477886   113A      1.484350   114A      1.496714  
     115A      1.523196   116A      1.548403   117A      1.601778  
     118A      1.694989   119A      1.811167   120A      1.838815  
     121A      1.923775   122A      1.967294   123A      2.004671  
     124A      2.068797   125A      2.076218   126A      2.110948  
     127A      2.144694   128A      2.171185   129A      2.183167  
     130A      2.185625   131A      2.211960   132A      2.227699  
     133A      2.232862   134A      2.252509   135A      2.261203  
     136A      2.264568   137A      2.288327   138A      2.297792  
     139A      2.331746   140A      2.345430   141A      2.352881  
     142A      2.372776   143A      2.395411   144A      2.398248  
     145A      2.409795   146A      2.427971   147A      2.448335  
     148A      2.459060   149A      2.475734   150A      2.502117  
     151A      2.520980   152A      2.538251   153A      2.570247  
     154A      2.585447   155A      2.594675   156A      2.615083  
     157A      2.624554   158A      2.656737   159A      2.661548  
     160A      2.691881   161A      2.703822   162A      2.729462  
     163A      2.746895   164A      2.785734   165A      2.804358  
     166A      2.812892   167A      2.838377   168A      2.849750  
     169A      2.892374   170A      2.931858   171A      3.018755  
     172A      3.070603   173A      3.115823   174A      3.137758  
     175A      3.161376   176A      3.172175   177A      3.235457  
     178A      3.267563   179A      3.290273   180A      3.301640  
     181A      3.311239   182A      3.338525   183A      3.360281  
     184A      3.374099   185A      3.399961   186A      3.436723  
     187A      3.464985   188A      3.500423   189A      3.526990  
     190A      3.544396   191A      3.564885   192A      3.585618  
     193A      3.628291   194A      3.641670   195A      3.669291  
     196A      3.709347   197A      3.734283   198A      3.739102  
     199A      3.775676   200A      3.795770   201A      3.822938  
     202A      3.829889   203A      3.850420   204A      3.903810  
     205A      3.936637   206A      3.944285   207A      3.979924  
     208A      3.999767   209A      4.036493   210A      4.052340  
     211A      4.073291   212A      4.079937   213A      4.122152  
     214A      4.173286   215A      4.228162   216A      4.290979  
     217A      4.320181   218A      4.356686   219A      4.375348  
     220A      4.410061   221A      4.432251   222A      4.480023  
     223A      4.531739   224A      4.603542   225A      4.692148  
     226A      4.949839   227A      5.033132   228A      5.115823  
     229A      5.134054   230A      5.187367   231A      5.223243  
     232A      5.241275   233A      5.302532   234A      5.324103  
     235A      5.357356   236A      5.375790   237A      5.399433  
     238A      5.414473   239A      5.444237   240A      5.477674  
     241A      5.491304   242A      5.507771   243A      5.549612  
     244A      5.563042   245A      5.777202   246A      5.799429  
     247A      5.817223   248A      5.956940   249A      6.091573  
     250A      6.242198   251A      6.362677   252A      6.474413  
     253A      6.504775   254A      6.543651   255A      6.582442  
     256A      6.642166   257A      6.745034   258A      6.812545  
     259A      7.142375   260A      7.198026   261A      7.297957  
     262A      7.321527   263A      7.341284   264A      7.343662  
     265A      7.345532   266A      7.347009   267A      7.349650  
     268A      7.353306   269A      7.355689   270A      7.358116  
     271A      7.361925   272A      7.363393   273A      7.364710  
     274A      7.377099   275A      7.443732   276A      7.473759  
     277A      7.493901   278A      7.503397   279A      7.510629  
     280A      7.531522   281A      7.559884   282A      7.594612  
     283A      7.621444   284A      7.625005   285A      7.661285  
     286A      7.763473   287A      7.827095   288A      7.867311  
     289A      7.886182   290A      7.930836   291A      7.936507  
     292A      7.952667   293A      7.988703   294A      7.993206  
     295A      8.084907   296A      8.109168   297A      8.151890  
     298A      8.166537   299A      8.885365   300A      8.894579  
     301A      8.915749   302A      8.920623   303A      8.959822  
     304A      8.996420   305A      9.017887   306A      9.020673  
     307A      9.037369   308A      9.076387   309A      9.164875  
     310A      9.317437   311A      9.338187   312A      9.386631  
     313A      9.392698   314A      9.456166   315A      9.491450  
     316A      9.510375   317A      9.559520   318A      9.642901  
     319A      9.654887   320A      9.666165   321A      9.670180  
     322A      9.722948   323A      9.738300   324A     10.780157  
     325A     11.401534   326A     11.982112   327A     12.149981  
     328A     12.435877   329A     12.441473   330A     12.688326  
     331A     13.174947   332A     13.425413  

    Final Occupation by Irrep:
              A 
    DOCC [    45 ]

  Energy converged.

  @DF-RHF Final Energy: -1146.61657933722290

   => Energetics <=

    Nuclear Repulsion Energy =            736.8868929146777873
    One-Electron Energy =               -3056.9910199857031330
    Two-Electron Energy =                1173.4875477338011933
    DFT Exchange-Correlation Energy =       0.0000000000000000
    Empirical Dispersion Energy =           0.0000000000000000
    PCM Polarization Energy =               0.0000000000000000
    EFP Energy =                            0.0000000000000000
    Total Energy =                      -1146.6165793372240387


  Saving occupied orbitals to File 180.

*** tstop() called on cx1-27-4-1 at Sat Sep 10 16:21:41 2016
Module time:
	user time   =      25.11 seconds =       0.42 minutes
	system time =       0.63 seconds =       0.01 minutes
	total time  =          8 seconds =       0.13 minutes
Total time:
	user time   =     153.01 seconds =       2.55 minutes
	system time =       3.50 seconds =       0.06 minutes
	total time  =         44 seconds =       0.73 minutes


Properties will be evaluated at   0.000000,   0.000000,   0.000000 Bohr

Properties computed using the SCF density matrix

  Nuclear Dipole Moment: (a.u.)
     X:    -3.6142      Y:     0.5818      Z:     0.7524

  Electronic Dipole Moment: (a.u.)
     X:     2.9986      Y:    -0.7574      Z:    -0.6180

  Dipole Moment: (a.u.)
     X:    -0.6156      Y:    -0.1756      Z:     0.1344     Total:     0.6542

  Dipole Moment: (Debye)
     X:    -1.5648      Y:    -0.4463      Z:     0.3417     Total:     1.6627


*** tstart() called on cx1-27-4-1
*** at Sat Sep 10 16:21:41 2016


         ------------------------------------------------------------
                                   SCF GRAD                          
                          Rob Parrish, Justin Turney,                
                       Andy Simmonett, and Alex Sokolov              
         ------------------------------------------------------------

  ==> Geometry <==

    Molecular point group: c1
    Full point group: C1

    Geometry (in Angstrom), charge = 0, multiplicity = 1:

       Center              X                  Y                   Z               Mass       
    ------------   -----------------  -----------------  -----------------  -----------------
           H         -2.666434339005    -0.658429674197     1.270146761248     1.007825032070
           C         -2.099605173952    -0.396677481164     0.396162935893    12.000000000000
           O         -0.828258702256    -0.141857306724     0.777493258237    15.994914619560
           F         -2.135046636586    -1.388013926954    -0.483684074254    18.998403224000
           F         -2.635923873490     0.654447087014    -0.201272975755    18.998403224000
           C          0.071436884603     0.253878093894    -0.184542728470    12.000000000000
           C          1.384874525796    -0.530742798891    -0.015029401382    12.000000000000
          CL          0.393546766096     1.998096235642    -0.072201115952    34.968852682000
           H         -0.262329363192     0.107736685876    -1.195937211287     1.007825032070
           F          2.002532945780    -0.569230103293    -1.171976426624    18.998403224000
           F          1.115900753155    -1.770117644844     0.324872986478    18.998403224000
           F          2.187174104253    -0.030747771944     0.882267564687    18.998403224000

  Nuclear repulsion =  736.886892914677787

  ==> Basis Set <==

  Basis Set: CC-PVTZ
    Number of shells: 114
    Number of basis function: 332
    Number of Cartesian functions: 384
    Spherical Harmonics?: true
    Max angular momentum: 3

  ==> DFJKGrad: Density-Fitted SCF Gradients <==

    Gradient:                    1
    J tasked:                  Yes
    K tasked:                  Yes
    wK tasked:                  No
    OpenMP threads:              4
    Integrals threads:           4
    Memory (MB):              1430
    Schwarz Cutoff:          0E+00
    Fitting Condition:       1E-12

   => Auxiliary Basis Set <=

  Basis Set: 
    Number of shells: 282
[...]
                          Rob Parrish, Justin Turney,                
                       Andy Simmonett, and Alex Sokolov              
         ------------------------------------------------------------

  ==> Geometry <==

    Molecular point group: c1
    Full point group: C1

    Geometry (in Angstrom), charge = 0, multiplicity = 1:

       Center              X                  Y                   Z               Mass       
    ------------   -----------------  -----------------  -----------------  -----------------
           H         -2.617118681718    -0.842161854203     1.256294243808     1.007825032070
           C         -2.069815223841    -0.525635769236     0.387988391451    12.000000000000
           O         -0.818984327883    -0.188492558330     0.776969071696    15.994914619560
           F         -2.034884686788    -1.501578416387    -0.507812754013    18.998403224000
           F         -2.679325435540     0.495370232551    -0.191430361638    18.998403224000
           C          0.054529788090     0.281134157242    -0.173134209338    12.000000000000
           C          1.399146995847    -0.454658852232    -0.044137063025    12.000000000000
          CL          0.306298372659     2.033261199716     0.012203473241    34.968852682000
           H         -0.285596627915     0.161658150662    -1.185744339980     1.007825032070
           F          2.013049321679    -0.428282932992    -1.204457204486    18.998403224000
           F          1.182251037520    -1.713778090293     0.250811835681    18.998403224000
           F          2.187796090471     0.042211606033     0.864716834798    18.998403224000

  Nuclear repulsion =  737.010705566453566

  ==> Basis Set <==

  Basis Set: CC-PVTZ
    Number of shells: 114
    Number of basis function: 332
    Number of Cartesian functions: 384
    Spherical Harmonics?: true
    Max angular momentum: 3

  ==> DFJKGrad: Density-Fitted SCF Gradients <==

    Gradient:                    1
    J tasked:                  Yes
    K tasked:                  Yes
    wK tasked:                  No
    OpenMP threads:              4
    Integrals threads:           4
    Memory (MB):              1430
    Schwarz Cutoff:          0E+00
    Fitting Condition:       1E-12

   => Auxiliary Basis Set <=

  Basis Set: 
    Number of shells: 282
    Number of basis function: 892
    Number of Cartesian functions: 1079
    Spherical Harmonics?: true
    Max angular momentum: 4


  -Total Gradient:
     Atom            X                  Y                   Z
    ------   -----------------  -----------------  -----------------
       1       -0.000043007385    -0.000035575542    -0.000023528001
       2        0.000062702308     0.000067645321     0.000175041323
       3       -0.000029131472    -0.000059952238    -0.000027379119
       4       -0.000000786957    -0.000021319235    -0.000039657027
       5        0.000046179873     0.000018419189    -0.000047044537
       6       -0.004695222962    -0.008228556648     0.001735879382
       7        0.003790080377     0.007354335378     0.001473239306
       8       -0.000103423921    -0.000106451219     0.000039706063
       9        0.003392151899     0.005844791326    -0.001833425667
      10       -0.002492121951    -0.004916727250    -0.001568257249
      11        0.000024075516     0.000063959560     0.000104162408
      12        0.000048504674     0.000019431422     0.000011263123


*** tstop() called on cx1-27-4-1 at Sat Sep 10 16:25:09 2016
Module time:
	user time   =      33.29 seconds =       0.55 minutes
	system time =       0.65 seconds =       0.01 minutes
	total time  =          9 seconds =       0.15 minutes
Total time:
	user time   =     897.46 seconds =      14.96 minutes
	system time =      18.97 seconds =       0.32 minutes
	total time  =        252 seconds =       4.20 minutes

			-----------------------------------------
			 OPTKING 2.0: for geometry optimizations 
			  - R.A. King,  Bethel University        
			-----------------------------------------

	Previous internal coordinate definitions found.
	---Fragment 1 Geometry and Gradient---
	 H          -4.9456375657       -1.5914552640        2.3740520631
	 C          -3.9113839187       -0.9933076495        0.7331918026
	 O          -1.5476560868       -0.3561993133        1.4682587592
	 F          -3.8453747700       -2.8375719740       -0.9596270319
	 F          -5.0631912940        0.9361140739       -0.3617509570
	 C           0.1030463656        0.5312665638       -0.3271762399
	 C           2.6440046418       -0.8591807146       -0.0834069614
	 CL          0.5788200393        3.8423068241        0.0230612223
	 H          -0.5396994112        0.3054896319       -2.2407320662
	 F           3.8041119100       -0.8093374507       -2.2760942553
	 F           2.2341306812       -3.2385712432        0.4739656803
	 F           4.1343354456        0.0797683750        1.6340780003
	            -0.0000430074       -0.0000355755       -0.0000235280
	             0.0000627023        0.0000676453        0.0001750413
	            -0.0000291315       -0.0000599522       -0.0000273791
	            -0.0000007870       -0.0000213192       -0.0000396570
	             0.0000461799        0.0000184192       -0.0000470445
	            -0.0046952230       -0.0082285566        0.0017358794
	             0.0037900804        0.0073543354        0.0014732393
	            -0.0001034239       -0.0001064512        0.0000397061
	             0.0033921519        0.0058447913       -0.0018334257
	            -0.0024921220       -0.0049167272       -0.0015682572
	             0.0000240755        0.0000639596        0.0001041624
	             0.0000485047        0.0000194314        0.0000112631

	---Fragment 1 Intrafragment Coordinates---
	 - Coordinate -           - BOHR/RAD -       - ANG/DEG -
	 R(1,2)           =         2.029750	       1.074097
	 R(2,3)           =         2.556059	       1.352608
	 R(2,4)           =         2.504257	       1.325196
	 R(2,5)           =         2.499646	       1.322755
	 R(3,6)           =         2.595381	       1.373416
	 R(6,7)           =         2.906757	       1.538190
	 R(6,8)           =         3.363334	       1.779800
	 R(6,9)           =         2.031205	       1.074867
	 R(7,10)          =         2.481171	       1.312979
	 R(7,11)          =         2.477935	       1.311267
	 R(7,12)          =         2.460176	       1.301869
	 B(1,2,3)         =         1.888283	     108.190620
	 B(1,2,4)         =         1.920765	     110.051751
	 B(1,2,5)         =         1.924937	     110.290782
	 B(2,3,6)         =         2.065132	     118.323369
	 B(3,2,4)         =         1.932196	     110.706704
	 B(3,2,5)         =         1.938735	     111.081333
	 B(3,6,7)         =         1.911759	     109.535725
	 B(3,6,8)         =         1.933236	     110.766245
	 B(3,6,9)         =         1.995934	     114.358600
	 B(4,2,5)         =         1.859273	     106.528518
	 B(6,7,10)        =         1.901811	     108.965721
	 B(6,7,11)        =         1.910913	     109.487225
	 B(6,7,12)        =         1.988352	     113.924169
	 B(7,6,8)         =         1.916143	     109.786878
	 B(7,6,9)         =         1.878057	     107.604758
	 B(8,6,9)         =         1.825844	     104.613129
	 B(10,7,11)       =         1.870682	     107.182167
	 B(10,7,12)       =         1.902904	     109.028366
	 B(11,7,12)       =         1.885625	     108.038344
	 D(1,2,3,6)       =        -3.114068	    -178.422931
	 D(2,3,6,7)       =        -2.303019	    -131.953255
	 D(2,3,6,8)       =         1.864038	     106.801530
	 D(2,3,6,9)       =        -0.193630	     -11.094207
	 D(3,6,7,10)      =         2.703009	     154.871030
	 D(3,6,7,11)      =         0.662132	      37.937350
	 D(3,6,7,12)      =        -1.451230	     -83.149338
	 D(4,2,3,6)       =         1.063088	      60.910477
	 D(5,2,3,6)       =        -0.998895	     -57.232440
	 D(8,6,7,10)      =        -1.453759	     -83.294228
	 D(8,6,7,11)      =         2.788549	     159.772091
	 D(8,6,7,12)      =         0.675188	      38.685404
	*D(9,6,7,10)      =         0.523598	      29.999961
	 D(9,6,7,11)      =        -1.517280	     -86.933719
	 D(9,6,7,12)      =         2.652544	     151.979593
	 R(5,8)           =         6.358170	       3.364599

	Current energy   :     -1146.6166269782

	Energy change for the previous step:
		Projected    :        -0.0000026262
		Actual       :        -0.0000006684

	Performing BFGS update.
	Previous computed or guess Hessian on step 1.
	Steps to be used in Hessian update: 14 13
	Taking RFO optimization step.
	Going to follow RFO solution 1.
	Rejecting RFO root 1 because normalization gives large value.
	Rejecting RFO root 2 because normalization gives large value.
	Using RFO vector 3.
	Norm of target step-size    0.00184
	Projected energy change by RFO approximation:        -0.0000001345

	Back-transformation to cartesian coordinates...
	Successfully converged to displaced geometry.

	Back-transformation to cartesian coordinates to adjust frozen coordinates...
	Successfully converged to displaced geometry.

	--- Internal Coordinate Step in ANG or DEG, aJ/ANG or AJ/DEG ---
	 ---------------------------------------------------------------------------
	   Coordinate                Previous        Force       Change         New 
	   ----------                --------       ------       ------       ------
	    1 R(1,2)          =      1.074097    -0.000110    -0.000022     1.074075
	    2 R(2,3)          =      1.352608     0.000261     0.000022     1.352631
	    3 R(2,4)          =      1.325196    -0.000350    -0.000060     1.325136
	    4 R(2,5)          =      1.322755    -0.000151    -0.000001     1.322755
	    5 R(3,6)          =      1.373416    -0.000431     0.000037     1.373453
	    6 R(6,7)          =      1.538190     0.000051    -0.000011     1.538179
	    7 R(6,8)          =      1.779800     0.000676     0.000088     1.779888
	    8 R(6,9)          =      1.074867    -0.000034    -0.000045     1.074822
	    9 R(7,10)         =      1.312979    -0.001004    -0.000101     1.312879
	   10 R(7,11)         =      1.311267     0.000346     0.000032     1.311298
	   11 R(7,12)         =      1.301869    -0.000368    -0.000054     1.301815
	   12 B(1,2,3)        =    108.190620    -0.000007    -0.019808   108.170811
	   13 B(1,2,4)        =    110.051751     0.000002     0.003783   110.055534
	   14 B(1,2,5)        =    110.290782    -0.000000    -0.005705   110.285076
	   15 B(2,3,6)        =    118.323369    -0.000000     0.000557   118.323926
	   16 B(3,2,4)        =    110.706704     0.000003     0.003811   110.710515
	   17 B(3,2,5)        =    111.081333    -0.000001     0.006350   111.087682
	   18 B(3,6,7)        =    109.535725     0.000006    -0.010592   109.525133
	   19 B(3,6,8)        =    110.766245     0.000002     0.009134   110.775378
	   20 B(3,6,9)        =    114.358600    -0.000003    -0.002219   114.356382
	   21 B(4,2,5)        =    106.528518     0.000004     0.012150   106.540668
	   22 B(6,7,10)       =    108.965721    -0.000001     0.000919   108.966640
	   23 B(6,7,11)       =    109.487225    -0.000002     0.003819   109.491045
	   24 B(6,7,12)       =    113.924169    -0.000001    -0.006230   113.917939
	   25 B(7,6,8)        =    109.786878    -0.000007    -0.006057   109.780821
	   26 B(7,6,9)        =    107.604758     0.000001     0.012703   107.617462
	   27 B(8,6,9)        =    104.613129     0.000001    -0.002689   104.610440
	   28 B(10,7,11)      =    107.182167    -0.000002    -0.013769   107.168397
	   29 B(10,7,12)      =    109.028366     0.000001     0.004031   109.032397
	   30 B(11,7,12)      =    108.038344     0.000004     0.010624   108.048968
	   31 D(1,2,3,6)      =   -178.422931     0.000000    -0.026154  -178.449085
	   32 D(2,3,6,7)      =   -131.953255    -0.000001     0.001318  -131.951938
	   33 D(2,3,6,8)      =    106.801530     0.000000     0.009970   106.811500
	   34 D(2,3,6,9)      =    -11.094207     0.000000     0.008398   -11.085809
	   35 D(3,6,7,10)     =    154.871030     0.000000    -0.001156   154.869874
	   36 D(3,6,7,11)     =     37.937350     0.000001     0.012710    37.950059
	   37 D(3,6,7,12)     =    -83.149338     0.000000     0.000469   -83.148869
	   38 D(4,2,3,6)      =     60.910477     0.000000    -0.020549    60.889929
	   39 D(5,2,3,6)      =    -57.232440    -0.000001    -0.042155   -57.274594
	   40 D(8,6,7,10)     =    -83.294228     0.000001    -0.000521   -83.294749
	   41 D(8,6,7,11)     =    159.772091     0.000002     0.013345   159.785437
	   42 D(8,6,7,12)     =     38.685404     0.000001     0.001104    38.686508
	   43 *D(9,6,7,10)    =     29.999961    -0.000000    -0.000000    29.999961
	   44 D(9,6,7,11)     =    -86.933719     0.000001     0.013866   -86.919853
	   45 D(9,6,7,12)     =    151.979593     0.000000     0.001625   151.981218
	   46 R(5,8)          =      3.364599     0.000471     0.000697     3.365296
	 ---------------------------------------------------------------------------
	Successfully symmetrized geometry.

  ==> Convergence Check <==

  Measures of convergence in internal coordinates in au.
  Criteria marked as inactive (o), active & met (*), and active & unmet ( ).
  ---------------------------------------------------------------------------------------------
   Step     Total Energy     Delta E     MAX Force     RMS Force      MAX Disp      RMS Disp   
  ---------------------------------------------------------------------------------------------
    Convergence Criteria    1.00e-06 *    3.00e-04 *             o    1.20e-03 *             o
  ---------------------------------------------------------------------------------------------
     15   -1146.61662698   -6.68e-07 *    1.22e-04 *    4.62e-05 o    1.32e-03      2.71e-04 o  ~
  ---------------------------------------------------------------------------------------------


  **** Optimization is complete! (in 15 steps) ****

  ==> Optimization Summary <==

  Measures of convergence in internal coordinates in au.
  --------------------------------------------------------------------------------------------------------------- ~
   Step         Total Energy             Delta E       MAX Force       RMS Force        MAX Disp        RMS Disp  ~
  --------------------------------------------------------------------------------------------------------------- ~
      1   -1146.615429489837  -1146.615429489837      0.01259684      0.00335803      0.12894601      0.04049295  ~
      2   -1146.615926716401     -0.000497226564      0.01060361      0.00331870      0.03162364      0.01173164  ~
      3   -1146.616579337223     -0.000652620822      0.00197714      0.00067860      0.02000067      0.00420177  ~
      4   -1146.616611356814     -0.000032019591      0.00070338      0.00026305      0.01805971      0.00334062  ~
      5   -1146.616619595185     -0.000008238371      0.00024540      0.00008902      0.02351140      0.00446608  ~
      6   -1146.616623723907     -0.000004128723      0.00033885      0.00011213      0.01997326      0.00409790  ~
      7   -1146.616626384906     -0.000002660998      0.00026927      0.00008305      0.12020189      0.03659830  ~
      8   -1146.615259479706      0.001366905200      0.01463178      0.00372948      0.09493546      0.03677304  ~
      9   -1146.607904602578      0.007354877128      0.03075776      0.01097742      0.13380203      0.03675794  ~
     10   -1146.609954397197     -0.002049794619      0.02742379      0.00929808      0.09306579      0.03693323  ~
     11   -1146.616380511750     -0.006426114554      0.00343689      0.00110613      0.06154448      0.01849245  ~
     12   -1146.616592897229     -0.000212385478      0.00318770      0.00062879      0.01423217      0.00424549  ~
     13   -1146.616621824348     -0.000028927119      0.00049575      0.00018587      0.00597344      0.00217747  ~
     14   -1146.616626309891     -0.000004485543      0.00026521      0.00008722      0.00213581      0.00074037  ~
     15   -1146.616626978244     -0.000000668353      0.00012192      0.00004617      0.00131674      0.00027057  ~
  --------------------------------------------------------------------------------------------------------------- ~

	Writing optimization data to binary file.
	Final energy is  -1146.6166269782439
	Final (previous) structure:
	Cartesian Geometry (in Angstrom)
	    H    -2.6171186817  -0.8421618542   1.2562942438
	    C    -2.0698152238  -0.5256357692   0.3879883915
	    O    -0.8189843279  -0.1884925583   0.7769690717
	    F    -2.0348846868  -1.5015784164  -0.5078127540
	    F    -2.6793254355   0.4953702326  -0.1914303616
	    C     0.0545297881   0.2811341572  -0.1731342093
	    C     1.3991469958  -0.4546588522  -0.0441370630
	   CL     0.3062983727   2.0332611997   0.0122034732
	    H    -0.2855966279   0.1616581507  -1.1857443400
	    F     2.0130493217  -0.4282829330  -1.2044572045
	    F     1.1822510375  -1.7137780903   0.2508118357
	    F     2.1877960905   0.0422116060   0.8647168348
	Saving final (previous) structure.
			--------------------------
			 OPTKING Finished Execution 
			--------------------------

    Final optimized geometry and variables:
    Molecular point group: c1
    Full point group: C1

    Geometry (in Angstrom), charge = 0, multiplicity = 1:

    H           -2.617118681718    -0.842161854203     1.256294243808
    C           -2.069815223841    -0.525635769236     0.387988391451
    O           -0.818984327883    -0.188492558330     0.776969071696
    F           -2.034884686788    -1.501578416387    -0.507812754013
    F           -2.679325435540     0.495370232551    -0.191430361638
    C            0.054529788090     0.281134157242    -0.173134209338
    C            1.399146995847    -0.454658852232    -0.044137063025
    CL           0.306298372659     2.033261199716     0.012203473241
    H           -0.285596627915     0.161658150662    -1.185744339980
    F            2.013049321679    -0.428282932992    -1.204457204486
    F            1.182251037520    -1.713778090293     0.250811835681
    F            2.187796090471     0.042211606033     0.864716834798

	Cleaning optimization helper files.


Properties will be evaluated at   0.000000,   0.000000,   0.000000 Bohr

Properties computed using the  density matrix

  Nuclear Dipole Moment: (a.u.)
     X:    -3.6365      Y:     0.4299      Z:     0.8022

  Electronic Dipole Moment: (a.u.)
     X:     3.0223      Y:    -0.6351      Z:    -0.6695

  Dipole Moment: (a.u.)
     X:    -0.6142      Y:    -0.2051      Z:     0.1327     Total:     0.6611

  Dipole Moment: (Debye)
     X:    -1.5613      Y:    -0.5214      Z:     0.3374     Total:     1.6802

  Quadrupole Moment: (Debye Ang)
    XX:   -60.5200     YY:   -63.2447     ZZ:   -59.0773
    XY:     2.0364     XZ:    -3.6627     YZ:    -1.5077

  Traceless Quadrupole Moment: (Debye Ang)
    XX:     0.4273     YY:    -2.2974     ZZ:     1.8700
    XY:     2.0364     XZ:    -3.6627     YZ:    -1.5077

  Mulliken Charges: (a.u.)
   Center  Symbol    Alpha    Beta     Spin     Total
       1     H     0.45167  0.45167  0.00000  0.09666
       2     C     2.73847  2.73847  0.00000  0.52306
       3     O     4.15315  4.15315  0.00000 -0.30629
       4     F     4.61765  4.61765  0.00000 -0.23530
       5     F     4.61528  4.61528  0.00000 -0.23057
       6     C     2.94535  2.94535  0.00000  0.10930
       7     C     2.66628  2.66628  0.00000  0.66743
       8    CL     8.57527  8.57527  0.00000 -0.15055
       9     H     0.43161  0.43161  0.00000  0.13678
      10     F     4.60606  4.60606  0.00000 -0.21212
      11     F     4.60281  4.60281  0.00000 -0.20562
      12     F     4.59640  4.59640  0.00000 -0.19279

   Total alpha = 45.00000, Total beta = 45.00000, Total charge = -0.00000


*** Psi4 exiting successfully. Buy a developer a beer!
