    -----------------------------------------------------------------------
          Psi4: An Open-Source Ab Initio Electronic Structure Package
                              Psi4 1.0.54 Driver

                          Git: Rev {master} 8d4cec3 dirty

    J. M. Turney, A. C. Simmonett, R. M. Parrish, E. G. Hohenstein,
    F. A. Evangelista, J. T. Fermann, B. J. Mintz, L. A. Burns, J. J. Wilke,
    M. L. Abrams, N. J. Russ, M. L. Leininger, C. L. Janssen, E. T. Seidl,
    W. D. Allen, H. F. Schaefer, R. A. King, E. F. Valeev, C. D. Sherrill,
    and T. D. Crawford, WIREs Comput. Mol. Sci. 2, 556-565 (2012)
    (doi: 10.1002/wcms.93)

                         Additional Contributions by
    A. E. DePrince, U. Bozkaya, A. Yu. Sokolov, D. G. A. Smith, R. Di Remigio,
    R. M. Richard, J. F. Gonthier, H. R. McAlexander, M. Saitow, and
    B. P. Pritchard
    -----------------------------------------------------------------------


    Psi4 started on: Sat Sep 10 16:21:34 2016

    Process ID:  33348
    PSI4DATADIR: /export131/home/mjharvey/miniconda3/share/psi4
    Memory level set to 256.000 MB

  ==> Input File <==

--------------------------------------------------------------------------
set {
	reference rhf
	basis cc-pvtz
}


set_num_threads( 4 )
memory 2 gb

molecule MOL {
0 1

O	 -2.081319	 -0.951530	 -0.502732
N	 -1.613558	 0.006676	 0.014756
C	 -0.329345	 -0.171618	 0.743966
O	 -2.068523	 1.100482	 -0.024385
C	 0.835904	 0.041968	 -0.213982
H	 -0.346048	 -1.174374	 1.137184
H	 -0.333613	 0.555559	 1.538590
C	 2.177039	 -0.130175	 0.494460
H	 0.754456	 -0.665923	 -1.030569
H	 0.765464	 1.037260	 -0.637266
C	 3.204921	 -0.848978	 -0.372293
H	 2.029768	 -0.685368	 1.416148
H	 2.562546	 0.844359	 0.779198
H	 2.861082	 -1.840455	 -0.645138
H	 3.396087	 -0.300448	 -1.287873
H	 4.146206	 -0.956916	 0.152582

	symmetry c1
}
set optking {
	frozen_dihedral = ("
		11 8 5 9
	")
}

ee,wfn = optimize('scf', return_wfn=True)
oeprop( wfn, 'DIPOLE', 'QUADRUPOLE', 'MULLIKEN_CHARGES')
f=open( 'psi4out.xyz', 'w' )
f.write( "16  " )
f.write( str(ee) + "\n" )
f.write( MOL.save_string_xyz() )
f.close()
--------------------------------------------------------------------------

  Memory set to   2.000 GiB by Python script.
gradient() will perform analytic gradient computation.

*** tstart() called on cx1-27-4-1
*** at Sat Sep 10 16:21:35 2016


         ---------------------------------------------------------
                                   SCF
            by Justin Turney, Rob Parrish, and Andy Simmonett
                              RHF Reference
                        4 Threads,   2000 MiB Core
         ---------------------------------------------------------

  ==> Geometry <==

    Molecular point group: c1
    Full point group: C1

    Geometry (in Angstrom), charge = 0, multiplicity = 1:

       Center              X                  Y                   Z               Mass       
    ------------   -----------------  -----------------  -----------------  -----------------
           O         -2.058526724686    -0.815294191375    -0.512776696393    15.994914619560
           N         -1.590765724686     0.142911808625     0.004711303607    14.003074004780
           C         -0.306552724686    -0.035382191375     0.733921303607    12.000000000000
           O         -2.045730724686     1.236717808625    -0.034429696393    15.994914619560
           C          0.858696275314     0.178203808625    -0.224026696393    12.000000000000
           H         -0.323255724686    -1.038138191375     1.127139303607     1.007825032070
           H         -0.310820724686     0.691794808625     1.528545303607     1.007825032070
           C          2.199831275314     0.006060808625     0.484415303607    12.000000000000
           H          0.777248275314    -0.529687191375    -1.040613696393     1.007825032070
           H          0.788256275314     1.173495808625    -0.647310696393     1.007825032070
           C          3.227713275314    -0.712742191375    -0.382337696393    12.000000000000
           H          2.052560275314    -0.549132191375     1.406103303607     1.007825032070
           H          2.585338275314     0.980594808625     0.769153303607     1.007825032070
           H          2.883874275314    -1.704219191375    -0.655182696393     1.007825032070
           H          3.418879275314    -0.164212191375    -1.297917696393     1.007825032070
           H          4.168998275314    -0.820680191375     0.142537303607     1.007825032070

  Running in c1 symmetry.

  Rotational constants: A =      0.24390  B =      0.03824  C =      0.03601 [cm^-1]
  Rotational constants: A =   7311.94910  B =   1146.35397  C =   1079.41783 [MHz]
  Nuclear repulsion =  313.611248526586564

  Charge       = 0
  Multiplicity = 1
  Electrons    = 56
  Nalpha       = 28
  Nbeta        = 28

  ==> Algorithm <==

  SCF Algorithm Type is DF.
  DIIS enabled.
  MOM disabled.
  Fractional occupation disabled.
  Guess Type is SAD.
  Energy threshold   = 1.00e-08
  Density threshold  = 1.00e-08
  Integral threshold = 0.00e+00

  ==> Primary Basis <==

  Basis Set: CC-PVTZ
    Number of shells: 124
    Number of basis function: 336
    Number of Cartesian functions: 380
    Spherical Harmonics?: true
    Max angular momentum: 3

  ==> Pre-Iterations <==

   -------------------------------------------------------
    Irrep   Nso     Nmo     Nalpha   Nbeta   Ndocc  Nsocc
   -------------------------------------------------------
     A        336     336       0       0       0       0
   -------------------------------------------------------
    Total     336     336      28      28      28       0
   -------------------------------------------------------

  ==> Integral Setup <==

  ==> DFJK: Density-Fitted J/K Matrices <==

    J tasked:                  Yes
    K tasked:                  Yes
    wK tasked:                  No
    OpenMP threads:              4
    Integrals threads:           4
    Memory (MB):              1430
    Algorithm:                Core
    Integral Cache:           NONE
    Schwarz Cutoff:          1E-12
    Fitting Condition:       1E-12

   => Auxiliary Basis Set <=

  Basis Set: 
    Number of shells: 265
    Number of basis function: 823
    Number of Cartesian functions: 987
    Spherical Harmonics?: true
    Max angular momentum: 4

  Minimum eigenvalue in the overlap matrix is 4.4086269667E-04.
  Using Symmetric Orthogonalization.
  SCF Guess: Superposition of Atomic Densities via on-the-fly atomic UHF.

  ==> Iterations <==

                           Total Energy        Delta E     RMS |[F,P]|

   @DF-RHF iter   0:  -363.74665486297829   -3.63747e+02   1.49505e-02 
   @DF-RHF iter   1:  -360.64166279463177    3.10499e+00   2.08266e-03 
   @DF-RHF iter   2:  -360.80719091108119   -1.65528e-01   1.53225e-03 DIIS
   @DF-RHF iter   3:  -360.89467696141776   -8.74861e-02   2.66597e-04 DIIS
   @DF-RHF iter   4:  -360.90361902354641   -8.94206e-03   8.15522e-05 DIIS
   @DF-RHF iter   5:  -360.90481347873481   -1.19446e-03   4.00988e-05 DIIS
   @DF-RHF iter   6:  -360.90524192442854   -4.28446e-04   1.99446e-05 DIIS
   @DF-RHF iter   7:  -360.90535946519776   -1.17541e-04   1.01460e-05 DIIS
   @DF-RHF iter   8:  -360.90538007402370   -2.06088e-05   3.94718e-06 DIIS
   @DF-RHF iter   9:  -360.90538291373275   -2.83971e-06   1.12398e-06 DIIS
   @DF-RHF iter  10:  -360.90538310001864   -1.86286e-07   3.99027e-07 DIIS
   @DF-RHF iter  11:  -360.90538312478725   -2.47686e-08   1.19715e-07 DIIS
   @DF-RHF iter  12:  -360.90538312725414   -2.46689e-09   3.80755e-08 DIIS
   @DF-RHF iter  13:  -360.90538312749106   -2.36923e-10   1.35830e-08 DIIS
   @DF-RHF iter  14:  -360.90538312753461   -4.35421e-11   7.02018e-09 DIIS

  ==> Post-Iterations <==

    Orbital Energies (a.u.)
    -----------------------

    Doubly Occupied:                                                      

       1A    -20.589581     2A    -20.589431     3A    -15.835848  
       4A    -11.296702     5A    -11.249561     6A    -11.241001  
       7A    -11.226051     8A     -1.635099     9A     -1.419402  
      10A     -1.136916    11A     -1.060008    12A     -0.948644  
      13A     -0.844334    14A     -0.828976    15A     -0.758763  
      16A     -0.737609    17A     -0.728224    18A     -0.674752  
      19A     -0.621820    20A     -0.606737    21A     -0.564757  
      22A     -0.548223    23A     -0.515660    24A     -0.503840  
      25A     -0.493289    26A     -0.485713    27A     -0.469254  
      28A     -0.451864  

    Virtual:                                                              

      29A      0.115081    30A      0.129570    31A      0.154654  
      32A      0.160860    33A      0.170142    34A      0.199842  
      35A      0.213253    36A      0.217821    37A      0.226489  
      38A      0.233141    39A      0.289646    40A      0.304265  
      41A      0.318692    42A      0.347116    43A      0.376744  
      44A      0.379646    45A      0.407026    46A      0.410896  
      47A      0.428199    48A      0.444201    49A      0.462084  
      50A      0.510559    51A      0.522381    52A      0.560635  
      53A      0.564831    54A      0.571453    55A      0.594581  
      56A      0.596837    57A      0.612287    58A      0.617307  
      59A      0.623392    60A      0.628830    61A      0.642917  
      62A      0.651734    63A      0.668623    64A      0.675427  
      65A      0.678188    66A      0.685488    67A      0.721065  
      68A      0.734758    69A      0.782705    70A      0.790584  
      71A      0.806495    72A      0.812297    73A      0.836954  
      74A      0.844392    75A      0.857575    76A      0.885414  
      77A      0.892305    78A      0.937462    79A      0.949431  
      80A      0.976967    81A      0.989620    82A      1.000706  
      83A      1.006507    84A      1.048864    85A      1.070360  
      86A      1.074747    87A      1.101802    88A      1.146753  
      89A      1.171440    90A      1.178562    91A      1.185266  
      92A      1.214336    93A      1.228014    94A      1.244410  
      95A      1.264673    96A      1.268295    97A      1.285286  
      98A      1.306925    99A      1.309588   100A      1.316663  
     101A      1.323466   102A      1.362787   103A      1.382924  
     104A      1.424241   105A      1.425241   106A      1.443657  
     107A      1.456976   108A      1.465761   109A      1.475049  
     110A      1.483239   111A      1.494244   112A      1.508570  
     113A      1.530001   114A      1.561705   115A      1.570352  
     116A      1.606496   117A      1.613084   118A      1.622310  
     119A      1.646176   120A      1.674706   121A      1.697082  
     122A      1.700886   123A      1.748649   124A      1.754712  
     125A      1.776906   126A      1.805393   127A      1.815979  
     128A      1.848453   129A      1.849887   130A      1.894275  
     131A      1.929381   132A      1.943822   133A      1.964796  
     134A      1.983359   135A      2.107108   136A      2.134876  
     137A      2.136733   138A      2.378845   139A      2.399249  
     140A      2.471409   141A      2.498746   142A      2.504541  
     143A      2.551984   144A      2.591534   145A      2.608326  
     146A      2.649845   147A      2.685423   148A      2.697858  
     149A      2.706798   150A      2.746142   151A      2.762580  
     152A      2.783864   153A      2.795033   154A      2.801315  
     155A      2.831589   156A      2.847735   157A      2.909580  
     158A      2.924188   159A      2.961995   160A      2.980299  
     161A      3.011306   162A      3.018854   163A      3.028967  
     164A      3.065839   165A      3.097161   166A      3.127013  
     167A      3.143213   168A      3.159258   169A      3.185495  
     170A      3.209748   171A      3.233700   172A      3.257856  
     173A      3.266707   174A      3.282989   175A      3.319915  
     176A      3.325571   177A      3.343827   178A      3.359437  
     179A      3.363901   180A      3.375858   181A      3.386647  
     182A      3.397997   183A      3.409087   184A      3.421329  
     185A      3.444872   186A      3.472872   187A      3.489490  
     188A      3.490849   189A      3.527525   190A      3.537392  
     191A      3.542772   192A      3.578007   193A      3.609479  
     194A      3.627068   195A      3.649974   196A      3.675284  
     197A      3.708752   198A      3.715596   199A      3.758546  
     200A      3.783984   201A      3.805776   202A      3.809320  
     203A      3.816765   204A      3.850068   205A      3.876174  
     206A      3.881000   207A      3.898069   208A      3.954071  
     209A      3.956932   210A      3.968850   211A      3.995892  
     212A      4.024625   213A      4.074312   214A      4.099702  
     215A      4.114163   216A      4.124447   217A      4.128620  
     218A      4.137938   219A      4.146153   220A      4.158562  
     221A      4.173906   222A      4.191046   223A      4.205788  
     224A      4.222171   225A      4.235151   226A      4.244225  
     227A      4.279937   228A      4.296337   229A      4.323015  
     230A      4.341919   231A      4.362518   232A      4.373463  
     233A      4.399472   234A      4.404399   235A      4.416578  
     236A      4.423665   237A      4.437662   238A      4.453286  
     239A      4.471205   240A      4.480526   241A      4.503206  
     242A      4.515447   243A      4.545059   244A      4.583180  
     245A      4.602373   246A      4.613716   247A      4.618598  
     248A      4.633489   249A      4.659277   250A      4.661161  
     251A      4.682962   252A      4.711602   253A      4.723977  
     254A      4.761857   255A      4.795054   256A      4.816133  
     257A      4.836855   258A      4.933196   259A      4.937003  
     260A      4.976466   261A      4.990757   262A      5.024638  
     263A      5.056843   264A      5.097048   265A      5.106751  
     266A      5.119364   267A      5.153611   268A      5.160944  
     269A      5.188384   270A      5.204914   271A      5.229873  
     272A      5.250962   273A      5.271607   274A      5.280369  
     275A      5.293434   276A      5.371709   277A      5.403455  
     278A      5.405704   279A      5.413869   280A      5.455816  
     281A      5.483564   282A      5.505408   283A      5.515511  
     284A      5.579495   285A      5.592394   286A      5.601051  
     287A      5.611741   288A      5.614689   289A      5.641836  
     290A      5.654673   291A      5.691879   292A      5.707421  
     293A      5.729037   294A      5.738000   295A      5.767584  
     296A      5.780491   297A      5.785974   298A      5.833811  
     299A      5.858388   300A      5.887036   301A      5.897397  
     302A      5.904153   303A      5.918400   304A      6.011743  
     305A      6.087591   306A      6.118948   307A      6.171919  
     308A      6.280628   309A      6.287989   310A      6.302782  
     311A      6.312028   312A      6.333451   313A      6.430831  
     314A      6.644755   315A      6.799546   316A      6.869133  
     317A      6.881103   318A      6.920897   319A      6.998611  
     320A      7.116962   321A      7.147736   322A      7.201833  
     323A      7.403331   324A      7.435388   325A      7.437231  
     326A      7.615727   327A      7.628077   328A      7.833319  
     329A      8.092357   330A      9.587267   331A     12.933748  
     332A     13.422302   333A     13.892865   334A     13.991492  
     335A     14.338540   336A     15.323414  

    Final Occupation by Irrep:
              A 
    DOCC [    28 ]

  Energy converged.

  @DF-RHF Final Energy:  -360.90538312753461

   => Energetics <=

    Nuclear Repulsion Energy =            313.6112485265865644
    One-Electron Energy =               -1112.9091478466880289
    Two-Electron Energy =                 438.3925161925670864
    DFT Exchange-Correlation Energy =       0.0000000000000000
    Empirical Dispersion Energy =           0.0000000000000000
    PCM Polarization Energy =               0.0000000000000000
    EFP Energy =                            0.0000000000000000
    Total Energy =                       -360.9053831275343782


  Saving occupied orbitals to File 180.

*** tstop() called on cx1-27-4-1 at Sat Sep 10 16:21:44 2016
Module time:
	user time   =      30.92 seconds =       0.52 minutes
	system time =       0.79 seconds =       0.01 minutes
	total time  =          9 seconds =       0.15 minutes
Total time:
	user time   =      30.92 seconds =       0.52 minutes
	system time =       0.79 seconds =       0.01 minutes
	total time  =          9 seconds =       0.15 minutes


Properties will be evaluated at   0.000000,   0.000000,   0.000000 Bohr

Properties computed using the SCF density matrix

  Nuclear Dipole Moment: (a.u.)
     X:    15.0229      Y:    -1.8360      Z:     1.2465

  Electronic Dipole Moment: (a.u.)
     X:   -13.4332      Y:     1.6608      Z:    -0.5640

  Dipole Moment: (a.u.)
     X:     1.5897      Y:    -0.1752      Z:     0.6825     Total:     1.7389

  Dipole Moment: (Debye)
     X:     4.0407      Y:    -0.4454      Z:     1.7348     Total:     4.4198


*** tstart() called on cx1-27-4-1
*** at Sat Sep 10 16:21:44 2016


         ------------------------------------------------------------
                                   SCF GRAD                          
                          Rob Parrish, Justin Turney,                
                       Andy Simmonett, and Alex Sokolov              
         ------------------------------------------------------------

  ==> Geometry <==

    Molecular point group: c1
    Full point group: C1

    Geometry (in Angstrom), charge = 0, multiplicity = 1:

       Center              X                  Y                   Z               Mass       
    ------------   -----------------  -----------------  -----------------  -----------------
           O         -2.058526724686    -0.815294191375    -0.512776696393    15.994914619560
           N         -1.590765724686     0.142911808625     0.004711303607    14.003074004780
           C         -0.306552724686    -0.035382191375     0.733921303607    12.000000000000
           O         -2.045730724686     1.236717808625    -0.034429696393    15.994914619560
           C          0.858696275314     0.178203808625    -0.224026696393    12.000000000000
           H         -0.323255724686    -1.038138191375     1.127139303607     1.007825032070
           H         -0.310820724686     0.691794808625     1.528545303607     1.007825032070
           C          2.199831275314     0.006060808625     0.484415303607    12.000000000000
           H          0.777248275314    -0.529687191375    -1.040613696393     1.007825032070
           H          0.788256275314     1.173495808625    -0.647310696393     1.007825032070
           C          3.227713275314    -0.712742191375    -0.382337696393    12.000000000000
           H          2.052560275314    -0.549132191375     1.406103303607     1.007825032070
           H          2.585338275314     0.980594808625     0.769153303607     1.007825032070
           H          2.883874275314    -1.704219191375    -0.655182696393     1.007825032070
           H          3.418879275314    -0.164212191375    -1.297917696393     1.007825032070
           H          4.168998275314    -0.820680191375     0.142537303607     1.007825032070

  Nuclear repulsion =  313.611248526586508

  ==> Basis Set <==

  Basis Set: CC-PVTZ
    Number of shells: 124
    Number of basis function: 336
    Number of Cartesian functions: 380
    Spherical Harmonics?: true
    Max angular momentum: 3

  ==> DFJKGrad: Density-Fitted SCF Gradients <==

    Gradient:                    1
    J tasked:                  Yes
    K tasked:                  Yes
    wK tasked:                  No
    OpenMP threads:              4
    Integrals threads:           4
    Memory (MB):              1430
    Schwarz Cutoff:          0E+00
    Fitting Condition:       1E-12

   => Auxiliary Basis Set <=

  Basis Set: 
    Number of shells: 265
    Number of basis function: 823
    Number of Cartesian functions: 987
    Spherical Harmonics?: true
    Max angular momentum: 4


  -Total Gradient:
     Atom            X                  Y                   Z
    ------   -----------------  -----------------  -----------------
       1        0.000039728852     0.000219465985     0.000057551585
       2        0.000214976314    -0.000431899850    -0.000234969383
       3        0.000846938265    -0.001290220983     0.000718853343
       4        0.000073322930    -0.000098721479     0.000058237128
       5        0.003765925511    -0.001634728774     0.003290046470
       6       -0.000273405923    -0.000029103220     0.000340703868
       7       -0.000097409029    -0.000059361936    -0.000317268151
       8       -0.003801678418     0.000387228756    -0.002276266462
       9        0.001723100707    -0.000124697211    -0.001002993389
      10        0.001044520519     0.001539183470     0.001271910323
      11       -0.001895236176    -0.000615960144    -0.001062630848
      12       -0.002186801440     0.000676397286     0.000294485863
      13        0.000597602473     0.001775449763    -0.001431012898
      14        0.000230007077    -0.000128681956    -0.000142047297
      15        0.000161573994    -0.000057871213     0.000201659017
      16       -0.000443165656    -0.000126478492     0.000233740829


*** tstop() called on cx1-27-4-1 at Sat Sep 10 16:21:51 2016
Module time:
	user time   =      29.29 seconds =       0.49 minutes
	system time =       0.58 seconds =       0.01 minutes
	total time  =          7 seconds =       0.12 minutes
Total time:
	user time   =      60.30 seconds =       1.01 minutes
	system time =       1.37 seconds =       0.02 minutes
	total time  =         16 seconds =       0.27 minutes

			-----------------------------------------
			 OPTKING 2.0: for geometry optimizations 
			  - R.A. King,  Bethel University        
			-----------------------------------------

	Internal coordinates to be generated automatically.
	Detected frag 1 with atoms:  1 2 3 4 5 6 7 8 9 10 11 12 13 14 15 16
	---Fragment 1 Bond Connectivity---
	 1 : 2
	 2 : 1 3 4
	 3 : 2 5 6 7
	 4 : 2
	 5 : 3 8 9 10
	 6 : 3
	 7 : 3
	 8 : 5 11 12 13
	 9 : 5
	 10 : 5
	 11 : 8 14 15 16
	 12 : 8
	 13 : 8
	 14 : 11
	 15 : 11
	 16 : 11

	Assuming in current code that numbering for constraints corresponds to unified fragment.
	Frozen dihedral atom list: 
	    11     8     5     9
	---Fragment 1 Geometry and Gradient---
	 O          -3.8900517469       -1.5406827394       -0.9690075235
	 N          -3.0061115612        0.2700641795        0.0089030735
	 C          -0.5793006949       -0.0668626517        1.3869102669
	 O          -3.8658708113        2.3370579620       -0.0650626970
	 C           1.6227007917        0.3367563941       -0.4233491026
	 H          -0.6108647905       -1.9617968698        2.1299845974
	 H          -0.5873660461        1.3073027285        2.8885320055
	 C           4.1570786489        0.0114532684        0.9154122584
	 H           1.4687863776       -1.0009637278       -1.9664748963
	 H           1.4895884829        2.2175856964       -1.2232399391
	 C           6.0994941258       -1.3468875451       -0.7225135365
	 H           3.8787767916       -1.0377094525        2.6571501584
	 H           4.8855813012        1.8530556356        1.4534890980
	 H           5.4497325820       -3.2205075421       -1.2381158632
	 H           6.4607455117       -0.3103160694       -2.4527089892
	 H           7.8782649888       -1.5508608044        0.2693564675
	             0.0000397289        0.0002194660        0.0000575516
	             0.0002149763       -0.0004318998       -0.0002349694
	             0.0008469383       -0.0012902210        0.0007188533
	             0.0000733229       -0.0000987215        0.0000582371
	             0.0037659255       -0.0016347288        0.0032900465
	            -0.0002734059       -0.0000291032        0.0003407039
	            -0.0000974090       -0.0000593619       -0.0003172682
	            -0.0038016784        0.0003872288       -0.0022762665
	             0.0017231007       -0.0001246972       -0.0010029934
	             0.0010445205        0.0015391835        0.0012719103
	            -0.0018952362       -0.0006159601       -0.0010626308
	            -0.0021868014        0.0006763973        0.0002944859
	             0.0005976025        0.0017754498       -0.0014310129
	             0.0002300071       -0.0001286820       -0.0001420473
	             0.0001615740       -0.0000578712        0.0002016590
	            -0.0004431657       -0.0001264785        0.0002337408

	Previous optimization step data not found.  Starting new optimization.

	---Fragment 1 Intrafragment Coordinates---
	 - Coordinate -           - BOHR/RAD -       - ANG/DEG -
	 R(1,2)           =         2.239746	       1.185223
	 R(2,3)           =         2.811020	       1.487528
	 R(2,4)           =         2.239893	       1.185300
	 R(3,5)           =         2.879020	       1.523512
	 R(3,6)           =         2.035665	       1.077227
	 R(3,7)           =         2.035501	       1.077141
	 R(5,8)           =         2.884645	       1.526488
	 R(5,9)           =         2.048029	       1.083770
	 R(5,10)          =         2.048185	       1.083853
	 R(8,11)          =         2.881123	       1.524625
	 R(8,12)          =         2.052278	       1.086019
	 R(8,13)          =         2.052253	       1.086005
	 R(11,14)         =         2.049021	       1.084295
	 R(11,15)         =         2.049039	       1.084305
	 R(11,16)         =         2.046811	       1.083126
	 B(1,2,3)         =         2.046376	     117.248698
	 B(1,2,4)         =         2.189710	     125.461137
	 B(2,3,5)         =         1.912684	     109.588700
	 B(2,3,6)         =         1.851601	     106.088949
	 B(2,3,7)         =         1.851782	     106.099280
	 B(3,2,4)         =         2.046733	     117.269184
	 B(3,5,8)         =         1.943730	     111.367521
	 B(3,5,9)         =         1.901504	     108.948170
	 B(3,5,10)        =         1.901375	     108.940771
	 B(5,3,6)         =         1.951831	     111.831696
	 B(5,3,7)         =         1.952223	     111.854112
	 B(5,8,11)        =         1.962377	     112.435898
	 B(5,8,12)        =         1.909627	     109.413549
	 B(5,8,13)        =         1.909601	     109.412085
	 B(6,3,7)         =         1.938078	     111.043690
	 B(8,5,9)         =         1.919897	     110.001973
	 B(8,5,10)        =         1.919737	     109.992841
	 B(8,11,14)       =         1.939459	     111.122799
	 B(8,11,15)       =         1.939490	     111.124574
	 B(8,11,16)       =         1.936268	     110.939971
	 B(9,5,10)        =         1.876184	     107.497418
	 B(11,8,12)       =         1.910156	     109.443881
	 B(11,8,13)       =         1.910071	     109.439032
	 B(12,8,13)       =         1.859142	     106.521018
	 B(14,11,15)      =         1.881792	     107.818728
	 B(14,11,16)      =         1.882203	     107.842263
	 B(15,11,16)      =         1.882190	     107.841523
	 D(1,2,3,5)       =         1.555463	      89.121474
	 D(1,2,3,6)       =        -0.554542	     -31.772920
	 D(1,2,3,7)       =        -2.617143	    -149.951272
	 D(2,3,5,8)       =         3.140394	     179.931306
	 D(2,3,5,9)       =        -1.022024	     -58.557665
	 D(2,3,5,10)      =         1.019912	      58.436656
	 D(3,5,8,11)      =         2.459095	     140.895770
	 D(3,5,8,12)      =         0.332796	      19.067813
	 D(3,5,8,13)      =        -1.697917	     -97.283478
	 D(4,2,3,5)       =        -1.558655	     -89.304365
	 D(4,2,3,6)       =         2.614525	     149.801240
	 D(4,2,3,7)       =         0.551924	      31.622889
	 D(5,8,11,14)     =        -1.048935	     -60.099550
	 D(5,8,11,15)     =         1.046548	      59.962803
	 D(5,8,11,16)     =         3.140401	     179.931749
	 D(6,3,5,8)       =        -1.094627	     -62.717492
	 D(6,3,5,9)       =         1.026141	      58.793536
	 D(6,3,5,10)      =         3.068077	     175.787857
	 D(7,3,5,8)       =         1.091768	      62.553692
	 D(7,3,5,9)       =        -3.070650	    -175.935280
	 D(7,3,5,10)      =        -1.028714	     -58.940959
	*D(9,5,8,11)      =         0.349066	      19.999998
	 D(9,5,8,12)      =        -1.777233	    -101.827959
	 D(9,5,8,13)      =         2.475239	     141.820750
	 D(10,5,8,11)     =        -1.714331	     -98.223928
	 D(10,5,8,12)     =         2.442555	     139.948115
	 D(10,5,8,13)     =         0.411842	      23.596825
	 D(12,8,11,14)    =         1.077063	      61.711165
	 D(12,8,11,15)    =        -3.110639	    -178.226482
	 D(12,8,11,16)    =        -1.016786	     -58.257535
	 D(13,8,11,14)    =         3.108344	     178.095017
	 D(13,8,11,15)    =        -1.079358	     -61.842631
	 D(13,8,11,16)    =         1.014496	      58.126316

	Current energy   :      -360.9053831275

	Generating empirical Hessian (Schlegel '84) for each fragment.
	Taking RFO optimization step.
	Going to follow RFO solution 1.
	Using RFO vector 1.
	Norm of target step-size    0.23272
	Projected energy change by RFO approximation:        -0.0021422572

	Back-transformation to cartesian coordinates...
	Successfully converged to displaced geometry.

	Back-transformation to cartesian coordinates to adjust frozen coordinates...
	Successfully converged to displaced geometry.

	--- Internal Coordinate Step in ANG or DEG, aJ/ANG or AJ/DEG ---
	 ---------------------------------------------------------------------------
	   Coordinate                Previous        Force       Change         New 
	   ----------                --------       ------       ------       ------
	    1 R(1,2)          =      1.185223     0.001798     0.000102     1.185325
	    2 R(2,3)          =      1.487528     0.002159     0.000410     1.487938
	    3 R(2,4)          =      1.185300     0.000998     0.000057     1.185357
	    4 R(3,5)          =      1.523512    -0.000113    -0.000024     1.523488
	    5 R(3,6)          =      1.077227    -0.001283    -0.000226     1.077001
	    6 R(3,7)          =      1.077141     0.002255     0.000398     1.077538
	    7 R(5,8)          =      1.526488     0.070878     0.015262     1.541750
	    8 R(5,9)          =      1.083770    -0.005830    -0.001051     1.082719
	    9 R(5,10)         =      1.083853    -0.006993    -0.001261     1.082592
	   10 R(8,11)         =      1.524625     0.003602     0.000771     1.525396
	   11 R(8,12)         =      1.086019    -0.001653    -0.000300     1.085718
	   12 R(8,13)         =      1.086005    -0.011783    -0.002140     1.083865
	   13 R(11,14)        =      1.084295    -0.000663    -0.000120     1.084176
	   14 R(11,15)        =      1.084305     0.001409     0.000255     1.084559
	   15 R(11,16)        =      1.083126     0.002136     0.000384     1.083510
	   16 B(1,2,3)        =    117.248698    -0.000011    -0.035272   117.213426
	   17 B(1,2,4)        =    125.461137     0.000001     0.006763   125.467900
	   18 B(2,3,5)        =    109.588700     0.000041     0.177373   109.766074
	   19 B(2,3,6)        =    106.088949     0.000006     0.090457   106.179406
	   20 B(2,3,7)        =    106.099280    -0.000017    -0.008612   106.090668
	   21 B(3,2,4)        =    117.269184     0.000010     0.024023   117.293207
	   22 B(3,5,8)        =    111.367521     0.000056     0.564287   111.931807
	   23 B(3,5,9)        =    108.948170    -0.000017     0.700265   109.648435
	   24 B(3,5,10)       =    108.940771    -0.000079    -0.689204   108.251567
	   25 B(5,3,6)        =    111.831696    -0.000036    -0.238769   111.592927
	   26 B(5,3,7)        =    111.854112    -0.000003    -0.016876   111.837236
	   27 B(5,8,11)       =    112.435898     0.000145     0.684787   113.120685
	   28 B(5,8,12)       =    109.413549     0.000072     0.442056   109.855605
	   29 B(5,8,13)       =    109.412085    -0.000038     0.434393   109.846477
	   30 B(6,3,7)        =    111.043690     0.000011     0.019820   111.063510
	   31 B(8,5,9)        =    110.001973     0.000040     0.737353   110.739326
	   32 B(8,5,10)       =    109.992841     0.000043     0.029820   110.022662
	   33 B(8,11,14)      =    111.122799    -0.000035    -0.187700   110.935099
	   34 B(8,11,15)      =    111.124574    -0.000014    -0.164306   110.960268
	   35 B(8,11,16)      =    110.939971     0.000044     0.233098   111.173069
	   36 B(9,5,10)       =    107.497418    -0.000049    -1.450211   106.047207
	   37 B(11,8,12)      =    109.443881    -0.000143    -1.471563   107.972318
	   38 B(11,8,13)      =    109.439032    -0.000027     0.491053   109.930085
	   39 B(12,8,13)      =    106.521018    -0.000017    -0.677621   105.843398
	   40 B(14,11,15)     =    107.818728     0.000012    -0.012598   107.806130
	   41 B(14,11,16)     =    107.842263     0.000007     0.134604   107.976867
	   42 B(15,11,16)     =    107.841523    -0.000012     0.003265   107.844788
	   43 D(1,2,3,5)      =     89.121474    -0.000002     0.139602    89.261076
	   44 D(1,2,3,6)      =    -31.772920     0.000002     0.274307   -31.498614
	   45 D(1,2,3,7)      =   -149.951272     0.000000     0.212070  -149.739201
	   46 D(2,3,5,8)      =    179.931306    -0.000006    -3.321608   176.609698
	   47 D(2,3,5,9)      =    -58.557665     0.000012    -1.527070   -60.084735
	   48 D(2,3,5,10)     =     58.436656    -0.000014    -3.255926    55.180731
	   49 D(3,5,8,11)     =    140.895770     0.000010     1.791849   142.687619
	   50 D(3,5,8,12)     =     19.067813     0.000018     2.896304    21.964116
	   51 D(3,5,8,13)     =    -97.283478     0.000018     3.211630   -94.071848
	   52 D(4,2,3,5)      =    -89.304365    -0.000002     0.299567   -89.004798
	   53 D(4,2,3,6)      =    149.801240     0.000002     0.434271   150.235512
	   54 D(4,2,3,7)      =     31.622889     0.000001     0.372035    31.994924
	   55 D(5,8,11,14)    =    -60.099550    -0.000004    -1.741881   -61.841430
	   56 D(5,8,11,15)    =     59.962803    -0.000008    -1.991950    57.970853
	   57 D(5,8,11,16)    =    179.931749    -0.000007    -1.942011   177.989738
	   58 D(6,3,5,8)      =    -62.717492    -0.000003    -3.242753   -65.960245
	   59 D(6,3,5,9)      =     58.793536     0.000014    -1.448215    57.345321
	   60 D(6,3,5,10)     =    175.787857    -0.000012    -3.177070   172.610787
	   61 D(7,3,5,8)      =     62.553692    -0.000007    -3.413655    59.140037
	   62 D(7,3,5,9)      =   -175.935280     0.000011    -1.619117  -177.554397
	   63 D(7,3,5,10)     =    -58.940959    -0.000015    -3.347973   -62.288931
	   64 *D(9,5,8,11)    =     19.999998    -0.000000    -0.000000    19.999998
	   65 D(9,5,8,12)     =   -101.827959     0.000008     1.104454  -100.723505
	   66 D(9,5,8,13)     =    141.820750     0.000008     1.419780   143.240530
	   67 D(10,5,8,11)    =    -98.223928     0.000002     1.314212   -96.909716
	   68 D(10,5,8,12)    =    139.948115     0.000010     2.418666   142.366782
	   69 D(10,5,8,13)    =     23.596825     0.000010     2.733992    26.330817
	   70 D(12,8,11,14)   =     61.711165     0.000016    -1.765812    59.945354
	   71 D(12,8,11,15)   =   -178.226482     0.000012    -2.015881  -180.242363
	   72 D(12,8,11,16)   =    -58.257535     0.000013    -1.965942   -60.223478
	   73 D(13,8,11,14)   =    178.095017    -0.000011    -3.130790   174.964227
	   74 D(13,8,11,15)   =    -61.842631    -0.000015    -3.380859   -65.223489
	   75 D(13,8,11,16)   =     58.126316    -0.000014    -3.330920    54.795396
	 ---------------------------------------------------------------------------
	Successfully symmetrized geometry.

  ==> Convergence Check <==

  Measures of convergence in internal coordinates in au.
  Criteria marked as inactive (o), active & met (*), and active & unmet ( ).
  --------------------------------------------------------------------------------------------- ~
   Step     Total Energy     Delta E     MAX Force     RMS Force      MAX Disp      RMS Disp    ~
  --------------------------------------------------------------------------------------------- ~
    Convergence Criteria    1.00e-06 *    3.00e-04 *             o    1.20e-03 *             o  ~
  --------------------------------------------------------------------------------------------- ~
      1    -360.90538313   -3.61e+02      8.60e-03      1.16e-03 o    5.96e-02      2.69e-02 o  ~
  ---------------------------------------------------------------------------------------------

	Writing optimization data to binary file.
	Structure for next step:
	Cartesian Geometry (in Angstrom)
	    O    -2.1158500996  -0.7344834085  -0.4973936360
	    N    -1.6042177425   0.2010110625   0.0203691235
	    C    -0.3196870470  -0.0340884936   0.7335793986
	    O    -2.0137912968   1.3129623731  -0.0093876239
	    C     0.8454254724   0.1409651098  -0.2322799940
	    H    -0.3689826551  -1.0392794984   1.1171057557
	    H    -0.2872436044   0.6851457243   1.5352891065
	    C     2.2071777690  -0.0093849037   0.4748395599
	    H     0.7547537832  -0.5691024144  -1.0445995108
	    H     0.7679764579   1.1223835365  -0.6826402574
	    C     3.2509268672  -0.7206457334  -0.3804542233
	    H     2.0851560579  -0.5748261857   1.3936275336
	    H     2.5761307495   0.9649207239   0.7737806646
	    H     2.9359926902  -1.7311264937  -0.6153621633
	    H     3.4081674707  -0.1961700798  -1.3166535115
	    H     4.2038085325  -0.7779893810   0.1321106355
			--------------------------
			 OPTKING Finished Execution 
			--------------------------

    Structure for next step:
    Molecular point group: c1
    Full point group: C1

    Geometry (in Angstrom), charge = 0, multiplicity = 1:

    O           -2.110905840919    -0.758323546747    -0.503509270094
    N           -1.599273483833     0.177170924283     0.014253489473
    C           -0.314742788310    -0.057928631895     0.727463764555
    O           -2.008847038076     1.289122234883    -0.015503257900
    C            0.850369731118     0.117124971524    -0.238395628027
    H           -0.364038396392    -1.063119636662     1.110990121650
    H           -0.282299345734     0.661305586027     1.529173472442
    C            2.212122027645    -0.033225041937     0.468723925814
    H            0.759698041865    -0.592942552616    -1.050715144853
    H            0.772920716590     1.098543398242    -0.688755891451
    C            3.255871125911    -0.744485871618    -0.386569857308
    H            2.090100316558    -0.598666324007     1.387511899528
    H            2.581075008141     0.941080585624     0.767665030584
    H            2.940936948885    -1.754966631997    -0.621477797381
    H            3.413111729400    -0.220010218075    -1.322769145578
    H            4.208752791177    -0.801829519239     0.125995001502

gradient() will perform analytic gradient computation.

*** tstart() called on cx1-27-4-1
*** at Sat Sep 10 16:21:52 2016


         ---------------------------------------------------------
                                   SCF
            by Justin Turney, Rob Parrish, and Andy Simmonett
                              RHF Reference
                        4 Threads,   2000 MiB Core
         ---------------------------------------------------------

  ==> Geometry <==

    Molecular point group: c1
    Full point group: C1

    Geometry (in Angstrom), charge = 0, multiplicity = 1:

       Center              X                  Y                   Z               Mass       
    ------------   -----------------  -----------------  -----------------  -----------------
           O         -2.110905840919    -0.758323546747    -0.503509270094    15.994914619560
           N         -1.599273483833     0.177170924283     0.014253489473    14.003074004780
           C         -0.314742788310    -0.057928631895     0.727463764555    12.000000000000
           O         -2.008847038076     1.289122234883    -0.015503257900    15.994914619560
           C          0.850369731118     0.117124971524    -0.238395628027    12.000000000000
           H         -0.364038396392    -1.063119636662     1.110990121650     1.007825032070
           H         -0.282299345734     0.661305586027     1.529173472442     1.007825032070
           C          2.212122027645    -0.033225041937     0.468723925814    12.000000000000
           H          0.759698041865    -0.592942552616    -1.050715144853     1.007825032070
           H          0.772920716590     1.098543398242    -0.688755891451     1.007825032070
           C          3.255871125911    -0.744485871618    -0.386569857308    12.000000000000
           H          2.090100316558    -0.598666324007     1.387511899528     1.007825032070
           H          2.581075008141     0.941080585624     0.767665030584     1.007825032070
           H          2.940936948885    -1.754966631997    -0.621477797381     1.007825032070
           H          3.413111729400    -0.220010218075    -1.322769145578     1.007825032070
           H          4.208752791177    -0.801829519239     0.125995001502     1.007825032070

  Running in c1 symmetry.

  Rotational constants: A =      0.24673  B =      0.03767  C =      0.03556 [cm^-1]
  Rotational constants: A =   7396.81068  B =   1129.27149  C =   1066.02000 [MHz]
  Nuclear repulsion =  312.807910820005645

  Charge       = 0
  Multiplicity = 1
  Electrons    = 56
  Nalpha       = 28
  Nbeta        = 28

  ==> Algorithm <==

  SCF Algorithm Type is DF.
  DIIS enabled.
  MOM disabled.
  Fractional occupation disabled.
  Guess Type is READ.
  Energy threshold   = 1.00e-08
  Density threshold  = 1.00e-08
  Integral threshold = 0.00e+00

  ==> Primary Basis <==

  Basis Set: CC-PVTZ
    Number of shells: 124
    Number of basis function: 336
    Number of Cartesian functions: 380
    Spherical Harmonics?: true
    Max angular momentum: 3

  ==> Pre-Iterations <==

   -------------------------------------------------------
    Irrep   Nso     Nmo     Nalpha   Nbeta   Ndocc  Nsocc
   -------------------------------------------------------
     A        336     336       0       0       0       0
   -------------------------------------------------------
    Total     336     336      28      28      28       0
   -------------------------------------------------------

  ==> Integral Setup <==

  ==> DFJK: Density-Fitted J/K Matrices <==

    J tasked:                  Yes
    K tasked:                  Yes
    wK tasked:                  No
    OpenMP threads:              4
    Integrals threads:           4
    Memory (MB):              1430
    Algorithm:                Core
    Integral Cache:           NONE
    Schwarz Cutoff:          1E-12
    Fitting Condition:       1E-12

   => Auxiliary Basis Set <=

  Basis Set: 
    Number of shells: 265
    Number of basis function: 823
    Number of Cartesian functions: 987
    Spherical Harmonics?: true
    Max angular momentum: 4

  Minimum eigenvalue in the overlap matrix is 4.5541994739E-04.
  Using Symmetric Orthogonalization.
  SCF Guess: Reading in previously saved MOs, projecting if necessary.

  Using orbitals from previous SCF, no projection.
  Recomputing DOCC and SOCC from number of alpha and beta electrons from previous calculation.
              A 
    DOCC [    28 ]

  ==> Iterations <==

                           Total Energy        Delta E     RMS |[F,P]|

   @DF-RHF iter   0:  -360.89593637578594   -3.60896e+02   4.56732e-04 
   @DF-RHF iter   1:  -360.90530027814850   -9.36390e-03   5.91152e-05 
   @DF-RHF iter   2:  -360.90560703360200   -3.06755e-04   1.96243e-05 DIIS
   @DF-RHF iter   3:  -360.90565080689885   -4.37733e-05   7.18162e-06 DIIS
   @DF-RHF iter   4:  -360.90565413655747   -3.32966e-06   2.78994e-06 DIIS
   @DF-RHF iter   5:  -360.90565497722423   -8.40667e-07   1.26363e-06 DIIS
   @DF-RHF iter   6:  -360.90565521765689   -2.40433e-07   4.89668e-07 DIIS
   @DF-RHF iter   7:  -360.90565527276590   -5.51090e-08   2.82605e-07 DIIS
   @DF-RHF iter   8:  -360.90565529076491   -1.79990e-08   1.30274e-07 DIIS
   @DF-RHF iter   9:  -360.90565529558728   -4.82237e-09   3.96199e-08 DIIS
   @DF-RHF iter  10:  -360.90565529598268   -3.95403e-10   1.07105e-08 DIIS
   @DF-RHF iter  11:  -360.90565529600292   -2.02363e-11   3.48680e-09 DIIS

  ==> Post-Iterations <==

    Orbital Energies (a.u.)
    -----------------------

    Doubly Occupied:                                                      

       1A    -20.589894     2A    -20.589734     3A    -15.836257  
       4A    -11.296961     5A    -11.250862     6A    -11.242334  
       7A    -11.226254     8A     -1.635263     9A     -1.419616  
      10A     -1.135146    11A     -1.058559    12A     -0.948714  
      13A     -0.844612    14A     -0.829604    15A     -0.759022  
      16A     -0.737651    17A     -0.728201    18A     -0.672327  
      19A     -0.621492    20A     -0.607052    21A     -0.564073  
      22A     -0.546469    23A     -0.516561    24A     -0.503933  
      25A     -0.492992    26A     -0.485896    27A     -0.469606  
      28A     -0.452059  

    Virtual:                                                              

      29A      0.114848    30A      0.129229    31A      0.154387  
      32A      0.161798    33A      0.169560    34A      0.199742  
      35A      0.214709    36A      0.216403    37A      0.226038  
      38A      0.232996    39A      0.288905    40A      0.303131  
      41A      0.317260    42A      0.347011    43A      0.377748  
      44A      0.379176    45A      0.407996    46A      0.413558  
      47A      0.425924    48A      0.443777    49A      0.461506  
      50A      0.510013    51A      0.520144    52A      0.562896  
      53A      0.564791    54A      0.572192    55A      0.595240  
      56A      0.597363    57A      0.611680    58A      0.615831  
      59A      0.625204    60A      0.628974    61A      0.643457  
      62A      0.650189    63A      0.667961    64A      0.673652  
      65A      0.676442    66A      0.684729    67A      0.721132  
      68A      0.732108    69A      0.781723    70A      0.791086  
      71A      0.805606    72A      0.810335    73A      0.831860  
      74A      0.842971    75A      0.856021    76A      0.887221  
      77A      0.889864    78A      0.938898    79A      0.949882  
      80A      0.977796    81A      0.990195    82A      0.998626  
      83A      1.002033    84A      1.044718    85A      1.065640  
      86A      1.074934    87A      1.100704    88A      1.144657  
      89A      1.164054    90A      1.177824    91A      1.183404  
      92A      1.212179    93A      1.230379    94A      1.247373  
      95A      1.264437    96A      1.268876    97A      1.285168  
      98A      1.310659    99A      1.311051   100A      1.314222  
     101A      1.330210   102A      1.360407   103A      1.380445  
     104A      1.417571   105A      1.423613   106A      1.439087  
     107A      1.456325   108A      1.467342   109A      1.475482  
     110A      1.484531   111A      1.500303   112A      1.511782  
     113A      1.526099   114A      1.556861   115A      1.566855  
     116A      1.606720   117A      1.610516   118A      1.621589  
     119A      1.645252   120A      1.675634   121A      1.693574  
     122A      1.702139   123A      1.746004   124A      1.757366  
     125A      1.783785   126A      1.808161   127A      1.817106  
     128A      1.842659   129A      1.850163   130A      1.894673  
     131A      1.927636   132A      1.943105   133A      1.971025  
     134A      1.983067   135A      2.104962   136A      2.135222  
     137A      2.136260   138A      2.378894   139A      2.399203  
     140A      2.471260   141A      2.501360   142A      2.501582  
     143A      2.549519   144A      2.591375   145A      2.606225  
     146A      2.645566   147A      2.685336   148A      2.691896  
     149A      2.711199   150A      2.742547   151A      2.759526  
     152A      2.779953   153A      2.794200   154A      2.795367  
     155A      2.818913   156A      2.844060   157A      2.905869  
     158A      2.924655   159A      2.959935   160A      2.982992  
     161A      3.009184   162A      3.014217   163A      3.025895  
     164A      3.066096   165A      3.095087   166A      3.127192  
     167A      3.142921   168A      3.157926   169A      3.186031  
     170A      3.204988   171A      3.231155   172A      3.253607  
     173A      3.274145   174A      3.279646   175A      3.317984  
     176A      3.323362   177A      3.337022   178A      3.355169  
     179A      3.363396   180A      3.375657   181A      3.384762  
     182A      3.394914   183A      3.407274   184A      3.427596  
     185A      3.448175   186A      3.474439   187A      3.489456  
     188A      3.492817   189A      3.532344   190A      3.534539  
     191A      3.543883   192A      3.577548   193A      3.604799  
     194A      3.628043   195A      3.647292   196A      3.672614  
     197A      3.702960   198A      3.711265   199A      3.753349  
     200A      3.779999   201A      3.798676   202A      3.802756  
     203A      3.815921   204A      3.847557   205A      3.870238  
     206A      3.879569   207A      3.898646   208A      3.945328  
     209A      3.951823   210A      3.960155   211A      3.995365  
     212A      4.019232   213A      4.069747   214A      4.090006  
     215A      4.112239   216A      4.118602   217A      4.128506  
     218A      4.138382   219A      4.144904   220A      4.158646  
     221A      4.175164   222A      4.185869   223A      4.202797  
     224A      4.216726   225A      4.231330   226A      4.253834  
     227A      4.287430   228A      4.296086   229A      4.321142  
     230A      4.341860   231A      4.358451   232A      4.375464  
     233A      4.397947   234A      4.400464   235A      4.415523  
     236A      4.421969   237A      4.432153   238A      4.456024  
     239A      4.473142   240A      4.486805   241A      4.504489  
     242A      4.510799   243A      4.541786   244A      4.574877  
     245A      4.595748   246A      4.607145   247A      4.614917  
     248A      4.629910   249A      4.651004   250A      4.664757  
     251A      4.677914   252A      4.705185   253A      4.728217  
     254A      4.759482   255A      4.796249   256A      4.818067  
     257A      4.835387   258A      4.932885   259A      4.936128  
     260A      4.971064   261A      4.988998   262A      5.021145  
     263A      5.047684   264A      5.091936   265A      5.102738  
     266A      5.119742   267A      5.151318   268A      5.155514  
     269A      5.190480   270A      5.203874   271A      5.229163  
     272A      5.246424   273A      5.264331   274A      5.272684  
     275A      5.293894   276A      5.364615   277A      5.398788  
     278A      5.409001   279A      5.409350   280A      5.457616  
     281A      5.483394   282A      5.494264   283A      5.511775  
     284A      5.571248   285A      5.588003   286A      5.599635  
     287A      5.609125   288A      5.614705   289A      5.638064  
     290A      5.649076   291A      5.699046   292A      5.707391  
     293A      5.725899   294A      5.738250   295A      5.771059  
     296A      5.779053   297A      5.790591   298A      5.829636  
     299A      5.856315   300A      5.889268   301A      5.893819  
     302A      5.903755   303A      5.920275   304A      6.011462  
     305A      6.067851   306A      6.116876   307A      6.170993  
     308A      6.278810   309A      6.286658   310A      6.301442  
     311A      6.307638   312A      6.337123   313A      6.439909  
     314A      6.643941   315A      6.798944   316A      6.867947  
     317A      6.880465   318A      6.920302   319A      6.997742  
     320A      7.116030   321A      7.146549   322A      7.201441  
     323A      7.402588   324A      7.434447   325A      7.436671  
     326A      7.615607   327A      7.627126   328A      7.832830  
     329A      8.091850   330A      9.581541   331A     12.944663  
     332A     13.364285   333A     13.875514   334A     13.928585  
     335A     14.322988   336A     15.320841  

    Final Occupation by Irrep:
              A 
    DOCC [    28 ]

  Energy converged.

  @DF-RHF Final Energy:  -360.90565529600292

   => Energetics <=

    Nuclear Repulsion Energy =            312.8079108200056453
    One-Electron Energy =               -1111.3048409445691505
    Two-Electron Energy =                 437.5912748285602447
    DFT Exchange-Correlation Energy =       0.0000000000000000
    Empirical Dispersion Energy =           0.0000000000000000
    PCM Polarization Energy =               0.0000000000000000
    EFP Energy =                            0.0000000000000000
    Total Energy =                       -360.9056552960032604


  Saving occupied orbitals to File 180.

*** tstop() called on cx1-27-4-1 at Sat Sep 10 16:22:00 2016
Module time:
	user time   =      24.86 seconds =       0.41 minutes
	system time =       0.55 seconds =       0.01 minutes
	total time  =          8 seconds =       0.13 minutes
Total time:
	user time   =      87.10 seconds =       1.45 minutes
	system time =       2.00 seconds =       0.03 minutes
	total time  =         25 seconds =       0.42 minutes


Properties will be evaluated at   0.000000,   0.000000,   0.000000 Bohr

Properties computed using the SCF density matrix

  Nuclear Dipole Moment: (a.u.)
     X:    15.0971      Y:    -2.1828      Z:     1.1577

  Electronic Dipole Moment: (a.u.)
     X:   -13.5082      Y:     1.9443      Z:    -0.4913

  Dipole Moment: (a.u.)
     X:     1.5889      Y:    -0.2385      Z:     0.6664     Total:     1.7394

  Dipole Moment: (Debye)
     X:     4.0385      Y:    -0.6062      Z:     1.6937     Total:     4.4211


*** tstart() called on cx1-27-4-1
*** at Sat Sep 10 16:22:00 2016


         ------------------------------------------------------------
                                   SCF GRAD                          
                          Rob Parrish, Justin Turney,                
                       Andy Simmonett, and Alex Sokolov              
         ------------------------------------------------------------

  ==> Geometry <==

    Molecular point group: c1
    Full point group: C1

    Geometry (in Angstrom), charge = 0, multiplicity = 1:

       Center              X                  Y                   Z               Mass       
    ------------   -----------------  -----------------  -----------------  -----------------
           O         -2.110905840919    -0.758323546747    -0.503509270094    15.994914619560
           N         -1.599273483833     0.177170924283     0.014253489473    14.003074004780
           C         -0.314742788310    -0.057928631895     0.727463764555    12.000000000000
           O         -2.008847038076     1.289122234883    -0.015503257900    15.994914619560
           C          0.850369731118     0.117124971524    -0.238395628027    12.000000000000
           H         -0.364038396392    -1.063119636662     1.110990121650     1.007825032070
           H         -0.282299345734     0.661305586027     1.529173472442     1.007825032070
           C          2.212122027645    -0.033225041937     0.468723925814    12.000000000000
           H          0.759698041865    -0.592942552616    -1.050715144853     1.007825032070
           H          0.772920716590     1.098543398242    -0.688755891451     1.007825032070
           C          3.255871125911    -0.744485871618    -0.386569857308    12.000000000000
           H          2.090100316558    -0.598666324007     1.387511899528     1.007825032070
           H          2.581075008141     0.941080585624     0.767665030584     1.007825032070
           H          2.940936948885    -1.754966631997    -0.621477797381     1.007825032070
           H          3.413111729400    -0.220010218075    -1.322769145578     1.007825032070
           H          4.208752791177    -0.801829519239     0.125995001502     1.007825032070

  Nuclear repulsion =  312.807910820005645

  ==> Basis Set <==

  Basis Set: CC-PVTZ
    Number of shells: 124
    Number of basis function: 336
    Number of Cartesian functions: 380
    Spherical Harmonics?: true
    Max angular momentum: 3

  ==> DFJKGrad: Density-Fitted SCF Gradients <==

    Gradient:                    1
    J tasked:                  Yes
    K tasked:                  Yes
    wK tasked:                  No
    OpenMP threads:              4
    Integrals threads:           4
    Memory (MB):              1430
    Schwarz Cutoff:          0E+00
    Fitting Condition:       1E-12

   => Auxiliary Basis Set <=

  Basis Set: 
    Number of shells: 265
    Number of basis function: 823
    Number of Cartesian functions: 987
    Spherical Harmonics?: true
    Max angular momentum: 4


  -Total Gradient:
     Atom            X                  Y                   Z
    ------   -----------------  -----------------  -----------------
       1        0.000143830821    -0.000006123001    -0.000212358466
       2       -0.000623196396     0.000034188084     0.000806162317
       3       -0.000916370772     0.000535767846    -0.000503473418
       4        0.000019281043     0.000149045466    -0.000289033089
       5       -0.002581702494    -0.004207389935     0.002104631848
       6        0.000337338799    -0.000009697992    -0.000296958386
       7       -0.000140105652    -0.000003824022     0.000134412721
       8        0.001863685250     0.004075492142    -0.001893826193
       9        0.000912286098     0.002853196558    -0.002413518663
      10       -0.000868363382    -0.000641751397     0.000335243952
      11        0.000088370021    -0.002748929779     0.002041265415
      12        0.001043596026     0.000256403570    -0.000357425968
      13        0.000830292903    -0.000284208245     0.000374061549
      14        0.000074350155    -0.000114477124     0.000011798189
      15       -0.000534958891     0.000311828743     0.000332806223
      16        0.000351666469    -0.000199520913    -0.000173788032


*** tstop() called on cx1-27-4-1 at Sat Sep 10 16:22:08 2016
Module time:
	user time   =      28.92 seconds =       0.48 minutes
	system time =       0.59 seconds =       0.01 minutes
	total time  =          8 seconds =       0.13 minutes
Total time:
	user time   =     116.15 seconds =       1.94 minutes
	system time =       2.59 seconds =       0.04 minutes
	total time  =         33 seconds =       0.55 minutes

			-----------------------------------------
			 OPTKING 2.0: for geometry optimizations 
			  - R.A. King,  Bethel University        
			-----------------------------------------

	Previous internal coordinate definitions found.
	---Fragment 1 Geometry and Gradient---
	 O          -3.9890339316       -1.4330238235       -0.9514946258
	 N          -3.0221888960        0.3348045256        0.0269351915
	 C          -0.5947776722       -0.1094692495        1.3747072866
	 O          -3.7961707448        2.4360879757       -0.0292969116
	 C           1.6069659035        0.2213341195       -0.4505024482
	 H          -0.6879328710       -2.0090049598        2.0994670663
	 H          -0.5334684509        1.2496864477        2.8897190726
	 C           4.1803048048       -0.0627862300        0.8857598517
	 H           1.4356212428       -1.1204990370       -1.9855638674
	 H           1.4606084768        2.0759461678       -1.3015600073
	 C           6.1527047519       -1.4068744072       -0.7305111615
	 H           3.9497171886       -1.1313153974        2.6220174962
	 H           4.8775248938        1.7783845758        1.4506766696
	 H           5.5575654075       -3.3164063068       -1.1744228347
	 H           6.4498464295       -0.4157590586       -2.4996714222
	 H           7.9533901363       -1.5152381966        0.2380960470
	             0.0001438308       -0.0000061230       -0.0002123585
	            -0.0006231964        0.0000341881        0.0008061623
	            -0.0009163708        0.0005357678       -0.0005034734
	             0.0000192810        0.0001490455       -0.0002890331
	            -0.0025817025       -0.0042073899        0.0021046318
	             0.0003373388       -0.0000096980       -0.0002969584
	            -0.0001401057       -0.0000038240        0.0001344127
	             0.0018636853        0.0040754921       -0.0018938262
	             0.0009122861        0.0028531966       -0.0024135187
	            -0.0008683634       -0.0006417514        0.0003352440
	             0.0000883700       -0.0027489298        0.0020412654
	             0.0010435960        0.0002564036       -0.0003574260
	             0.0008302929       -0.0002842082        0.0003740615
	             0.0000743502       -0.0001144771        0.0000117982
	            -0.0005349589        0.0003118287        0.0003328062
	             0.0003516665       -0.0001995209       -0.0001737880

	---Fragment 1 Intrafragment Coordinates---
	 - Coordinate -           - BOHR/RAD -       - ANG/DEG -
	 R(1,2)           =         2.239940	       1.185325
	 R(2,3)           =         2.811796	       1.487938
	 R(2,4)           =         2.240000	       1.185357
	 R(3,5)           =         2.878975	       1.523488
	 R(3,6)           =         2.035237	       1.077001
	 R(3,7)           =         2.036252	       1.077538
	 R(5,8)           =         2.913485	       1.541750
	 R(5,9)           =         2.046042	       1.082719
	 R(5,10)          =         2.045802	       1.082592
	 R(8,11)          =         2.882580	       1.525396
	 R(8,12)          =         2.051710	       1.085718
	 R(8,13)          =         2.048208	       1.083865
	 R(11,14)         =         2.048795	       1.084176
	 R(11,15)         =         2.049520	       1.084559
	 R(11,16)         =         2.047538	       1.083510
	 B(1,2,3)         =         2.045760	     117.213426
	 B(1,2,4)         =         2.189828	     125.467900
	 B(2,3,5)         =         1.915779	     109.766074
	 B(2,3,6)         =         1.853180	     106.179406
	 B(2,3,7)         =         1.851631	     106.090668
	 B(3,2,4)         =         2.047153	     117.293207
	 B(3,5,8)         =         1.953579	     111.931807
	 B(3,5,9)         =         1.913726	     109.648435
	 B(3,5,10)        =         1.889346	     108.251567
	 B(5,3,6)         =         1.947664	     111.592927
	 B(5,3,7)         =         1.951928	     111.837236
	 B(5,8,11)        =         1.974328	     113.120685
	 B(5,8,12)        =         1.917342	     109.855605
	 B(5,8,13)        =         1.917183	     109.846477
	 B(6,3,7)         =         1.938424	     111.063510
	 B(8,5,9)         =         1.932766	     110.739326
	 B(8,5,10)        =         1.920258	     110.022662
	 B(8,11,14)       =         1.936183	     110.935099
	 B(8,11,15)       =         1.936622	     110.960268
	 B(8,11,16)       =         1.940336	     111.173069
	 B(9,5,10)        =         1.850873	     106.047207
	 B(11,8,12)       =         1.884472	     107.972318
	 B(11,8,13)       =         1.918642	     109.930085
	 B(12,8,13)       =         1.847316	     105.843398
	 B(14,11,15)      =         1.881572	     107.806130
	 B(14,11,16)      =         1.884552	     107.976867
	 B(15,11,16)      =         1.882247	     107.844788
	 D(1,2,3,5)       =         1.557900	      89.261076
	 D(1,2,3,6)       =        -0.549755	     -31.498614
	 D(1,2,3,7)       =        -2.613442	    -149.739201
	 D(2,3,5,8)       =         3.082421	     176.609698
	 D(2,3,5,9)       =        -1.048676	     -60.084735
	 D(2,3,5,10)      =         0.963085	      55.180731
	 D(3,5,8,11)      =         2.490369	     142.687619
	 D(3,5,8,12)      =         0.383346	      21.964116
	 D(3,5,8,13)      =        -1.641863	     -94.071848
	 D(4,2,3,5)       =        -1.553427	     -89.004798
	 D(4,2,3,6)       =         2.622104	     150.235512
	 D(4,2,3,7)       =         0.558417	      31.994924
	 D(5,8,11,14)     =        -1.079337	     -61.841430
	 D(5,8,11,15)     =         1.011782	      57.970853
	 D(5,8,11,16)     =         3.106507	     177.989738
	 D(6,3,5,8)       =        -1.151223	     -65.960245
	 D(6,3,5,9)       =         1.000865	      57.345321
	 D(6,3,5,10)      =         3.012627	     172.610787
	 D(7,3,5,8)       =         1.032188	      59.140037
	 D(7,3,5,9)       =        -3.098909	    -177.554397
	 D(7,3,5,10)      =        -1.087147	     -62.288931
	*D(9,5,8,11)      =         0.349066	      19.999998
	 D(9,5,8,12)      =        -1.757957	    -100.723505
	 D(9,5,8,13)      =         2.500019	     143.240530
	 D(10,5,8,11)     =        -1.691394	     -96.909716
	 D(10,5,8,12)     =         2.484769	     142.366782
	 D(10,5,8,13)     =         0.459559	      26.330817
	 D(12,8,11,14)    =         1.046244	      59.945354
	 D(12,8,11,15)    =         3.137363	     179.757637
	 D(12,8,11,16)    =        -1.051098	     -60.223478
	 D(13,8,11,14)    =         3.053702	     174.964227
	 D(13,8,11,15)    =        -1.138365	     -65.223489
	 D(13,8,11,16)    =         0.956360	      54.795396

	Current energy   :      -360.9056552960

	Energy change for the previous step:
		Projected    :        -0.0021422572
		Actual       :        -0.0002721685
	Energy ratio indicates iffy step: Trust radius decreased to 1.250e-01.


	Performing BFGS update.
	Previous computed or guess Hessian on step 1.
	Steps to be used in Hessian update: 1
	Taking RFO optimization step.
	Going to follow RFO solution 1.
	Using RFO vector 1.

	Determining step-restricting scale parameter for RS-RFO.
	Maximum step size allowed    0.12500

	 Iter      |step|        alpha        rfo_root  
	------------------------------------------------
	    0     0.13649       1.00000           1
	    1     0.12618       2.60541           1
	    2     0.12501       2.80955           1
	    3     0.12500       2.81216           1
	------------------------------------------------
	Norm of target step-size    0.12500
	Projected energy change by RFO approximation:        -0.0005826467

	Back-transformation to cartesian coordinates...
	Could not converge backtransformation.
	Using first guess instead.

	Back-transformation to cartesian coordinates to adjust frozen coordinates...
	Successfully converged to displaced geometry.

	--- Internal Coordinate Step in ANG or DEG, aJ/ANG or AJ/DEG ---
	 ---------------------------------------------------------------------------
	   Coordinate                Previous        Force       Change         New 
	   ----------                --------       ------       ------       ------
	    1 R(1,2)          =      1.185325    -0.000293     0.001064     1.186389
	    2 R(2,3)          =      1.487938    -0.002299    -0.000272     1.487666
	    3 R(2,4)          =      1.185357    -0.001157     0.000949     1.186306
	    4 R(3,5)          =      1.523488    -0.004881    -0.000796     1.522692
	    5 R(3,6)          =      1.077001     0.000924     0.000119     1.077120
	    6 R(3,7)          =      1.077538    -0.000768    -0.000051     1.077488
	    7 R(5,8)          =      1.541750    -0.027272    -0.003052     1.538697
	    8 R(5,9)          =      1.082719     0.001127     0.000078     1.082797
	    9 R(5,10)         =      1.082592     0.005430     0.000670     1.083261
	   10 R(8,11)         =      1.525396    -0.000234     0.000034     1.525430
	   11 R(8,12)         =      1.085718     0.004558     0.000669     1.086388
	   12 R(8,13)         =      1.083865    -0.001074    -0.000327     1.083538
	   13 R(11,14)        =      1.084176    -0.000680    -0.000069     1.084106
	   14 R(11,15)        =      1.084559     0.001763     0.000349     1.084908
	   15 R(11,16)        =      1.083510    -0.001958    -0.000161     1.083349
	   16 B(1,2,3)        =    117.213426     0.000011     0.035888   117.249314
	   17 B(1,2,4)        =    125.467900     0.000003    -0.131113   125.336787
	   18 B(2,3,5)        =    109.766074    -0.000047    -0.118834   109.647240
	   19 B(2,3,6)        =    106.179406    -0.000003    -0.023398   106.156008
	   20 B(2,3,7)        =    106.090668     0.000025     0.032776   106.123444
	   21 B(3,2,4)        =    117.293207    -0.000013    -0.008655   117.284552
	   22 B(3,5,8)        =    111.931807    -0.000073    -0.157270   111.774537
	   23 B(3,5,9)        =    109.648435     0.000042     0.250709   109.899144
	   24 B(3,5,10)       =    108.251567     0.000067     0.323729   108.575295
	   25 B(5,3,6)        =    111.592927     0.000042     0.191376   111.784303
	   26 B(5,3,7)        =    111.837236    -0.000008    -0.076351   111.760885
	   27 B(5,8,11)       =    113.120685    -0.000069    -0.180194   112.940492
	   28 B(5,8,12)       =    109.855605    -0.000029    -0.260816   109.594789
	   29 B(5,8,13)       =    109.846477    -0.000018    -0.192172   109.654305
	   30 B(6,3,7)        =    111.063510    -0.000011    -0.014578   111.048932
	   31 B(8,5,9)        =    110.739326    -0.000011    -0.180960   110.558366
	   32 B(8,5,10)       =    110.022662    -0.000017    -0.174041   109.848621
	   33 B(8,11,14)      =    110.935099    -0.000013    -0.067726   110.867373
	   34 B(8,11,15)      =    110.960268     0.000083     0.336133   111.296402
	   35 B(8,11,16)      =    111.173069    -0.000054    -0.201402   110.971667
	   36 B(9,5,10)       =    106.047207    -0.000002    -0.045429   106.001778
	   37 B(11,8,12)      =    107.972318     0.000064     0.161710   108.134028
	   38 B(11,8,13)      =    109.930085     0.000053     0.345506   110.275591
	   39 B(12,8,13)      =    105.843398     0.000006     0.150129   105.993527
	   40 B(14,11,15)     =    107.806130    -0.000025    -0.031667   107.774463
	   41 B(14,11,16)     =    107.976867     0.000022     0.010517   107.987384
	   42 B(15,11,16)     =    107.844788    -0.000014    -0.049020   107.795768
	   43 D(1,2,3,5)      =     89.261076     0.000006     2.803330    92.064406
	   44 D(1,2,3,6)      =    -31.498614     0.000001     2.653627   -28.844987
	   45 D(1,2,3,7)      =   -149.739201     0.000002     2.665805  -147.073396
	   46 D(2,3,5,8)      =    176.609698     0.000002     0.282719   176.892417
	   47 D(2,3,5,9)      =    -60.084735    -0.000006     0.121284   -59.963451
	   48 D(2,3,5,10)     =     55.180731     0.000007     0.382330    55.563061
	   49 D(3,5,8,11)     =    142.687619    -0.000001     0.081821   142.769441
	   50 D(3,5,8,12)     =     21.964116    -0.000005     0.180404    22.144520
	   51 D(3,5,8,13)     =    -94.071848     0.000000     0.259198   -93.812650
	   52 D(4,2,3,5)      =    -89.004798     0.000000    -2.841933   -91.846732
	   53 D(4,2,3,6)      =    150.235512    -0.000005    -2.991637   147.243875
	   54 D(4,2,3,7)      =     31.994924    -0.000005    -2.979459    29.015466
	   55 D(5,8,11,14)    =    -61.841430    -0.000002     0.229574   -61.611857
	   56 D(5,8,11,15)    =     57.970853     0.000002     0.367302    58.338155
	   57 D(5,8,11,16)    =    177.989738     0.000002     0.395304   178.385042
	   58 D(6,3,5,8)      =    -65.960245     0.000000     0.295174   -65.665071
	   59 D(6,3,5,9)      =     57.345321    -0.000008     0.133739    57.479061
	   60 D(6,3,5,10)     =    172.610787     0.000005     0.394786   173.005573
	   61 D(7,3,5,8)      =     59.140037     0.000003     0.364429    59.504466
	   62 D(7,3,5,9)      =   -177.554397    -0.000005     0.202995  -177.351402
	   63 D(7,3,5,10)     =    -62.288931     0.000008     0.464041   -61.824890
	   64 *D(9,5,8,11)    =     19.999998     0.000000    -0.000000    19.999998
	   65 D(9,5,8,12)     =   -100.723505    -0.000003     0.098582  -100.624923
	   66 D(9,5,8,13)     =    143.240530     0.000001     0.177377   143.417907
	   67 D(10,5,8,11)    =    -96.909716     0.000004     0.268840   -96.640876
	   68 D(10,5,8,12)    =    142.366782     0.000001     0.367422   142.734204
	   69 D(10,5,8,13)    =     26.330817     0.000006     0.446217    26.777034
	   70 D(12,8,11,14)   =     59.945354    -0.000010    -0.102890    59.842464
	   71 D(12,8,11,15)   =    179.757637    -0.000007     0.034839   179.792476
	   72 D(12,8,11,16)   =    -60.223478    -0.000006     0.062840   -60.160638
	   73 D(13,8,11,14)   =    174.964227     0.000006     0.350313   175.314541
	   74 D(13,8,11,15)   =    -65.223489     0.000009     0.488042   -64.735447
	   75 D(13,8,11,16)   =     54.795396     0.000010     0.516043    55.311439
	 ---------------------------------------------------------------------------
	Successfully symmetrized geometry.

  ==> Convergence Check <==

  Measures of convergence in internal coordinates in au.
  Criteria marked as inactive (o), active & met (*), and active & unmet ( ).
  ---------------------------------------------------------------------------------------------
   Step     Total Energy     Delta E     MAX Force     RMS Force      MAX Disp      RMS Disp   
  ---------------------------------------------------------------------------------------------
    Convergence Criteria    1.00e-06 *    3.00e-04 *             o    1.20e-03 *             o
  ---------------------------------------------------------------------------------------------
      2    -360.90565530   -2.72e-04      3.31e-03      5.44e-04 o    5.22e-02      1.44e-02 o  ~
  ---------------------------------------------------------------------------------------------

	Writing optimization data to binary file.
	Structure for next step:
	Cartesian Geometry (in Angstrom)
	    O    -2.1265423024  -0.7688015439  -0.4763303329
	    N    -1.5914162932   0.1776954136  -0.0016699923
	    C    -0.3105105332  -0.0539191471   0.7185980238
	    O    -2.0286984996   1.2804306889   0.0073713826
	    C     0.8566744238   0.1201463229  -0.2436752943
	    H    -0.3622090023  -1.0572704074   1.1069291441
	    H    -0.2812148675   0.6690329059   1.5170100923
	    C     2.2117305685  -0.0334272976   0.4689450947
	    H     0.7724278575  -0.5892562236  -1.0573698522
	    H     0.7879199869   1.1023010437  -0.6954497996
	    C     3.2558356090  -0.7447568888  -0.3859177543
	    H     2.0793768286  -0.6029608891   1.3845606248
	    H     2.5759215854   0.9406438475   0.7732559527
	    H     2.9359909609  -1.7520465540  -0.6274818233
	    H     3.4258808108  -0.2184722528  -1.3192640908
	    H     4.2036844108  -0.8104892924   0.1345693375
			--------------------------
			 OPTKING Finished Execution 
			--------------------------

    Structure for next step:
    Molecular point group: c1
    Full point group: C1

    Geometry (in Angstrom), charge = 0, multiplicity = 1:

    O           -2.123450766757    -0.766779506452    -0.480185615113
    N           -1.588324757584     0.179717451060    -0.005525274475
    C           -0.307418997560    -0.051897109653     0.714742741652
    O           -2.025606963910     1.282452726284     0.003516100480
    C            0.859765959469     0.122168360332    -0.247530576428
    H           -0.359117466642    -1.055248370004     1.103073861937
    H           -0.278123331876     0.671054943349     1.513154810123
    C            2.214822104141    -0.031405260155     0.465089812548
    H            0.775519393173    -0.587234186200    -1.061225134371
    H            0.791011522530     1.104323081094    -0.699305081715
    C            3.258927144668    -0.742734851409    -0.389773036425
    H            2.082468364235    -0.600938851729     1.380705342678
    H            2.579013121036     0.942665884911     0.769400670525
    H            2.939082496556    -1.750024516596    -0.631337105472
    H            3.428972346449    -0.216450215378    -1.323119372990
    H            4.206775946472    -0.808467255025     0.130714055374

gradient() will perform analytic gradient computation.

*** tstart() called on cx1-27-4-1
*** at Sat Sep 10 16:22:08 2016


         ---------------------------------------------------------
                                   SCF
            by Justin Turney, Rob Parrish, and Andy Simmonett
                              RHF Reference
                        4 Threads,   2000 MiB Core
         ---------------------------------------------------------

  ==> Geometry <==

    Molecular point group: c1
    Full point group: C1

    Geometry (in Angstrom), charge = 0, multiplicity = 1:

       Center              X                  Y                   Z               Mass       
    ------------   -----------------  -----------------  -----------------  -----------------
           O         -2.123450766757    -0.766779506452    -0.480185615113    15.994914619560
           N         -1.588324757584     0.179717451060    -0.005525274475    14.003074004780
           C         -0.307418997560    -0.051897109653     0.714742741652    12.000000000000
           O         -2.025606963910     1.282452726284     0.003516100480    15.994914619560
           C          0.859765959469     0.122168360332    -0.247530576428    12.000000000000
           H         -0.359117466642    -1.055248370004     1.103073861937     1.007825032070
           H         -0.278123331876     0.671054943349     1.513154810123     1.007825032070
           C          2.214822104141    -0.031405260155     0.465089812548    12.000000000000
           H          0.775519393173    -0.587234186200    -1.061225134371     1.007825032070
           H          0.791011522530     1.104323081094    -0.699305081715     1.007825032070
           C          3.258927144668    -0.742734851409    -0.389773036425    12.000000000000
           H          2.082468364235    -0.600938851729     1.380705342678     1.007825032070
           H          2.579013121036     0.942665884911     0.769400670525     1.007825032070
           H          2.939082496556    -1.750024516596    -0.631337105472     1.007825032070
           H          3.428972346449    -0.216450215378    -1.323119372990     1.007825032070
           H          4.206775946472    -0.808467255025     0.130714055374     1.007825032070

  Running in c1 symmetry.

  Rotational constants: A =      0.24845  B =      0.03755  C =      0.03542 [cm^-1]
  Rotational constants: A =   7448.20540  B =   1125.77828  C =   1061.86989 [MHz]
  Nuclear repulsion =  312.668881135780737

  Charge       = 0
  Multiplicity = 1
  Electrons    = 56
  Nalpha       = 28
  Nbeta        = 28

  ==> Algorithm <==

  SCF Algorithm Type is DF.
  DIIS enabled.
  MOM disabled.
  Fractional occupation disabled.
  Guess Type is READ.
  Energy threshold   = 1.00e-08
  Density threshold  = 1.00e-08
  Integral threshold = 0.00e+00

  ==> Primary Basis <==

  Basis Set: CC-PVTZ
    Number of shells: 124
    Number of basis function: 336
    Number of Cartesian functions: 380
    Spherical Harmonics?: true
    Max angular momentum: 3

  ==> Pre-Iterations <==

   -------------------------------------------------------
    Irrep   Nso     Nmo     Nalpha   Nbeta   Ndocc  Nsocc
   -------------------------------------------------------
     A        336     336       0       0       0       0
   -------------------------------------------------------
    Total     336     336      28      28      28       0
   -------------------------------------------------------

  ==> Integral Setup <==

  ==> DFJK: Density-Fitted J/K Matrices <==

    J tasked:                  Yes
    K tasked:                  Yes
    wK tasked:                  No
    OpenMP threads:              4
    Integrals threads:           4
    Memory (MB):              1430
    Algorithm:                Core
    Integral Cache:           NONE
    Schwarz Cutoff:          1E-12
    Fitting Condition:       1E-12

   => Auxiliary Basis Set <=

  Basis Set: 
    Number of shells: 265
    Number of basis function: 823
    Number of Cartesian functions: 987
[...]
	---Fragment 1 Geometry and Gradient---
	 O          -3.9756140743       -1.4446725808       -0.9485227947
	 N          -3.0164328799        0.3294811927        0.0259750604
	 C          -0.5883966736       -0.1011850608        1.3762562204
	 O          -3.8019916734        2.4263630269       -0.0302735262
	 C           1.6089278775        0.2314381295       -0.4498116594
	 H          -0.6791567970       -1.9966444538        2.1125636690
	 H          -0.5297289933        1.2664573534        2.8834643188
	 C           4.1725047362       -0.0571413065        0.8869560110
	 H           1.4460532569       -1.1108444226       -1.9859179844
	 H           1.4749423301        2.0883653762       -1.3021244735
	 C           6.1387761688       -1.4016665134       -0.7351941010
	 H           3.9278694490       -1.1315175364        2.6192836057
	 H           4.8626539616        1.7852100760        1.4553943639
	 H           5.5303814774       -3.3044038042       -1.1894220428
	 H           6.4553705218       -0.4078004589       -2.4999301803
	 H           7.9332916178       -1.5280151832        0.2419703079
	             0.0000126141       -0.0000386784        0.0000049938
	            -0.0000009899        0.0000204905       -0.0000045961
	             0.0000056478       -0.0000375081        0.0000013885
	             0.0000127549        0.0000357499        0.0000138547
	            -0.0022819227       -0.0042890216        0.0035509350
	            -0.0000167601       -0.0000072188       -0.0000076654
	            -0.0000101117       -0.0000007149        0.0000071153
	             0.0015420368        0.0041662020       -0.0021105499
	             0.0016184976        0.0026365336       -0.0024923984
	             0.0000192008        0.0000206549        0.0000066319
	            -0.0008821153       -0.0025196971        0.0010495893
	            -0.0000393082        0.0000021041       -0.0000133972
	             0.0000078769        0.0000250730       -0.0000119353
	             0.0000010832       -0.0000292558        0.0000043391
	            -0.0000017795        0.0000002663       -0.0000167030
	             0.0000132753        0.0000150203        0.0000183977

	---Fragment 1 Intrafragment Coordinates---
	 - Coordinate -           - BOHR/RAD -       - ANG/DEG -
	 R(1,2)           =         2.239932	       1.185321
	 R(2,3)           =         2.811422	       1.487740
	 R(2,4)           =         2.239906	       1.185307
	 R(3,5)           =         2.876351	       1.522100
	 R(3,6)           =         2.035474	       1.077126
	 R(3,7)           =         2.036066	       1.077440
	 R(5,8)           =         2.905538	       1.537545
	 R(5,9)           =         2.046429	       1.082924
	 R(5,10)          =         2.047576	       1.083531
	 R(8,11)          =         2.881899	       1.525035
	 R(8,12)          =         2.053068	       1.086437
	 R(8,13)          =         2.047849	       1.083675
	 R(11,14)         =         2.048628	       1.084087
	 R(11,15)         =         2.049950	       1.084787
	 R(11,16)         =         2.047218	       1.083341
	 B(1,2,3)         =         2.045915	     117.222290
	 B(1,2,4)         =         2.189986	     125.476977
	 B(2,3,5)         =         1.914661	     109.701971
	 B(2,3,6)         =         1.852378	     106.133452
	 B(2,3,7)         =         1.852011	     106.112387
	 B(3,2,4)         =         2.046933	     117.280643
	 B(3,5,8)         =         1.950292	     111.743474
	 B(3,5,9)         =         1.917595	     109.870112
	 B(3,5,10)        =         1.895625	     108.611313
	 B(5,3,6)         =         1.951313	     111.801998
	 B(5,3,7)         =         1.950092	     111.732043
	 B(5,8,11)        =         1.970728	     112.914378
	 B(5,8,12)        =         1.912447	     109.575149
	 B(5,8,13)        =         1.913146	     109.615170
	 B(6,3,7)         =         1.938004	     111.039422
	 B(8,5,9)         =         1.928818	     110.513149
	 B(8,5,10)        =         1.916986	     109.835219
	 B(8,11,14)       =         1.934243	     110.823933
	 B(8,11,15)       =         1.943079	     111.330213
	 B(8,11,16)       =         1.937125	     110.989079
	 B(9,5,10)        =         1.851657	     106.092111
	 B(11,8,12)       =         1.888195	     108.185583
	 B(11,8,13)       =         1.924132	     110.244642
	 B(12,8,13)       =         1.851190	     106.065355
	 B(14,11,15)      =         1.881038	     107.775564
	 B(14,11,16)      =         1.884757	     107.988615
	 B(15,11,16)      =         1.881207	     107.785201
	 D(1,2,3,5)       =         1.556829	      89.199715
	 D(1,2,3,6)       =        -0.554103	     -31.747736
	 D(1,2,3,7)       =        -2.617103	    -149.948983
	 D(2,3,5,8)       =         3.089319	     177.004931
	 D(2,3,5,9)       =        -1.046342	     -59.950975
	 D(2,3,5,10)      =         0.971937	      55.687915
	 D(3,5,8,11)      =         2.490201	     142.677994
	 D(3,5,8,12)      =         0.384297	      22.018593
	 D(3,5,8,13)      =        -1.640463	     -93.991630
	 D(4,2,3,5)       =        -1.557884	     -89.260185
	 D(4,2,3,6)       =         2.614370	     149.792364
	 D(4,2,3,7)       =         0.551369	      31.591117
	 D(5,8,11,14)     =        -1.074163	     -61.544986
	 D(5,8,11,15)     =         1.019269	      58.399785
	 D(5,8,11,16)     =         3.114848	     178.467635
	 D(6,3,5,8)       =        -1.143799	     -65.534851
	 D(6,3,5,9)       =         1.003726	      57.509243
	 D(6,3,5,10)      =         3.022005	     173.148133
	 D(7,3,5,8)       =         1.040452	      59.613506
	 D(7,3,5,9)       =        -3.095209	    -177.342400
	 D(7,3,5,10)      =        -1.076929	     -61.703510
	*D(9,5,8,11)      =         0.349066	      19.999998
	 D(9,5,8,12)      =        -1.756838	    -100.659403
	 D(9,5,8,13)      =         2.501587	     143.330374
	 D(10,5,8,11)     =        -1.688019	     -96.716354
	 D(10,5,8,12)     =         2.489263	     142.624246
	 D(10,5,8,13)     =         0.464502	      26.614023
	 D(12,8,11,14)    =         1.045516	      59.903658
	 D(12,8,11,15)    =         3.138947	     179.848428
	 D(12,8,11,16)    =        -1.048659	     -60.083722
	 D(13,8,11,14)    =         3.062599	     175.474013
	 D(13,8,11,15)    =        -1.127155	     -64.581217
	 D(13,8,11,16)    =         0.968424	      55.486633

	Current energy   :      -360.9057051107

	Energy change for the previous step:
		Projected    :        -0.0000001417
		Actual       :        -0.0000006669
	Energy ratio indicates good step: Trust radius increased to 9.375e-02.


	Performing BFGS update.
	Previous computed or guess Hessian on step 1.
	Steps to be used in Hessian update: 6 5
	Taking RFO optimization step.
	Going to follow RFO solution 1.
	Using RFO vector 1.
	Norm of target step-size    0.00989
	Projected energy change by RFO approximation:         0.0000013467

	Back-transformation to cartesian coordinates...
	Could not converge backtransformation.
	Using first guess instead.

	Back-transformation to cartesian coordinates to adjust frozen coordinates...
	Successfully converged to displaced geometry.

	--- Internal Coordinate Step in ANG or DEG, aJ/ANG or AJ/DEG ---
	 ---------------------------------------------------------------------------
	   Coordinate                Previous        Force       Change         New 
	   ----------                --------       ------       ------       ------
	    1 R(1,2)          =      1.185321    -0.000190    -0.000006     1.185315
	    2 R(2,3)          =      1.487740     0.000208     0.000024     1.487764
	    3 R(2,4)          =      1.185307    -0.000236    -0.000008     1.185299
	    4 R(3,5)          =      1.522100    -0.000086    -0.000006     1.522094
	    5 R(3,6)          =      1.077126    -0.000039    -0.000007     1.077119
	    6 R(3,7)          =      1.077440    -0.000037    -0.000006     1.077433
	    7 R(5,8)          =      1.537545     0.000793     0.000140     1.537684
	    8 R(5,9)          =      1.082924    -0.000105    -0.000016     1.082908
	    9 R(5,10)         =      1.083531    -0.000121    -0.000019     1.083512
	   10 R(8,11)         =      1.525035     0.000044     0.000014     1.525049
	   11 R(8,12)         =      1.086437     0.000064     0.000007     1.086444
	   12 R(8,13)         =      1.083675    -0.000180    -0.000028     1.083647
	   13 R(11,14)        =      1.084087    -0.000213    -0.000033     1.084054
	   14 R(11,15)        =      1.084787    -0.000117    -0.000018     1.084769
	   15 R(11,16)        =      1.083341    -0.000161    -0.000029     1.083312
	   16 B(1,2,3)        =    117.222290     0.000002     0.004918   117.227209
	   17 B(1,2,4)        =    125.476977    -0.000004    -0.007795   125.469183
	   18 B(2,3,5)        =    109.701971     0.000001     0.002945   109.704917
	   19 B(2,3,6)        =    106.133452    -0.000000     0.000297   106.133750
	   20 B(2,3,7)        =    106.112387     0.000001     0.006643   106.119030
	   21 B(3,2,4)        =    117.280643     0.000001     0.002874   117.283517
	   22 B(3,5,8)        =    111.743474    -0.000001     0.002543   111.746017
	   23 B(3,5,9)        =    109.870112     0.000001     0.010089   109.880201
	   24 B(3,5,10)       =    108.611313    -0.000001    -0.007192   108.604121
	   25 B(5,3,6)        =    111.801998    -0.000001    -0.004890   111.797109
	   26 B(5,3,7)        =    111.732043    -0.000001    -0.002215   111.729829
	   27 B(5,8,11)       =    112.914378     0.000001     0.004638   112.919016
	   28 B(5,8,12)       =    109.575149     0.000001     0.004497   109.579645
	   29 B(5,8,13)       =    109.615170     0.000000     0.007299   109.622469
	   30 B(6,3,7)        =    111.039422     0.000000    -0.001909   111.037512
	   31 B(8,5,9)        =    110.513149     0.000000     0.005310   110.518459
	   32 B(8,5,10)       =    109.835219     0.000002     0.005376   109.840595
	   33 B(8,11,14)      =    110.823933    -0.000001    -0.001999   110.821934
	   34 B(8,11,15)      =    111.330213    -0.000001    -0.002150   111.328063
	   35 B(8,11,16)      =    110.989079     0.000002     0.006955   110.996034
	   36 B(9,5,10)       =    106.092111    -0.000001    -0.017318   106.074794
	   37 B(11,8,12)      =    108.185583    -0.000002    -0.015078   108.170505
	   38 B(11,8,13)      =    110.244642    -0.000000     0.007107   110.251749
	   39 B(12,8,13)      =    106.065355    -0.000001    -0.009664   106.055691
	   40 B(14,11,15)     =    107.775564     0.000000    -0.002319   107.773245
	   41 B(14,11,16)     =    107.988615    -0.000000     0.000259   107.988874
	   42 B(15,11,16)     =    107.785201    -0.000001    -0.000906   107.784295
	   43 D(1,2,3,5)      =     89.199715    -0.000000    -0.033951    89.165764
	   44 D(1,2,3,6)      =    -31.747736     0.000000    -0.029900   -31.777636
	   45 D(1,2,3,7)      =   -149.948983    -0.000000    -0.031062  -149.980045
	   46 D(2,3,5,8)      =    177.004931     0.000000     0.136059   177.140990
	   47 D(2,3,5,9)      =    -59.950975     0.000000     0.151782   -59.799193
	   48 D(2,3,5,10)     =     55.687915     0.000000     0.132547    55.820462
	   49 D(3,5,8,11)     =    142.677994     0.000000     0.018531   142.696525
	   50 D(3,5,8,12)     =     22.018593     0.000000     0.031483    22.050076
	   51 D(3,5,8,13)     =    -93.991630     0.000000     0.036405   -93.955225
	   52 D(4,2,3,5)      =    -89.260185    -0.000000    -0.033738   -89.293923
	   53 D(4,2,3,6)      =    149.792364     0.000000    -0.029687   149.762678
	   54 D(4,2,3,7)      =     31.591117    -0.000000    -0.030849    31.560269
	   55 D(5,8,11,14)    =    -61.544986     0.000000     0.133496   -61.411490
	   56 D(5,8,11,15)    =     58.399785     0.000000     0.127804    58.527588
	   57 D(5,8,11,16)    =    178.467635     0.000000     0.129901   178.597535
	   58 D(6,3,5,8)      =    -65.534851     0.000000     0.135314   -65.399537
	   59 D(6,3,5,9)      =     57.509243     0.000000     0.151036    57.660280
	   60 D(6,3,5,10)     =    173.148133     0.000000     0.131801   173.279935
	   61 D(7,3,5,8)      =     59.613506     0.000000     0.127322    59.740828
	   62 D(7,3,5,9)      =   -177.342400     0.000000     0.143045  -177.199355
	   63 D(7,3,5,10)     =    -61.703510    -0.000000     0.123810   -61.579701
	   64 *D(9,5,8,11)    =     19.999998     0.000000     0.000000    19.999998
	   65 D(9,5,8,12)     =   -100.659403     0.000000     0.012952  -100.646451
	   66 D(9,5,8,13)     =    143.330374     0.000000     0.017873   143.348248
	   67 D(10,5,8,11)    =    -96.716354    -0.000000     0.014772   -96.701582
	   68 D(10,5,8,12)    =    142.624246     0.000000     0.027723   142.651969
	   69 D(10,5,8,13)    =     26.614023     0.000000     0.032645    26.646668
	   70 D(12,8,11,14)   =     59.903658     0.000000     0.131656    60.035314
	   71 D(12,8,11,15)   =    179.848428     0.000000     0.125963   179.974392
	   72 D(12,8,11,16)   =    -60.083722     0.000000     0.128060   -59.955661
	   73 D(13,8,11,14)   =    175.474013     0.000000     0.115414   175.589427
	   74 D(13,8,11,15)   =    -64.581217    -0.000000     0.109721   -64.471495
	   75 D(13,8,11,16)   =     55.486633    -0.000000     0.111818    55.598452
	 ---------------------------------------------------------------------------
	Successfully symmetrized geometry.

  ==> Convergence Check <==

  Measures of convergence in internal coordinates in au.
  Criteria marked as inactive (o), active & met (*), and active & unmet ( ).
  ---------------------------------------------------------------------------------------------
   Step     Total Energy     Delta E     MAX Force     RMS Force      MAX Disp      RMS Disp   
  ---------------------------------------------------------------------------------------------
    Convergence Criteria    1.00e-06 *    3.00e-04 *             o    1.20e-03 *             o
  ---------------------------------------------------------------------------------------------
      7    -360.90570511   -6.67e-07 *    9.62e-05 *    1.79e-05 o    2.65e-03      1.14e-03 o  ~
  ---------------------------------------------------------------------------------------------


  **** Optimization is complete! (in 7 steps) ****

  ==> Optimization Summary <==

  Measures of convergence in internal coordinates in au.
  --------------------------------------------------------------------------------------------------------------- ~
   Step         Total Energy             Delta E       MAX Force       RMS Force        MAX Disp        RMS Disp  ~
  --------------------------------------------------------------------------------------------------------------- ~
      1    -360.905383127535   -360.905383127535      0.00860304      0.00116325      0.05957952      0.02687102  ~
      2    -360.905655296003     -0.000272168468      0.00331020      0.00054436      0.05221391      0.01443451  ~
      3    -360.905057573484      0.000597722519      0.00471226      0.00133294      0.05047355      0.01442272  ~
      4    -360.905637141940     -0.000579568456      0.00326233      0.00064291      0.02345656      0.00927252  ~
      5    -360.905685414401     -0.000048272461      0.00202251      0.00031338      0.00925970      0.00360926  ~
      6    -360.905704443795     -0.000019029394      0.00018075      0.00003655      0.00813861      0.00360951  ~
      7    -360.905705110725     -0.000000666930      0.00009623      0.00001790      0.00264910      0.00114146  ~
  --------------------------------------------------------------------------------------------------------------- ~

	Writing optimization data to binary file.
	Final energy is   -360.9057051107247
	Final (previous) structure:
	Cartesian Geometry (in Angstrom)
	    O    -2.1038043583  -0.7644878036  -0.5019366448
	    N    -1.5962275313   0.1743539378   0.0137454100
	    C    -0.3113661093  -0.0535448280   0.7282834250
	    O    -2.0119273408   1.2839760136  -0.0160200601
	    C     0.8514079630   0.1224717833  -0.2380300783
	    H    -0.3593942980  -1.0565787386   1.1179205453
	    H    -0.2803205100   0.6701803671   1.5258635993
	    C     2.2079944091  -0.0302378771   0.4693569060
	    H     0.7652184259  -0.5878335508  -1.0509025355
	    H     0.7805058651   1.1051153603  -0.6890545941
	    C     3.2485004372  -0.7417299729  -0.3890479621
	    H     2.0785389907  -0.5987732914   1.3860651870
	    H     2.5732056498   0.9446924847   0.7701615269
	    H     2.9265518327  -1.7486151812  -0.6294150364
	    H     3.4160349532  -0.2157987085  -1.3229060745
	    H     4.1981171132  -0.8085908093   0.1280451721
	Saving final (previous) structure.
			--------------------------
			 OPTKING Finished Execution 
			--------------------------

    Final optimized geometry and variables:
    Molecular point group: c1
    Full point group: C1

    Geometry (in Angstrom), charge = 0, multiplicity = 1:

    O           -2.103804358267    -0.764487803626    -0.501936644785
    N           -1.596227531276     0.174353937811     0.013745409961
    C           -0.311366109294    -0.053544828003     0.728283425020
    O           -2.011927340838     1.283976013605    -0.016020060101
    C            0.851407963024     0.122471783324    -0.238030078319
    H           -0.359394298014    -1.056578738613     1.117920545306
    H           -0.280320509989     0.670180367072     1.525863599272
    C            2.207994409132    -0.030237877062     0.469356906046
    H            0.765218425939    -0.587833550750    -1.050902535476
    H            0.780505865053     1.105115360281    -0.689054594117
    C            3.248500437162    -0.741729972941    -0.389047962119
    H            2.078538990713    -0.598773291381     1.386065186968
    H            2.573205649762     0.944692484743     0.770161526872
    H            2.926551832663    -1.748615181181    -0.629415036447
    H            3.416034953163    -0.215798708524    -1.322906074471
    H            4.198117113243    -0.808590809313     0.128045172096

	Cleaning optimization helper files.


Properties will be evaluated at   0.000000,   0.000000,   0.000000 Bohr

Properties computed using the  density matrix

  Nuclear Dipole Moment: (a.u.)
     X:    15.0767      Y:    -2.1506      Z:     1.1560

  Electronic Dipole Moment: (a.u.)
     X:   -13.4869      Y:     1.9201      Z:    -0.4900

  Dipole Moment: (a.u.)
     X:     1.5898      Y:    -0.2305      Z:     0.6660     Total:     1.7390

  Dipole Moment: (Debye)
     X:     4.0408      Y:    -0.5859      Z:     1.6927     Total:     4.4201

  Quadrupole Moment: (Debye Ang)
    XX:   -50.4038     YY:   -46.0213     ZZ:   -41.5509
    XY:     1.3585     XZ:    -2.6848     YZ:    -0.9693

  Traceless Quadrupole Moment: (Debye Ang)
    XX:    -4.4118     YY:    -0.0293     ZZ:     4.4411
    XY:     1.3585     XZ:    -2.6848     YZ:    -0.9693

  Mulliken Charges: (a.u.)
   Center  Symbol    Alpha    Beta     Spin     Total
       1     O     4.17405  4.17405  0.00000 -0.34810
       2     N     3.27644  3.27644  0.00000  0.44712
       3     C     3.04044  3.04044  0.00000 -0.08088
       4     O     4.17393  4.17393  0.00000 -0.34787
       5     C     3.10423  3.10423  0.00000 -0.20846
       6     H     0.43409  0.43409  0.00000  0.13183
       7     H     0.43325  0.43325  0.00000  0.13351
       8     C     3.09354  3.09354  0.00000 -0.18708
       9     H     0.43781  0.43781  0.00000  0.12439
      10     H     0.43614  0.43614  0.00000  0.12771
      11     C     3.14696  3.14696  0.00000 -0.29392
      12     H     0.45431  0.45431  0.00000  0.09138
      13     H     0.44538  0.44538  0.00000  0.10925
      14     H     0.45224  0.45224  0.00000  0.09553
      15     H     0.45097  0.45097  0.00000  0.09805
      16     H     0.44623  0.44623  0.00000  0.10755

   Total alpha = 28.00000, Total beta = 28.00000, Total charge = -0.00000


*** Psi4 exiting successfully. Buy a developer a beer!
