    -----------------------------------------------------------------------
          Psi4: An Open-Source Ab Initio Electronic Structure Package
                              Psi4 1.0.54 Driver

                          Git: Rev {master} 8d4cec3 dirty

    J. M. Turney, A. C. Simmonett, R. M. Parrish, E. G. Hohenstein,
    F. A. Evangelista, J. T. Fermann, B. J. Mintz, L. A. Burns, J. J. Wilke,
    M. L. Abrams, N. J. Russ, M. L. Leininger, C. L. Janssen, E. T. Seidl,
    W. D. Allen, H. F. Schaefer, R. A. King, E. F. Valeev, C. D. Sherrill,
    and T. D. Crawford, WIREs Comput. Mol. Sci. 2, 556-565 (2012)
    (doi: 10.1002/wcms.93)

                         Additional Contributions by
    A. E. DePrince, U. Bozkaya, A. Yu. Sokolov, D. G. A. Smith, R. Di Remigio,
    R. M. Richard, J. F. Gonthier, H. R. McAlexander, M. Saitow, and
    B. P. Pritchard
    -----------------------------------------------------------------------


    Psi4 started on: Sat Sep 10 17:32:53 2016

    Process ID:  40267
    PSI4DATADIR: /export131/home/mjharvey/miniconda3/share/psi4
    Memory level set to 256.000 MB

  ==> Input File <==

--------------------------------------------------------------------------
set {
	reference rhf
	basis cc-pvtz
}


set_num_threads( 4 )
memory 2 gb

molecule MOL {
0 1

H	 -3.023686	 -1.318283	 0.207018
O	 -2.201047	 -0.983904	 -0.098749
C	 -2.021813	 0.336996	 0.342658
C	 -0.669613	 0.837286	 -0.127252
H	 -2.804751	 0.976909	 -0.056395
H	 -2.078014	 0.385579	 1.428414
C	 0.490865	 -0.082543	 0.241244
H	 -0.708709	 0.967192	 -1.204587
H	 -0.507562	 1.822272	 0.303070
C	 1.839800	 0.429565	 -0.255472
H	 0.305636	 -1.070211	 -0.165276
H	 0.527397	 -0.195943	 1.322876
C	 3.001144	 -0.485193	 0.119072
H	 1.804373	 0.541073	 -1.335756
H	 2.020437	 1.423114	 0.146921
H	 2.866892	 -1.477297	 -0.298806
H	 3.943543	 -0.095749	 -0.249061
H	 3.085064	 -0.590459	 1.195790

	symmetry c1
}
set optking {
	frozen_dihedral = ("
		2 3 4 8
	")
}

ee,wfn = optimize('scf', return_wfn=True)
oeprop( wfn, 'DIPOLE', 'QUADRUPOLE', 'MULLIKEN_CHARGES')
f=open( 'psi4out.xyz', 'w' )
f.write( "18  " )
f.write( str(ee) + "\n" )
f.write( MOL.save_string_xyz() )
f.close()
--------------------------------------------------------------------------

  Memory set to   2.000 GiB by Python script.
gradient() will perform analytic gradient computation.

*** tstart() called on cx1-27-1-3
*** at Sat Sep 10 17:32:53 2016


         ---------------------------------------------------------
                                   SCF
            by Justin Turney, Rob Parrish, and Andy Simmonett
                              RHF Reference
                        4 Threads,   2000 MiB Core
         ---------------------------------------------------------

  ==> Geometry <==

    Molecular point group: c1
    Full point group: C1

    Geometry (in Angstrom), charge = 0, multiplicity = 1:

       Center              X                  Y                   Z               Mass       
    ------------   -----------------  -----------------  -----------------  -----------------
           H         -3.045847178317    -1.296427497819     0.166515089441     1.007825032070
           O         -2.223208178317    -0.962048497819    -0.139251910559    15.994914619560
           C         -2.043974178317     0.358851502181     0.302155089441    12.000000000000
           C         -0.691774178317     0.859141502181    -0.167754910559    12.000000000000
           H         -2.826912178317     0.998764502181    -0.096897910559     1.007825032070
           H         -2.100175178317     0.407434502181     1.387911089441     1.007825032070
           C          0.468703821683    -0.060687497819     0.200741089441    12.000000000000
           H         -0.730870178317     0.989047502181    -1.245089910559     1.007825032070
           H         -0.529723178317     1.844127502181     0.262567089441     1.007825032070
           C          1.817638821683     0.451420502181    -0.295974910559    12.000000000000
           H          0.283474821683    -1.048355497819    -0.205778910559     1.007825032070
           H          0.505235821683    -0.174087497819     1.282373089441     1.007825032070
           C          2.978982821683    -0.463337497819     0.078569089441    12.000000000000
           H          1.782211821683     0.562928502181    -1.376258910559     1.007825032070
           H          1.998275821683     1.444969502181     0.106418089441     1.007825032070
           H          2.844730821683    -1.455441497819    -0.339308910559     1.007825032070
           H          3.921381821683    -0.073893497819    -0.289563910559     1.007825032070
           H          3.062902821683    -0.568603497819     1.155287089441     1.007825032070

  Running in c1 symmetry.

  Rotational constants: A =      0.30414  B =      0.04692  C =      0.04313 [cm^-1]
  Rotational constants: A =   9117.80226  B =   1406.71025  C =   1293.09959 [MHz]
  Nuclear repulsion =  249.985207788771504

  Charge       = 0
  Multiplicity = 1
  Electrons    = 50
  Nalpha       = 25
  Nbeta        = 25

  ==> Algorithm <==

  SCF Algorithm Type is DF.
  DIIS enabled.
  MOM disabled.
  Fractional occupation disabled.
  Guess Type is SAD.
  Energy threshold   = 1.00e-08
  Density threshold  = 1.00e-08
  Integral threshold = 0.00e+00

  ==> Primary Basis <==

  Basis Set: CC-PVTZ
    Number of shells: 132
    Number of basis function: 348
    Number of Cartesian functions: 390
    Spherical Harmonics?: true
    Max angular momentum: 3

  ==> Pre-Iterations <==

   -------------------------------------------------------
    Irrep   Nso     Nmo     Nalpha   Nbeta   Ndocc  Nsocc
   -------------------------------------------------------
     A        348     348       0       0       0       0
   -------------------------------------------------------
    Total     348     348      25      25      25       0
   -------------------------------------------------------

  ==> Integral Setup <==

  ==> DFJK: Density-Fitted J/K Matrices <==

    J tasked:                  Yes
    K tasked:                  Yes
    wK tasked:                  No
    OpenMP threads:              4
    Integrals threads:           4
    Memory (MB):              1430
    Algorithm:                Core
    Integral Cache:           NONE
    Schwarz Cutoff:          1E-12
    Fitting Condition:       1E-12

   => Auxiliary Basis Set <=

  Basis Set: 
    Number of shells: 270
    Number of basis function: 834
    Number of Cartesian functions: 996
    Spherical Harmonics?: true
    Max angular momentum: 4

  Minimum eigenvalue in the overlap matrix is 3.6858385763E-04.
  Using Symmetric Orthogonalization.
  SCF Guess: Superposition of Atomic Densities via on-the-fly atomic UHF.

  ==> Iterations <==

                           Total Energy        Delta E     RMS |[F,P]|

   @DF-RHF iter   0:  -274.01176033168429   -2.74012e+02   1.40587e-02 
   @DF-RHF iter   1:  -271.13771891098361    2.87404e+00   1.27248e-03 
   @DF-RHF iter   2:  -271.27079519044514   -1.33076e-01   4.16477e-04 DIIS
   @DF-RHF iter   3:  -271.28347301494910   -1.26778e-02   1.75007e-04 DIIS
   @DF-RHF iter   4:  -271.28593915374745   -2.46614e-03   4.45990e-05 DIIS
   @DF-RHF iter   5:  -271.28614038461478   -2.01231e-04   1.47650e-05 DIIS
   @DF-RHF iter   6:  -271.28616569373764   -2.53091e-05   4.65561e-06 DIIS
   @DF-RHF iter   7:  -271.28616861598141   -2.92224e-06   1.25810e-06 DIIS
   @DF-RHF iter   8:  -271.28616889147838   -2.75497e-07   3.69371e-07 DIIS
   @DF-RHF iter   9:  -271.28616891386935   -2.23910e-08   1.20420e-07 DIIS
   @DF-RHF iter  10:  -271.28616891590855   -2.03920e-09   2.89828e-08 DIIS
   @DF-RHF iter  11:  -271.28616891604008   -1.31536e-10   6.39160e-09 DIIS

  ==> Post-Iterations <==

    Orbital Energies (a.u.)
    -----------------------

    Doubly Occupied:                                                      

       1A    -20.546413     2A    -11.266114     3A    -11.210393  
       4A    -11.208212     5A    -11.203432     6A    -11.202031  
       7A     -1.364524     8A     -1.075521     9A     -1.009800  
      10A     -0.914364    11A     -0.818012    12A     -0.783318  
      13A     -0.707422    14A     -0.647023    15A     -0.624200  
      16A     -0.582853    17A     -0.572038    18A     -0.557665  
      19A     -0.523310    20A     -0.502383    21A     -0.489215  
      22A     -0.467066    23A     -0.457547    24A     -0.447756  
      25A     -0.432288  

    Virtual:                                                              

      26A      0.140192    27A      0.152349    28A      0.169469  
      29A      0.176357    30A      0.195426    31A      0.198009  
      32A      0.216676    33A      0.229191    34A      0.245036  
      35A      0.248236    36A      0.261193    37A      0.283978  
      38A      0.317305    39A      0.324347    40A      0.339087  
      41A      0.356210    42A      0.373466    43A      0.396433  
      44A      0.418767    45A      0.449333    46A      0.458150  
      47A      0.470205    48A      0.504687    49A      0.514448  
      50A      0.532120    51A      0.557055    52A      0.564424  
      53A      0.569147    54A      0.589677    55A      0.601343  
      56A      0.627101    57A      0.632541    58A      0.634631  
      59A      0.647675    60A      0.657787    61A      0.665105  
      62A      0.668017    63A      0.677731    64A      0.681909  
      65A      0.694003    66A      0.699193    67A      0.713411  
      68A      0.733106    69A      0.736570    70A      0.783039  
      71A      0.788266    72A      0.826795    73A      0.837697  
      74A      0.854358    75A      0.868893    76A      0.890260  
      77A      0.917241    78A      0.929212    79A      0.935664  
      80A      0.968547    81A      0.987736    82A      1.006660  
      83A      1.034729    84A      1.038706    85A      1.054875  
      86A      1.091231    87A      1.101848    88A      1.122199  
      89A      1.148412    90A      1.176084    91A      1.189912  
      92A      1.211337    93A      1.227320    94A      1.251145  
      95A      1.270369    96A      1.278226    97A      1.285899  
      98A      1.297192    99A      1.316434   100A      1.325817  
     101A      1.340102   102A      1.357398   103A      1.363032  
     104A      1.371191   105A      1.391367   106A      1.399843  
     107A      1.416100   108A      1.417759   109A      1.423594  
     110A      1.450080   111A      1.468759   112A      1.482110  
     113A      1.496379   114A      1.500294   115A      1.507981  
     116A      1.526354   117A      1.540088   118A      1.559742  
     119A      1.583575   120A      1.587547   121A      1.620610  
     122A      1.624052   123A      1.637862   124A      1.679526  
     125A      1.684465   126A      1.688154   127A      1.696968  
     128A      1.719083   129A      1.765766   130A      1.802199  
     131A      1.813989   132A      1.821834   133A      1.823269  
     134A      1.846924   135A      1.861756   136A      1.906614  
     137A      1.965026   138A      1.980958   139A      2.036888  
     140A      2.147233   141A      2.291141   142A      2.306517  
     143A      2.393454   144A      2.414392   145A      2.529631  
     146A      2.572102   147A      2.621868   148A      2.629698  
     149A      2.672849   150A      2.680106   151A      2.699040  
     152A      2.716617   153A      2.739249   154A      2.751834  
     155A      2.783890   156A      2.806205   157A      2.817075  
     158A      2.840834   159A      2.857603   160A      2.881241  
     161A      2.907220   162A      2.928500   163A      2.941707  
     164A      2.948031   165A      2.965410   166A      3.016151  
     167A      3.023445   168A      3.040135   169A      3.056402  
     170A      3.083557   171A      3.125470   172A      3.138122  
     173A      3.146204   174A      3.177790   175A      3.195894  
     176A      3.201388   177A      3.234783   178A      3.247025  
     179A      3.274301   180A      3.278881   181A      3.308111  
     182A      3.323217   183A      3.337070   184A      3.345802  
     185A      3.353425   186A      3.370027   187A      3.373042  
     188A      3.390456   189A      3.405936   190A      3.421985  
     191A      3.428846   192A      3.430973   193A      3.444412  
     194A      3.453280   195A      3.469113   196A      3.480217  
     197A      3.500404   198A      3.503733   199A      3.524228  
     200A      3.545052   201A      3.559194   202A      3.569147  
     203A      3.578368   204A      3.586236   205A      3.616798  
     206A      3.621712   207A      3.670851   208A      3.681507  
     209A      3.693283   210A      3.718819   211A      3.758302  
     212A      3.773648   213A      3.785219   214A      3.794174  
     215A      3.819554   216A      3.830574   217A      3.852043  
     218A      3.870452   219A      3.876345   220A      3.882481  
     221A      3.903186   222A      3.917518   223A      3.934816  
     224A      3.952411   225A      3.982136   226A      3.999450  
     227A      4.016203   228A      4.043294   229A      4.049059  
     230A      4.091248   231A      4.096767   232A      4.116182  
     233A      4.132853   234A      4.144366   235A      4.158431  
     236A      4.167505   237A      4.174820   238A      4.195303  
     239A      4.201008   240A      4.221792   241A      4.224930  
     242A      4.236557   243A      4.260241   244A      4.283701  
     245A      4.296393   246A      4.300511   247A      4.321488  
     248A      4.341955   249A      4.348783   250A      4.367479  
     251A      4.378001   252A      4.397644   253A      4.410036  
     254A      4.432085   255A      4.444107   256A      4.449802  
     257A      4.459292   258A      4.465753   259A      4.490606  
     260A      4.519103   261A      4.529969   262A      4.547794  
     263A      4.562036   264A      4.594470   265A      4.609183  
     266A      4.624926   267A      4.637116   268A      4.664963  
     269A      4.677773   270A      4.686667   271A      4.689407  
     272A      4.727579   273A      4.740683   274A      4.771524  
     275A      4.780071   276A      4.794121   277A      4.837698  
     278A      4.866748   279A      4.880179   280A      4.953461  
     281A      5.026605   282A      5.031561   283A      5.050505  
     284A      5.071838   285A      5.089183   286A      5.126325  
     287A      5.132684   288A      5.152162   289A      5.183918  
     290A      5.226816   291A      5.232943   292A      5.243041  
     293A      5.261535   294A      5.283259   295A      5.304054  
     296A      5.321567   297A      5.337427   298A      5.346991  
     299A      5.390801   300A      5.413508   301A      5.445354  
     302A      5.457217   303A      5.482805   304A      5.543907  
     305A      5.576363   306A      5.611676   307A      5.630485  
     308A      5.656033   309A      5.745214   310A      5.749777  
     311A      5.756413   312A      5.761565   313A      5.782506  
     314A      5.827833   315A      5.862718   316A      5.884889  
     317A      5.895631   318A      5.919451   319A      5.928000  
     320A      5.939782   321A      5.955203   322A      5.992092  
     323A      6.012240   324A      6.077740   325A      6.092623  
     326A      6.260351   327A      6.305856   328A      6.336446  
     329A      6.344241   330A      6.356892   331A      6.433207  
     332A      6.489689   333A      6.492897   334A      6.692489  
     335A      7.090476   336A      7.173626   337A      7.252426  
     338A      7.295649   339A      7.443824   340A      7.546849  
     341A      7.734316   342A      8.038775   343A     12.838952  
     344A     13.263766   345A     13.384058   346A     13.669998  
     347A     13.938576   348A     14.267895  

    Final Occupation by Irrep:
              A 
    DOCC [    25 ]

  Energy converged.

  @DF-RHF Final Energy:  -271.28616891604008

   => Energetics <=

    Nuclear Repulsion Energy =            249.9852077887715041
    One-Electron Energy =                -863.3169504658756068
    Two-Electron Energy =                 342.0455737610641904
    DFT Exchange-Correlation Energy =       0.0000000000000000
    Empirical Dispersion Energy =           0.0000000000000000
    PCM Polarization Energy =               0.0000000000000000
    EFP Energy =                            0.0000000000000000
    Total Energy =                       -271.2861689160399123


  Saving occupied orbitals to File 180.

*** tstop() called on cx1-27-1-3 at Sat Sep 10 17:33:01 2016
Module time:
	user time   =      25.14 seconds =       0.42 minutes
	system time =       0.61 seconds =       0.01 minutes
	total time  =          8 seconds =       0.13 minutes
Total time:
	user time   =      25.14 seconds =       0.42 minutes
	system time =       0.61 seconds =       0.01 minutes
	total time  =          8 seconds =       0.13 minutes


Properties will be evaluated at   0.000000,   0.000000,   0.000000 Bohr

Properties computed using the SCF density matrix

  Nuclear Dipole Moment: (a.u.)
     X:     4.8311      Y:     1.5239      Z:     0.7570

  Electronic Dipole Moment: (a.u.)
     X:    -5.2810      Y:    -1.2457      Z:    -0.4329

  Dipole Moment: (a.u.)
     X:    -0.4500      Y:     0.2782      Z:     0.3241     Total:     0.6204

  Dipole Moment: (Debye)
     X:    -1.1437      Y:     0.7071      Z:     0.8237     Total:     1.5769


*** tstart() called on cx1-27-1-3
*** at Sat Sep 10 17:33:01 2016


         ------------------------------------------------------------
                                   SCF GRAD                          
                          Rob Parrish, Justin Turney,                
                       Andy Simmonett, and Alex Sokolov              
         ------------------------------------------------------------

  ==> Geometry <==

    Molecular point group: c1
    Full point group: C1

    Geometry (in Angstrom), charge = 0, multiplicity = 1:

       Center              X                  Y                   Z               Mass       
    ------------   -----------------  -----------------  -----------------  -----------------
           H         -3.045847178317    -1.296427497819     0.166515089441     1.007825032070
           O         -2.223208178317    -0.962048497819    -0.139251910559    15.994914619560
           C         -2.043974178317     0.358851502181     0.302155089441    12.000000000000
           C         -0.691774178317     0.859141502181    -0.167754910559    12.000000000000
           H         -2.826912178317     0.998764502181    -0.096897910559     1.007825032070
           H         -2.100175178317     0.407434502181     1.387911089441     1.007825032070
           C          0.468703821683    -0.060687497819     0.200741089441    12.000000000000
           H         -0.730870178317     0.989047502181    -1.245089910559     1.007825032070
           H         -0.529723178317     1.844127502181     0.262567089441     1.007825032070
           C          1.817638821683     0.451420502181    -0.295974910559    12.000000000000
           H          0.283474821683    -1.048355497819    -0.205778910559     1.007825032070
           H          0.505235821683    -0.174087497819     1.282373089441     1.007825032070
           C          2.978982821683    -0.463337497819     0.078569089441    12.000000000000
           H          1.782211821683     0.562928502181    -1.376258910559     1.007825032070
           H          1.998275821683     1.444969502181     0.106418089441     1.007825032070
           H          2.844730821683    -1.455441497819    -0.339308910559     1.007825032070
           H          3.921381821683    -0.073893497819    -0.289563910559     1.007825032070
           H          3.062902821683    -0.568603497819     1.155287089441     1.007825032070

  Nuclear repulsion =  249.985207788771504

  ==> Basis Set <==

  Basis Set: CC-PVTZ
    Number of shells: 132
    Number of basis function: 348
    Number of Cartesian functions: 390
    Spherical Harmonics?: true
    Max angular momentum: 3

  ==> DFJKGrad: Density-Fitted SCF Gradients <==

    Gradient:                    1
    J tasked:                  Yes
    K tasked:                  Yes
    wK tasked:                  No
    OpenMP threads:              4
    Integrals threads:           4
    Memory (MB):              1430
    Schwarz Cutoff:          0E+00
    Fitting Condition:       1E-12

   => Auxiliary Basis Set <=

  Basis Set: 
    Number of shells: 270
    Number of basis function: 834
    Number of Cartesian functions: 996
    Spherical Harmonics?: true
    Max angular momentum: 4


  -Total Gradient:
     Atom            X                  Y                   Z
    ------   -----------------  -----------------  -----------------
       1        0.000041661316    -0.000243283842     0.000241280167
       2        0.001721064516    -0.000332606799     0.000496769329
       3       -0.000020666546     0.000905111650    -0.001469687837
       4       -0.000243631156    -0.000022584054     0.001503572509
       5       -0.000107441860    -0.000439184902    -0.000703432827
       6       -0.000229496290     0.000858289810    -0.000030940107
       7       -0.000442176127     0.000283903158    -0.000441866499
       8       -0.001137389334     0.000522652386     0.000313626352
       9        0.000520134527    -0.000293640886     0.000757626356
      10        0.000226561743    -0.000572000365    -0.000254226220
      11       -0.000263570136    -0.000878399728    -0.000485723815
      12        0.000029447308     0.000248901291    -0.000058162115
      13        0.000077618876     0.000033288958     0.000004666305
      14       -0.000018413771    -0.000008449150     0.000049698285
      15       -0.000187007949    -0.000039739649     0.000055089417
      16        0.000016031102    -0.000004570174    -0.000026059991
      17       -0.000003303883    -0.000011915663     0.000020309043
      18        0.000020577665    -0.000005772039     0.000027461648


*** tstop() called on cx1-27-1-3 at Sat Sep 10 17:33:09 2016
Module time:
	user time   =      30.64 seconds =       0.51 minutes
	system time =       0.69 seconds =       0.01 minutes
	total time  =          8 seconds =       0.13 minutes
Total time:
	user time   =      55.91 seconds =       0.93 minutes
	system time =       1.30 seconds =       0.02 minutes
	total time  =         16 seconds =       0.27 minutes

			-----------------------------------------
			 OPTKING 2.0: for geometry optimizations 
			  - R.A. King,  Bethel University        
			-----------------------------------------

	Internal coordinates to be generated automatically.
	Detected frag 1 with atoms:  1 2 3 4 5 6 7 8 9 10 11 12 13 14 15 16 17 18
	---Fragment 1 Bond Connectivity---
	 1 : 2
	 2 : 1 3
	 3 : 2 4 5 6
	 4 : 3 7 8 9
	 5 : 3
	 6 : 3
	 7 : 4 10 11 12
	 8 : 4
	 9 : 4
	 10 : 7 13 14 15
	 11 : 7
	 12 : 7
	 13 : 10 16 17 18
	 14 : 10
	 15 : 10
	 16 : 13
	 17 : 13
	 18 : 13

	Assuming in current code that numbering for constraints corresponds to unified fragment.
	Frozen dihedral atom list: 
	     2     3     4     8
	---Fragment 1 Geometry and Gradient---
	 H          -5.7558170096       -2.4498929220        0.3146679160
	 O          -4.2012545934       -1.8180081874       -0.2631479744
	 C          -3.8625514197        0.6781310615        0.5709903687
	 C          -1.3072637428        1.6235421485       -0.3170108384
	 H          -5.3420898187        1.8873913804       -0.1831105138
	 H          -3.9687559181        0.7699396262        2.6227718558
	 C           0.8857218604       -0.1146827506        0.3793456827
	 H          -1.3811444757        1.8690289115       -2.3528789418
	 H          -1.0010317333        3.4848959332        0.4961798906
	 C           3.4348395815        0.8530611199       -0.5593115232
	 H           0.5356897785       -1.9811047808       -0.3888657849
	 H           0.9547573355       -0.3289776940        2.4233339392
	 C           5.6294616876       -0.8755809780        0.1484740616
	 H           3.3678922538        1.0637807015       -2.6007524289
	 H           3.7761940409        2.7305966295        0.2011010446
	 H           5.3757621748       -2.7503858333       -0.6412009154
	 H           7.4103377055       -0.1396384739       -0.5471964889
	 H           5.7880475046       -1.0745048891        2.1831762039
	             0.0000416613       -0.0002432838        0.0002412802
	             0.0017210645       -0.0003326068        0.0004967693
	            -0.0000206665        0.0009051117       -0.0014696878
	            -0.0002436312       -0.0000225841        0.0015035725
	            -0.0001074419       -0.0004391849       -0.0007034328
	            -0.0002294963        0.0008582898       -0.0000309401
	            -0.0004421761        0.0002839032       -0.0004418665
	            -0.0011373893        0.0005226524        0.0003136264
	             0.0005201345       -0.0002936409        0.0007576264
	             0.0002265617       -0.0005720004       -0.0002542262
	            -0.0002635701       -0.0008783997       -0.0004857238
	             0.0000294473        0.0002489013       -0.0000581621
	             0.0000776189        0.0000332890        0.0000046663
	            -0.0000184138       -0.0000084492        0.0000496983
	            -0.0001870079       -0.0000397396        0.0000550894
	             0.0000160311       -0.0000045702       -0.0000260600
	            -0.0000033039       -0.0000119157        0.0000203090
	             0.0000205777       -0.0000057720        0.0000274616

	Previous optimization step data not found.  Starting new optimization.

	---Fragment 1 Intrafragment Coordinates---
	 - Coordinate -           - BOHR/RAD -       - ANG/DEG -
	 R(1,2)           =         1.774771	       0.939169
	 R(2,3)           =         2.653529	       1.404187
	 R(3,4)           =         2.865631	       1.516427
	 R(3,5)           =         2.054267	       1.087071
	 R(3,6)           =         2.056579	       1.088295
	 R(4,7)           =         2.883665	       1.525970
	 R(4,8)           =         2.051946	       1.085843
	 R(4,9)           =         2.054190	       1.087030
	 R(7,10)          =         2.883679	       1.525977
	 R(7,11)          =         2.048463	       1.084000
	 R(7,12)          =         2.056350	       1.088174
	 R(10,13)         =         2.881932	       1.525053
	 R(10,14)         =         2.053379	       1.086601
	 R(10,15)         =         2.054237	       1.087055
	 R(13,16)         =         2.050084	       1.084858
	 R(13,17)         =         2.048680	       1.084115
	 R(13,18)         =         2.050545	       1.085101
	 B(1,2,3)         =         1.922375	     110.143994
	 B(2,3,4)         =         1.903663	     109.071846
	 B(2,3,5)         =         1.924544	     110.268256
	 B(2,3,6)         =         1.927321	     110.427338
	 B(3,4,7)         =         1.987151	     113.855343
	 B(3,4,8)         =         1.891059	     108.349674
	 B(3,4,9)         =         1.885152	     108.011227
	 B(4,3,5)         =         1.911624	     109.527992
	 B(4,3,6)         =         1.918221	     109.905988
	 B(4,7,10)        =         1.972906	     113.039166
	 B(4,7,11)        =         1.905730	     109.190289
	 B(4,7,12)        =         1.905383	     109.170428
	 B(5,3,6)         =         1.878385	     107.623556
	 B(7,4,8)         =         1.916743	     109.821267
	 B(7,4,9)         =         1.914770	     109.708247
	 B(7,10,13)       =         1.973517	     113.074184
	 B(7,10,14)       =         1.906287	     109.222189
	 B(7,10,15)       =         1.910413	     109.458628
	 B(8,4,9)         =         1.864741	     106.841782
	 B(10,7,11)       =         1.912136	     109.557321
	 B(10,7,12)       =         1.905877	     109.198731
	 B(10,13,16)      =         1.938741	     111.081685
	 B(10,13,17)      =         1.942386	     111.290539
	 B(10,13,18)      =         1.939900	     111.148076
	 B(11,7,12)       =         1.858291	     106.472207
	 B(13,10,14)      =         1.907681	     109.302060
	 B(13,10,15)      =         1.907919	     109.315712
	 B(14,10,15)      =         1.854215	     106.238712
	 B(16,13,17)      =         1.881038	     107.775541
	 B(16,13,18)      =         1.878709	     107.642102
	 B(17,13,18)      =         1.880280	     107.732102
	 D(1,2,3,4)       =         3.111053	     178.250188
	 D(1,2,3,5)       =        -1.072304	     -61.438496
	 D(1,2,3,6)       =         1.001358	      57.373598
	 D(2,3,4,7)       =        -0.916292	     -52.499679
	*D(2,3,4,8)       =         1.221731	      70.000004
	 D(2,3,4,9)       =        -3.047470	    -174.607193
	 D(3,4,7,10)      =         3.129014	     179.279320
	 D(3,4,7,11)      =         0.995857	      57.058386
	 D(3,4,7,12)      =        -1.029271	     -58.972878
	 D(4,7,10,13)     =         3.136013	     179.680324
	 D(4,7,10,14)     =        -1.018905	     -58.378982
	 D(4,7,10,15)     =         1.004461	      57.551378
	 D(5,3,4,7)       =        -3.024048	    -173.265181
	 D(5,3,4,8)       =        -0.886025	     -50.765498
	 D(5,3,4,9)       =         1.127959	      64.627304
	 D(6,3,4,7)       =         1.198956	      68.695132
	 D(6,3,4,8)       =        -2.946206	    -168.805185
	 D(6,3,4,9)       =        -0.932222	     -53.412383
	 D(7,10,13,16)    =         1.043596	      59.793624
	 D(7,10,13,17)    =         3.139586	     179.885028
	 D(7,10,13,18)    =        -1.047788	     -60.033824
	 D(8,4,7,10)      =         1.005162	      57.591548
	 D(8,4,7,11)      =        -1.127996	     -64.629387
	 D(8,4,7,12)      =         3.130062	     179.339349
	 D(9,4,7,10)      =        -1.039415	     -59.554118
	 D(9,4,7,11)      =         3.110612	     178.224947
	 D(9,4,7,12)      =         1.085485	      62.193683
	 D(11,7,10,13)    =        -1.017603	     -58.304343
	 D(11,7,10,14)    =         1.110664	      63.636352
	 D(11,7,10,15)    =         3.134030	     179.566712
	 D(12,7,10,13)    =         1.011391	      57.948442
	 D(12,7,10,14)    =         3.139658	     179.889137
	 D(12,7,10,15)    =        -1.120161	     -64.180503
	 D(14,10,13,16)   =        -1.083889	     -62.102260
	 D(14,10,13,17)   =         1.012101	      57.989143
	 D(14,10,13,18)   =         3.107913	     178.070292
	 D(15,10,13,16)   =        -3.106642	    -177.997471
	 D(15,10,13,17)   =        -1.010652	     -57.906067
	 D(15,10,13,18)   =         1.085160	      62.175082

	Current energy   :      -271.2861689160

	Generating empirical Hessian (Schlegel '84) for each fragment.
	Taking RFO optimization step.
	Going to follow RFO solution 1.
	Using RFO vector 1.
	Norm of target step-size    0.22514
	Projected energy change by RFO approximation:        -0.0004372717

	Back-transformation to cartesian coordinates...
	Successfully converged to displaced geometry.

	Back-transformation to cartesian coordinates to adjust frozen coordinates...
	Successfully converged to displaced geometry.

	--- Internal Coordinate Step in ANG or DEG, aJ/ANG or AJ/DEG ---
	 ---------------------------------------------------------------------------
	   Coordinate                Previous        Force       Change         New 
	   ----------                --------       ------       ------       ------
	    1 R(1,2)          =      0.939169    -0.001060    -0.000113     0.939056
	    2 R(2,3)          =      1.404187    -0.000698    -0.000100     1.404088
	    3 R(3,4)          =      1.516427     0.016100     0.003362     1.519789
	    4 R(3,5)          =      1.087071    -0.000635    -0.000116     1.086955
	    5 R(3,6)          =      1.088295    -0.000159    -0.000029     1.088265
	    6 R(4,7)          =      1.525970     0.000874     0.000188     1.526158
	    7 R(4,8)          =      1.085843     0.001711     0.000311     1.086154
	    8 R(4,9)          =      1.087030    -0.000918    -0.000167     1.086863
	    9 R(7,10)         =      1.525977     0.000392     0.000084     1.526062
	   10 R(7,11)         =      1.084000    -0.008466    -0.001529     1.082471
	   11 R(7,12)         =      1.088174     0.000682     0.000125     1.088299
	   12 R(10,13)        =      1.525053    -0.000695    -0.000149     1.524903
	   13 R(10,14)        =      1.086601     0.000409     0.000075     1.086676
	   14 R(10,15)        =      1.087055     0.000387     0.000071     1.087126
	   15 R(13,16)        =      1.084858    -0.000101    -0.000018     1.084839
	   16 R(13,17)        =      1.084115     0.000116     0.000021     1.084135
	   17 R(13,18)        =      1.085101    -0.000242    -0.000044     1.085058
	   18 B(1,2,3)        =    110.143994    -0.000015    -0.087428   110.056566
	   19 B(2,3,4)        =    109.071846     0.000186     0.701117   109.772963
	   20 B(2,3,5)        =    110.268256    -0.000055     0.342411   110.610667
	   21 B(2,3,6)        =    110.427338    -0.000069    -0.702405   109.724933
	   22 B(3,4,7)        =    113.855343     0.000110     0.604528   114.459871
	   23 B(3,4,8)        =    108.349674     0.000023     0.836594   109.186268
	   24 B(3,4,9)        =    108.011227    -0.000072    -0.979075   107.032152
	   25 B(4,3,5)        =    109.527992    -0.000054     0.076341   109.604333
	   26 B(4,3,6)        =    109.905988    -0.000029    -0.292256   109.613732
	   27 B(4,7,10)       =    113.039166    -0.000057    -0.165483   112.873682
	   28 B(4,7,11)       =    109.190289     0.000020     0.104993   109.295282
	   29 B(4,7,12)       =    109.170428     0.000022     0.036794   109.207222
	   30 B(5,3,6)        =    107.623556     0.000016    -0.144686   107.478870
	   31 B(7,4,8)        =    109.821267    -0.000016     1.016757   110.838025
	   32 B(7,4,9)        =    109.708247    -0.000036    -0.553837   109.154410
	   33 B(7,10,13)      =    113.074184    -0.000018    -0.041039   113.033145
	   34 B(7,10,14)      =    109.222189     0.000003    -0.014245   109.207944
	   35 B(7,10,15)      =    109.458628     0.000017     0.134878   109.593507
	   36 B(8,4,9)        =    106.841782    -0.000017    -1.100897   105.740884
	   37 B(10,7,11)      =    109.557321     0.000023     0.121126   109.678447
	   38 B(10,7,12)      =    109.198731     0.000011    -0.036933   109.161798
	   39 B(10,13,16)     =    111.081685    -0.000000    -0.021192   111.060493
	   40 B(10,13,17)     =    111.290539    -0.000001     0.014142   111.304681
	   41 B(10,13,18)     =    111.148076    -0.000002    -0.031384   111.116691
	   42 B(11,7,12)      =    106.472207    -0.000016    -0.054840   106.417367
	   43 B(13,10,14)     =    109.302060     0.000004    -0.049928   109.252133
	   44 B(13,10,15)     =    109.315712    -0.000002    -0.028336   109.287376
	   45 B(14,10,15)     =    106.238712    -0.000004     0.000846   106.239558
	   46 B(16,13,17)     =    107.775541     0.000001     0.012299   107.787841
	   47 B(16,13,18)     =    107.642102     0.000000     0.015541   107.657643
	   48 B(17,13,18)     =    107.732102     0.000002     0.012847   107.744949
	   49 D(1,2,3,4)      =    178.250188     0.000005     1.599321   179.849509
	   50 D(1,2,3,5)      =    -61.438496     0.000009     2.360722   -59.077774
	   51 D(1,2,3,6)      =     57.373598    -0.000005     1.956118    59.329716
	   52 D(2,3,4,7)      =    -52.499679    -0.000016    -2.394925   -54.894604
	   53 *D(2,3,4,8)     =     70.000004     0.000000    -0.000000    70.000004
	   54 D(2,3,4,9)      =   -174.607193    -0.000010    -1.375255  -175.982448
	   55 D(3,4,7,10)     =    179.279320     0.000014     4.623150   183.902471
	   56 D(3,4,7,11)     =     57.058386     0.000013     4.504768    61.563154
	   57 D(3,4,7,12)     =    -58.972878     0.000012     4.491294   -54.481584
	   58 D(4,7,10,13)    =    179.680324    -0.000000     0.330285   180.010609
	   59 D(4,7,10,14)    =    -58.378982    -0.000001     0.228460   -58.150522
	   60 D(4,7,10,15)    =     57.551378     0.000000     0.297018    57.848397
	   61 D(5,3,4,7)      =   -173.265181    -0.000020    -3.306308  -176.571489
	   62 D(5,3,4,8)      =    -50.765498    -0.000003    -0.911383   -51.676881
	   63 D(5,3,4,9)      =     64.627304    -0.000014    -2.286638    62.340667
	   64 D(6,3,4,7)      =     68.695132    -0.000013    -3.002606    65.692525
	   65 D(6,3,4,8)      =   -168.805185     0.000003    -0.607681  -169.412867
	   66 D(6,3,4,9)      =    -53.412383    -0.000007    -1.982936   -55.395319
	   67 D(7,10,13,16)   =     59.793624    -0.000001    -0.252564    59.541060
	   68 D(7,10,13,17)   =    179.885028    -0.000001    -0.241782   179.643246
	   69 D(7,10,13,18)   =    -60.033824    -0.000001    -0.237165   -60.270989
	   70 D(8,4,7,10)     =     57.591548    -0.000008     2.293108    59.884655
	   71 D(8,4,7,11)     =    -64.629387    -0.000009     2.174726   -62.454662
	   72 D(8,4,7,12)     =    179.339349    -0.000010     2.161252   181.500601
	   73 D(9,4,7,10)     =    -59.554118     0.000004     3.367168   -56.186950
	   74 D(9,4,7,11)     =    178.224947     0.000002     3.248786   181.473733
	   75 D(9,4,7,12)     =     62.193683     0.000001     3.235312    65.428995
	   76 D(11,7,10,13)   =    -58.304343     0.000001     0.439224   -57.865119
	   77 D(11,7,10,14)   =     63.636352    -0.000000     0.337399    63.973751
	   78 D(11,7,10,15)   =    179.566712     0.000001     0.405957   179.972669
	   79 D(12,7,10,13)   =     57.948442     0.000001     0.420560    58.369003
	   80 D(12,7,10,14)   =    179.889137    -0.000000     0.318735   180.207872
	   81 D(12,7,10,15)   =    -64.180503     0.000001     0.387294   -63.793210
	   82 D(14,10,13,16)  =    -62.102260    -0.000000    -0.170714   -62.272974
	   83 D(14,10,13,17)  =     57.989143    -0.000000    -0.159931    57.829211
	   84 D(14,10,13,18)  =    178.070292     0.000000    -0.155315   177.914977
	   85 D(15,10,13,16)  =   -177.997471     0.000001    -0.127996  -178.125466
	   86 D(15,10,13,17)  =    -57.906067     0.000001    -0.117213   -58.023281
	   87 D(15,10,13,18)  =     62.175082     0.000001    -0.112597    62.062485
	 ---------------------------------------------------------------------------
	Successfully symmetrized geometry.

  ==> Convergence Check <==

  Measures of convergence in internal coordinates in au.
  Criteria marked as inactive (o), active & met (*), and active & unmet ( ).
  --------------------------------------------------------------------------------------------- ~
   Step     Total Energy     Delta E     MAX Force     RMS Force      MAX Disp      RMS Disp    ~
  --------------------------------------------------------------------------------------------- ~
    Convergence Criteria    1.00e-06 *    3.00e-04 *             o    1.20e-03 *             o  ~
  --------------------------------------------------------------------------------------------- ~
      1    -271.28616892   -2.71e+02      2.45e-03      5.28e-04 o    8.07e-02      2.41e-02 o  ~
  ---------------------------------------------------------------------------------------------

	Writing optimization data to binary file.
	Structure for next step:
	Cartesian Geometry (in Angstrom)
	    H    -3.1176348500  -1.2621709344   0.1752190025
	    O    -2.2803207479  -0.9717007595  -0.1351962172
	    C    -2.0489918791   0.3522881469   0.2710083808
	    C    -0.6911511264   0.8144346388  -0.2314323253
	    H    -2.8235226022   1.0111886123  -0.1129503081
	    H    -2.0767455158   0.4134047539   1.3572017555
	    C     0.4728800268  -0.0845348871   0.1760519675
	    H    -0.7304191402   0.9303301787  -1.3106711437
	    H    -0.5272569445   1.8124546948   0.1665194905
	    C     1.8274429810   0.4621449023  -0.2657231335
	    H     0.3248993324  -1.0724223649  -0.2409897622
	    H     0.4714141476  -0.2039344974   1.2577798964
	    C     2.9932146322  -0.4335065167   0.1393886030
	    H     1.8284525296   0.5851408671  -1.3454155266
	    H     1.9744107316   1.4543902132   0.1534341338
	    H     2.8920768972  -1.4238628858  -0.2917050871
	    H     3.9397286048  -0.0225998013  -0.1932023360
	    H     3.0425777133  -0.5472413216   1.2173392197
			--------------------------
			 OPTKING Finished Execution 
			--------------------------

    Structure for next step:
    Molecular point group: c1
    Full point group: C1

    Geometry (in Angstrom), charge = 0, multiplicity = 1:

    H           -3.110890012084    -1.256215883743     0.178078115808
    O           -2.273575909973    -0.965745708875    -0.132337103943
    C           -2.042247041103     0.358243197566     0.273867494132
    C           -0.684406288501     0.820389689442    -0.228573212035
    H           -2.816777764287     1.017143662951    -0.110091194758
    H           -2.070000677876     0.419359804532     1.360060868756
    C            0.479624864793    -0.078579836451     0.178911080834
    H           -0.723674302205     0.936285229393    -1.307812030362
    H           -0.520512106539     1.818409745492     0.169378603758
    C            1.834187818964     0.468099952910    -0.262864020183
    H            0.331644170315    -1.066467314302    -0.238130648928
    H            0.478158985499    -0.197979446703     1.260639009683
    C            2.999959470179    -0.427551466097     0.142247716333
    H            1.835197367514     0.591095917728    -1.342556413255
    H            1.981155569554     1.460345263829     0.156293247062
    H            2.898821735131    -1.417907835183    -0.288845973799
    H            3.946473442725    -0.016644750642    -0.190343222742
    H            3.049322551244    -0.541286270934     1.220198333025

gradient() will perform analytic gradient computation.

*** tstart() called on cx1-27-1-3
*** at Sat Sep 10 17:33:10 2016


         ---------------------------------------------------------
                                   SCF
            by Justin Turney, Rob Parrish, and Andy Simmonett
                              RHF Reference
                        4 Threads,   2000 MiB Core
         ---------------------------------------------------------

  ==> Geometry <==

    Molecular point group: c1
    Full point group: C1

    Geometry (in Angstrom), charge = 0, multiplicity = 1:

       Center              X                  Y                   Z               Mass       
    ------------   -----------------  -----------------  -----------------  -----------------
           H         -3.110890012084    -1.256215883743     0.178078115808     1.007825032070
           O         -2.273575909973    -0.965745708875    -0.132337103943    15.994914619560
           C         -2.042247041103     0.358243197566     0.273867494132    12.000000000000
           C         -0.684406288501     0.820389689442    -0.228573212035    12.000000000000
           H         -2.816777764287     1.017143662951    -0.110091194758     1.007825032070
           H         -2.070000677876     0.419359804532     1.360060868756     1.007825032070
           C          0.479624864793    -0.078579836451     0.178911080834    12.000000000000
           H         -0.723674302205     0.936285229393    -1.307812030362     1.007825032070
           H         -0.520512106539     1.818409745492     0.169378603758     1.007825032070
           C          1.834187818964     0.468099952910    -0.262864020183    12.000000000000
           H          0.331644170315    -1.066467314302    -0.238130648928     1.007825032070
           H          0.478158985499    -0.197979446703     1.260639009683     1.007825032070
           C          2.999959470179    -0.427551466097     0.142247716333    12.000000000000
           H          1.835197367514     0.591095917728    -1.342556413255     1.007825032070
           H          1.981155569554     1.460345263829     0.156293247062     1.007825032070
           H          2.898821735131    -1.417907835183    -0.288845973799     1.007825032070
           H          3.946473442725    -0.016644750642    -0.190343222742     1.007825032070
           H          3.049322551244    -0.541286270934     1.220198333025     1.007825032070

  Running in c1 symmetry.

  Rotational constants: A =      0.31122  B =      0.04610  C =      0.04254 [cm^-1]
  Rotational constants: A =   9330.15740  B =   1381.98198  C =   1275.18573 [MHz]
  Nuclear repulsion =  249.371397431988612

  Charge       = 0
  Multiplicity = 1
  Electrons    = 50
  Nalpha       = 25
  Nbeta        = 25

  ==> Algorithm <==

  SCF Algorithm Type is DF.
  DIIS enabled.
  MOM disabled.
  Fractional occupation disabled.
  Guess Type is READ.
  Energy threshold   = 1.00e-08
  Density threshold  = 1.00e-08
  Integral threshold = 0.00e+00

  ==> Primary Basis <==

  Basis Set: CC-PVTZ
    Number of shells: 132
    Number of basis function: 348
    Number of Cartesian functions: 390
    Spherical Harmonics?: true
    Max angular momentum: 3

  ==> Pre-Iterations <==

   -------------------------------------------------------
    Irrep   Nso     Nmo     Nalpha   Nbeta   Ndocc  Nsocc
   -------------------------------------------------------
     A        348     348       0       0       0       0
   -------------------------------------------------------
    Total     348     348      25      25      25       0
   -------------------------------------------------------

  ==> Integral Setup <==

  ==> DFJK: Density-Fitted J/K Matrices <==

    J tasked:                  Yes
    K tasked:                  Yes
    wK tasked:                  No
    OpenMP threads:              4
    Integrals threads:           4
    Memory (MB):              1430
    Algorithm:                Core
    Integral Cache:           NONE
    Schwarz Cutoff:          1E-12
    Fitting Condition:       1E-12

   => Auxiliary Basis Set <=

  Basis Set: 
    Number of shells: 270
    Number of basis function: 834
    Number of Cartesian functions: 996
    Spherical Harmonics?: true
    Max angular momentum: 4

  Minimum eigenvalue in the overlap matrix is 3.7108545939E-04.
  Using Symmetric Orthogonalization.
  SCF Guess: Reading in previously saved MOs, projecting if necessary.

  Using orbitals from previous SCF, no projection.
  Recomputing DOCC and SOCC from number of alpha and beta electrons from previous calculation.
              A 
    DOCC [    25 ]

  ==> Iterations <==

                           Total Energy        Delta E     RMS |[F,P]|

   @DF-RHF iter   0:  -271.27964378102740   -2.71280e+02   2.65112e-04 
   @DF-RHF iter   1:  -271.28602966680467   -6.38589e-03   4.90576e-05 
   @DF-RHF iter   2:  -271.28627258244023   -2.42916e-04   1.56733e-05 DIIS
   @DF-RHF iter   3:  -271.28630368344341   -3.11010e-05   4.28966e-06 DIIS
   @DF-RHF iter   4:  -271.28630530528733   -1.62184e-06   9.72139e-07 DIIS
   @DF-RHF iter   5:  -271.28630543276756   -1.27480e-07   2.88057e-07 DIIS
   @DF-RHF iter   6:  -271.28630544606062   -1.32931e-08   8.92301e-08 DIIS
   @DF-RHF iter   7:  -271.28630544712712   -1.06650e-09   3.34272e-08 DIIS
   @DF-RHF iter   8:  -271.28630544726741   -1.40290e-10   8.62274e-09 DIIS

  ==> Post-Iterations <==

    Orbital Energies (a.u.)
    -----------------------

    Doubly Occupied:                                                      

       1A    -20.545939     2A    -11.266366     3A    -11.211089  
       4A    -11.208951     5A    -11.204649     6A    -11.202500  
       7A     -1.363912     8A     -1.075972     9A     -1.009714  
      10A     -0.914718    11A     -0.818402    12A     -0.784536  
      13A     -0.706148    14A     -0.647689    15A     -0.624007  
      16A     -0.582577    17A     -0.573141    18A     -0.557342  
      19A     -0.523698    20A     -0.502935    21A     -0.489168  
      22A     -0.467406    23A     -0.458654    24A     -0.447815  
      25A     -0.432567  

    Virtual:                                                              

      26A      0.140134    27A      0.151893    28A      0.169073  
      29A      0.176592    30A      0.194923    31A      0.197412  
      32A      0.217387    33A      0.229567    34A      0.245244  
      35A      0.247417    36A      0.260781    37A      0.281476  
      38A      0.318339    39A      0.324080    40A      0.338840  
      41A      0.356823    42A      0.373081    43A      0.396931  
      44A      0.419262    45A      0.450881    46A      0.458468  
      47A      0.468882    48A      0.499225    49A      0.514651  
      50A      0.530578    51A      0.556249    52A      0.565271  
      53A      0.568890    54A      0.591177    55A      0.599777  
      56A      0.628576    57A      0.632815    58A      0.637325  
      59A      0.647246    60A      0.659066    61A      0.662300  
      62A      0.666474    63A      0.677296    64A      0.682277  
      65A      0.692986    66A      0.698519    67A      0.713121  
      68A      0.731521    69A      0.735994    70A      0.781754  
      71A      0.785893    72A      0.826761    73A      0.837862  
      74A      0.854384    75A      0.866951    76A      0.892239  
      77A      0.911356    78A      0.931955    79A      0.936730  
      80A      0.965180    81A      0.986934    82A      1.001493  
      83A      1.030173    84A      1.038825    85A      1.051698  
      86A      1.088366    87A      1.101029    88A      1.121207  
      89A      1.145008    90A      1.174639    91A      1.188999  
      92A      1.212602    93A      1.227792    94A      1.251675  
      95A      1.271039    96A      1.281488    97A      1.289528  
      98A      1.295637    99A      1.317822   100A      1.322004  
     101A      1.341114   102A      1.355064   103A      1.361149  
     104A      1.370443   105A      1.391152   106A      1.398727  
     107A      1.414312   108A      1.419071   109A      1.420269  
     110A      1.450206   111A      1.471646   112A      1.482146  
     113A      1.489960   114A      1.497256   115A      1.504900  
     116A      1.522308   117A      1.536735   118A      1.561162  
     119A      1.584876   120A      1.590850   121A      1.620096  
     122A      1.624582   123A      1.635058   124A      1.678966  
     125A      1.687401   126A      1.691347   127A      1.698333  
     128A      1.718026   129A      1.764062   130A      1.800657  
     131A      1.813674   132A      1.824363   133A      1.826564  
     134A      1.845703   135A      1.860142   136A      1.902534  
     137A      1.960227   138A      1.982092   139A      2.038779  
     140A      2.148223   141A      2.287657   142A      2.310695  
     143A      2.389688   144A      2.411482   145A      2.528410  
     146A      2.573348   147A      2.623371   148A      2.626708  
     149A      2.675619   150A      2.683272   151A      2.701834  
     152A      2.716509   153A      2.733276   154A      2.745346  
     155A      2.781921   156A      2.804039   157A      2.816259  
     158A      2.842834   159A      2.853297   160A      2.878739  
     161A      2.906493   162A      2.922717   163A      2.938368  
     164A      2.947730   165A      2.961640   166A      3.015659  
     167A      3.026444   168A      3.039673   169A      3.053731  
     170A      3.080948   171A      3.125612   172A      3.136744  
     173A      3.144806   174A      3.171423   175A      3.191245  
     176A      3.200790   177A      3.233599   178A      3.245187  
     179A      3.275251   180A      3.279918   181A      3.309940  
     182A      3.322376   183A      3.332234   184A      3.344098  
     185A      3.352762   186A      3.369751   187A      3.373294  
     188A      3.385856   189A      3.407950   190A      3.420651  
     191A      3.429847   192A      3.431872   193A      3.444740  
     194A      3.452793   195A      3.467811   196A      3.479786  
     197A      3.500215   198A      3.504645   199A      3.523469  
     200A      3.541406   201A      3.555753   202A      3.570044  
     203A      3.578057   204A      3.585548   205A      3.619378  
     206A      3.624994   207A      3.667474   208A      3.676994  
     209A      3.692283   210A      3.721386   211A      3.757326  
     212A      3.774880   213A      3.780022   214A      3.792152  
     215A      3.821182   216A      3.827959   217A      3.848917  
     218A      3.868753   219A      3.875768   220A      3.882965  
     221A      3.903323   222A      3.915864   223A      3.930016  
     224A      3.954928   225A      3.979795   226A      3.993114  
     227A      4.013398   228A      4.038797   229A      4.049161  
     230A      4.087200   231A      4.097993   232A      4.117672  
     233A      4.135521   234A      4.144680   235A      4.154518  
     236A      4.167478   237A      4.177129   238A      4.192981  
     239A      4.202442   240A      4.222146   241A      4.223985  
     242A      4.233240   243A      4.257802   244A      4.284455  
     245A      4.296099   246A      4.303178   247A      4.314599  
     248A      4.340996   249A      4.355489   250A      4.372182  
     251A      4.376399   252A      4.393665   253A      4.406112  
     254A      4.431501   255A      4.443389   256A      4.446665  
     257A      4.455891   258A      4.466506   259A      4.487015  
     260A      4.517626   261A      4.534603   262A      4.546507  
     263A      4.558612   264A      4.591137   265A      4.607582  
     266A      4.627530   267A      4.636856   268A      4.661668  
     269A      4.679750   270A      4.685251   271A      4.691077  
     272A      4.722408   273A      4.739911   274A      4.775200  
     275A      4.778743   276A      4.791287   277A      4.835592  
     278A      4.861314   279A      4.876962   280A      4.953239  
     281A      5.024717   282A      5.035068   283A      5.045166  
     284A      5.065817   285A      5.089609   286A      5.124930  
     287A      5.131666   288A      5.154724   289A      5.184849  
     290A      5.225228   291A      5.234354   292A      5.241550  
     293A      5.260891   294A      5.275163   295A      5.298870  
     296A      5.319216   297A      5.342503   298A      5.345818  
     299A      5.394561   300A      5.409299   301A      5.447215  
     302A      5.451891   303A      5.489218   304A      5.542785  
     305A      5.573697   306A      5.614596   307A      5.627979  
     308A      5.656078   309A      5.741581   310A      5.750442  
     311A      5.759198   312A      5.761546   313A      5.784020  
     314A      5.830494   315A      5.857968   316A      5.882295  
     317A      5.899866   318A      5.916262   319A      5.925472  
     320A      5.943129   321A      5.954692   322A      5.991627  
     323A      6.013695   324A      6.077658   325A      6.085948  
     326A      6.264707   327A      6.306217   328A      6.335480  
     329A      6.342814   330A      6.357825   331A      6.435176  
     332A      6.488473   333A      6.494772   334A      6.691929  
     335A      7.088284   336A      7.174212   337A      7.250559  
     338A      7.294187   339A      7.444205   340A      7.547178  
     341A      7.730848   342A      8.035933   343A     12.780417  
     344A     13.261931   345A     13.395398   346A     13.670427  
     347A     13.908478   348A     14.268863  

    Final Occupation by Irrep:
              A 
    DOCC [    25 ]

  Energy converged.

  @DF-RHF Final Energy:  -271.28630544726741

   => Energetics <=

    Nuclear Repulsion Energy =            249.3713974319886120
    One-Electron Energy =                -862.0756204689581637
    Two-Electron Energy =                 341.4179175897020286
    DFT Exchange-Correlation Energy =       0.0000000000000000
    Empirical Dispersion Energy =           0.0000000000000000
    PCM Polarization Energy =               0.0000000000000000
    EFP Energy =                            0.0000000000000000
    Total Energy =                       -271.2863054472675230


  Saving occupied orbitals to File 180.

*** tstop() called on cx1-27-1-3 at Sat Sep 10 17:33:17 2016
Module time:
	user time   =      21.41 seconds =       0.36 minutes
	system time =       0.55 seconds =       0.01 minutes
	total time  =          7 seconds =       0.12 minutes
Total time:
	user time   =      79.11 seconds =       1.32 minutes
	system time =       1.91 seconds =       0.03 minutes
	total time  =         24 seconds =       0.40 minutes


Properties will be evaluated at   0.000000,   0.000000,   0.000000 Bohr

Properties computed using the SCF density matrix

  Nuclear Dipole Moment: (a.u.)
     X:     4.9379      Y:     1.6323      Z:     0.8120

  Electronic Dipole Moment: (a.u.)
     X:    -5.3656      Y:    -1.3186      Z:    -0.4981

  Dipole Moment: (a.u.)
     X:    -0.4277      Y:     0.3137      Z:     0.3140     Total:     0.6164

  Dipole Moment: (Debye)
     X:    -1.0871      Y:     0.7973      Z:     0.7980     Total:     1.5666


*** tstart() called on cx1-27-1-3
*** at Sat Sep 10 17:33:17 2016


         ------------------------------------------------------------
                                   SCF GRAD                          
                          Rob Parrish, Justin Turney,                
                       Andy Simmonett, and Alex Sokolov              
         ------------------------------------------------------------

  ==> Geometry <==

    Molecular point group: c1
    Full point group: C1

    Geometry (in Angstrom), charge = 0, multiplicity = 1:

       Center              X                  Y                   Z               Mass       
    ------------   -----------------  -----------------  -----------------  -----------------
           H         -3.110890012084    -1.256215883743     0.178078115808     1.007825032070
           O         -2.273575909973    -0.965745708875    -0.132337103943    15.994914619560
           C         -2.042247041103     0.358243197566     0.273867494132    12.000000000000
           C         -0.684406288501     0.820389689442    -0.228573212035    12.000000000000
           H         -2.816777764287     1.017143662951    -0.110091194758     1.007825032070
           H         -2.070000677876     0.419359804532     1.360060868756     1.007825032070
           C          0.479624864793    -0.078579836451     0.178911080834    12.000000000000
           H         -0.723674302205     0.936285229393    -1.307812030362     1.007825032070
           H         -0.520512106539     1.818409745492     0.169378603758     1.007825032070
           C          1.834187818964     0.468099952910    -0.262864020183    12.000000000000
           H          0.331644170315    -1.066467314302    -0.238130648928     1.007825032070
           H          0.478158985499    -0.197979446703     1.260639009683     1.007825032070
           C          2.999959470179    -0.427551466097     0.142247716333    12.000000000000
           H          1.835197367514     0.591095917728    -1.342556413255     1.007825032070
           H          1.981155569554     1.460345263829     0.156293247062     1.007825032070
           H          2.898821735131    -1.417907835183    -0.288845973799     1.007825032070
           H          3.946473442725    -0.016644750642    -0.190343222742     1.007825032070
           H          3.049322551244    -0.541286270934     1.220198333025     1.007825032070

  Nuclear repulsion =  249.371397431988612

  ==> Basis Set <==

  Basis Set: CC-PVTZ
    Number of shells: 132
    Number of basis function: 348
    Number of Cartesian functions: 390
    Spherical Harmonics?: true
    Max angular momentum: 3

  ==> DFJKGrad: Density-Fitted SCF Gradients <==

    Gradient:                    1
    J tasked:                  Yes
    K tasked:                  Yes
    wK tasked:                  No
    OpenMP threads:              4
    Integrals threads:           4
    Memory (MB):              1430
    Schwarz Cutoff:          0E+00
    Fitting Condition:       1E-12

   => Auxiliary Basis Set <=

  Basis Set: 
    Number of shells: 270
    Number of basis function: 834
    Number of Cartesian functions: 996
    Spherical Harmonics?: true
    Max angular momentum: 4


  -Total Gradient:
     Atom            X                  Y                   Z
    ------   -----------------  -----------------  -----------------
       1        0.000005881761    -0.000054520577     0.000045857608
       2        0.000251832750    -0.000799322800     0.002336253561
       3       -0.001681789747     0.001908562099    -0.002312293982
       4        0.001887034156    -0.003254841087    -0.001044915794
       5       -0.000261161499    -0.000045658583     0.000303879352
       6       -0.000519669342    -0.000487179147    -0.000129031037
       7        0.000723472011    -0.000598412016     0.000125866812
       8       -0.000910852357     0.003210749892     0.000231223540
       9        0.000219193285    -0.000756541880    -0.000222221401
      10       -0.000053245554     0.000085122444     0.000451560521
      11       -0.000073761081     0.000673419550     0.000038057732
      12        0.000275935265    -0.000054202878     0.000207399089
      13        0.000019838518     0.000087426814    -0.000010822234
      14       -0.000032320595    -0.000099397582     0.000053340359
      15        0.000210479173     0.000138320265    -0.000019245602
      16       -0.000060001116     0.000002588138    -0.000040258622
      17        0.000022715803    -0.000010356595    -0.000011677772
      18       -0.000023581429     0.000054243943    -0.000002972132


*** tstop() called on cx1-27-1-3 at Sat Sep 10 17:33:25 2016
Module time:
	user time   =      30.43 seconds =       0.51 minutes
	system time =       0.75 seconds =       0.01 minutes
	total time  =          8 seconds =       0.13 minutes
Total time:
	user time   =     109.63 seconds =       1.83 minutes
	system time =       2.66 seconds =       0.04 minutes
	total time  =         32 seconds =       0.53 minutes

			-----------------------------------------
			 OPTKING 2.0: for geometry optimizations 
			  - R.A. King,  Bethel University        
			-----------------------------------------

	Previous internal coordinate definitions found.
	---Fragment 1 Geometry and Gradient---
	 H          -5.8787301524       -2.3739039841        0.3365188691
	 O          -4.2964358122       -1.8249949038       -0.2500808837
	 C          -3.8592876034        0.6769815324        0.5175345606
	 C          -1.2933404489        1.5503118353       -0.4319407721
	 H          -5.3229385517        1.9221229608       -0.2080422077
	 H          -3.9117343761        0.7924751817        2.5701425660
	 C           0.9063596410       -0.1484943705        0.3380929449
	 H          -1.3675462406        1.7693226658       -2.4714065707
	 H          -0.9836253302        3.4362964164        0.3200791739
	 C           3.4661126541        0.8845807138       -0.4967410083
	 H           0.6267166555       -2.0153311537       -0.4500017103
	 H           0.9035895306       -0.3741269342        2.3822624807
	 C           5.6691018084       -0.8079551786        0.2688092269
	 H           3.4680204244        1.1170094028       -2.5370639390
	 H           3.7438414531        2.7596526081        0.2953514334
	 H           5.4779791875       -2.6794574902       -0.5458397851
	 H           7.4577539975       -0.0314540203       -0.3596965622
	 H           5.7623845127       -1.0228828116        2.3058406772
	             0.0000058818       -0.0000545206        0.0000458576
	             0.0002518328       -0.0007993228        0.0023362536
	            -0.0016817897        0.0019085621       -0.0023122940
	             0.0018870342       -0.0032548411       -0.0010449158
	            -0.0002611615       -0.0000456586        0.0003038794
	            -0.0005196693       -0.0004871791       -0.0001290310
	             0.0007234720       -0.0005984120        0.0001258668
	            -0.0009108524        0.0032107499        0.0002312235
	             0.0002191933       -0.0007565419       -0.0002222214
	            -0.0000532456        0.0000851224        0.0004515605
	            -0.0000737611        0.0006734195        0.0000380577
	             0.0002759353       -0.0000542029        0.0002073991
	             0.0000198385        0.0000874268       -0.0000108222
	            -0.0000323206       -0.0000993976        0.0000533404
	             0.0002104792        0.0001383203       -0.0000192456
	            -0.0000600011        0.0000025881       -0.0000402586
	             0.0000227158       -0.0000103566       -0.0000116778
	            -0.0000235814        0.0000542439       -0.0000029721

	---Fragment 1 Intrafragment Coordinates---
	 - Coordinate -           - BOHR/RAD -       - ANG/DEG -
	 R(1,2)           =         1.774558	       0.939056
	 R(2,3)           =         2.653341	       1.404088
	 R(3,4)           =         2.871984	       1.519789
	 R(3,5)           =         2.054048	       1.086955
	 R(3,6)           =         2.056524	       1.088265
	 R(4,7)           =         2.884021	       1.526158
	 R(4,8)           =         2.052533	       1.086154
	 R(4,9)           =         2.053873	       1.086863
	 R(7,10)          =         2.883839	       1.526062
	 R(7,11)          =         2.045574	       1.082471
	 R(7,12)          =         2.056586	       1.088299
	 R(10,13)         =         2.881650	       1.524903
	 R(10,14)         =         2.053520	       1.086676
	 R(10,15)         =         2.054371	       1.087126
	 R(13,16)         =         2.050049	       1.084839
	 R(13,17)         =         2.048719	       1.084135
	 R(13,18)         =         2.050462	       1.085058
	 B(1,2,3)         =         1.920849	     110.056566
	 B(2,3,4)         =         1.915900	     109.772963
	 B(2,3,5)         =         1.930520	     110.610667
	 B(2,3,6)         =         1.915061	     109.724933
	 B(3,4,7)         =         1.997702	     114.459871
	 B(3,4,8)         =         1.905660	     109.186268
	 B(3,4,9)         =         1.868063	     107.032152
	 B(4,3,5)         =         1.912956	     109.604333
	 B(4,3,6)         =         1.913121	     109.613732
	 B(4,7,10)        =         1.970017	     112.873682
	 B(4,7,11)        =         1.907563	     109.295282
	 B(4,7,12)        =         1.906026	     109.207222
	 B(5,3,6)         =         1.875860	     107.478870
	 B(7,4,8)         =         1.934488	     110.838025
	 B(7,4,9)         =         1.905104	     109.154410
	 B(7,10,13)       =         1.972801	     113.033145
	 B(7,10,14)       =         1.906038	     109.207944
	 B(7,10,15)       =         1.912768	     109.593507
	 B(8,4,9)         =         1.845527	     105.740884
	 B(10,7,11)       =         1.914250	     109.678447
	 B(10,7,12)       =         1.905233	     109.161798
	 B(10,13,16)      =         1.938371	     111.060493
	 B(10,13,17)      =         1.942633	     111.304681
	 B(10,13,18)      =         1.939352	     111.116691
	 B(11,7,12)       =         1.857333	     106.417367
	 B(13,10,14)      =         1.906809	     109.252133
	 B(13,10,15)      =         1.907425	     109.287376
	 B(14,10,15)      =         1.854230	     106.239558
	 B(16,13,17)      =         1.881253	     107.787841
	 B(16,13,18)      =         1.878980	     107.657643
	 B(17,13,18)      =         1.880504	     107.744949
	 D(1,2,3,4)       =         3.138966	     179.849509
	 D(1,2,3,5)       =        -1.031102	     -59.077774
	 D(1,2,3,6)       =         1.035499	      59.329716
	 D(2,3,4,7)       =        -0.958092	     -54.894604
	*D(2,3,4,8)       =         1.221731	      70.000004
	 D(2,3,4,9)       =        -3.071473	    -175.982448
	 D(3,4,7,10)      =        -3.073482	    -176.097529
	 D(3,4,7,11)      =         1.074480	      61.563154
	 D(3,4,7,12)      =        -0.950883	     -54.481584
	 D(4,7,10,13)     =        -3.141407	    -179.989391
	 D(4,7,10,14)     =        -1.014918	     -58.150522
	 D(4,7,10,15)     =         1.009645	      57.848397
	 D(5,3,4,7)       =        -3.081754	    -176.571489
	 D(5,3,4,8)       =        -0.901932	     -51.676881
	 D(5,3,4,9)       =         1.088050	      62.340667
	 D(6,3,4,7)       =         1.146551	      65.692525
	 D(6,3,4,8)       =        -2.956812	    -169.412867
	 D(6,3,4,9)       =        -0.966831	     -55.395319
	 D(7,10,13,16)    =         1.039188	      59.541060
	 D(7,10,13,17)    =         3.135366	     179.643246
	 D(7,10,13,18)    =        -1.051927	     -60.270989
	 D(8,4,7,10)      =         1.045184	      59.884655
	 D(8,4,7,11)      =        -1.090039	     -62.454662
	 D(8,4,7,12)      =        -3.115402	    -178.499399
	 D(9,4,7,10)      =        -0.980647	     -56.186950
	 D(9,4,7,11)      =        -3.115871	    -178.526267
	 D(9,4,7,12)      =         1.141951	      65.428995
	 D(11,7,10,13)    =        -1.009937	     -57.865119
	 D(11,7,10,14)    =         1.116553	      63.973751
	 D(11,7,10,15)    =         3.141116	     179.972669
	 D(12,7,10,13)    =         1.018731	      58.369003
	 D(12,7,10,14)    =        -3.137965	    -179.792128
	 D(12,7,10,15)    =        -1.113402	     -63.793210
	 D(14,10,13,16)   =        -1.086868	     -62.272974
	 D(14,10,13,17)   =         1.009310	      57.829211
	 D(14,10,13,18)   =         3.105202	     177.914977
	 D(15,10,13,16)   =        -3.108876	    -178.125466
	 D(15,10,13,17)   =        -1.012697	     -58.023281
	 D(15,10,13,18)   =         1.083195	      62.062485

	Current energy   :      -271.2863054473

	Energy change for the previous step:
		Projected    :        -0.0004372717
		Actual       :        -0.0001365312

	Performing BFGS update.
	Previous computed or guess Hessian on step 1.
	Steps to be used in Hessian update: 1
	Taking RFO optimization step.
	Going to follow RFO solution 1.
	Using RFO vector 1.
	Norm of target step-size    0.09372
	Projected energy change by RFO approximation:        -0.0002619011

	Back-transformation to cartesian coordinates...
	Could not converge backtransformation.
	Using first guess instead.

	Back-transformation to cartesian coordinates to adjust frozen coordinates...
	Successfully converged to displaced geometry.

	--- Internal Coordinate Step in ANG or DEG, aJ/ANG or AJ/DEG ---
	 ---------------------------------------------------------------------------
	   Coordinate                Previous        Force       Change         New 
	   ----------                --------       ------       ------       ------
	    1 R(1,2)          =      0.939056    -0.000221     0.000204     0.939259
	    2 R(2,3)          =      1.404088    -0.000606     0.000114     1.404202
	    3 R(3,4)          =      1.519789    -0.015589    -0.002029     1.517760
	    4 R(3,5)          =      1.086955    -0.000421    -0.000005     1.086951
	    5 R(3,6)          =      1.088265     0.001177     0.000215     1.088480
	    6 R(4,7)          =      1.526158    -0.006731    -0.001043     1.525115
	    7 R(4,8)          =      1.086154    -0.001201    -0.000096     1.086058
	    8 R(4,9)          =      1.086863     0.006121     0.000872     1.087735
	    9 R(7,10)         =      1.526062    -0.000373     0.000153     1.526215
	   10 R(7,11)         =      1.082471     0.005101     0.000763     1.083234
	   11 R(7,12)         =      1.088299    -0.001744    -0.000073     1.088225
	   12 R(10,13)        =      1.524903     0.001050     0.000167     1.525070
	   13 R(10,14)        =      1.086676     0.000530     0.000174     1.086850
	   14 R(10,15)        =      1.087126    -0.001213    -0.000059     1.087067
	   15 R(13,16)        =      1.084839    -0.000158     0.000045     1.084884
	   16 R(13,17)        =      1.084135    -0.000161     0.000063     1.084199
	   17 R(13,18)        =      1.085058     0.000080     0.000071     1.085128
	   18 B(1,2,3)        =    110.056566    -0.000004    -0.017850   110.038716
	   19 B(2,3,4)        =    109.772963    -0.000090    -0.213802   109.559161
	   20 B(2,3,5)        =    110.610667     0.000044     0.077855   110.688522
	   21 B(2,3,6)        =    109.724933     0.000057     0.248714   109.973647
	   22 B(3,4,7)        =    114.459871    -0.000055    -0.127793   114.332078
	   23 B(3,4,8)        =    109.186268     0.000012    -0.115942   109.070326
	   24 B(3,4,9)        =    107.032152     0.000007     0.104942   107.137094
	   25 B(4,3,5)        =    109.604333     0.000003    -0.089142   109.515191
	   26 B(4,3,6)        =    109.613732    -0.000025    -0.149633   109.464099
	   27 B(4,7,10)       =    112.873682    -0.000004    -0.022923   112.850759
	   28 B(4,7,11)       =    109.295282     0.000017     0.074467   109.369749
	   29 B(4,7,12)       =    109.207222    -0.000018    -0.070794   109.136428
	   30 B(5,3,6)        =    107.478870     0.000013     0.130092   107.608962
	   31 B(7,4,8)        =    110.838025    -0.000001    -0.212246   110.625778
	   32 B(7,4,9)        =    109.154410     0.000050     0.308977   109.463387
	   33 B(7,10,13)      =    113.033145    -0.000001    -0.009167   113.023978
	   34 B(7,10,14)      =    109.207944     0.000007     0.056888   109.264832
	   35 B(7,10,15)      =    109.593507    -0.000014    -0.095647   109.497860
	   36 B(8,4,9)        =    105.740884    -0.000009     0.070983   105.811867
	   37 B(10,7,11)      =    109.678447    -0.000014    -0.054425   109.624022
	   38 B(10,7,12)      =    109.161798     0.000024     0.125289   109.287087
	   39 B(10,13,16)     =    111.060493     0.000007     0.027553   111.088046
	   40 B(10,13,17)     =    111.304681    -0.000004    -0.016528   111.288154
	   41 B(10,13,18)     =    111.116691     0.000004     0.016584   111.133276
	   42 B(11,7,12)      =    106.417367    -0.000005    -0.053710   106.363657
	   43 B(13,10,14)     =    109.252133    -0.000001     0.032141   109.284273
	   44 B(13,10,15)     =    109.287376     0.000010     0.019496   109.306872
	   45 B(14,10,15)     =    106.239558    -0.000000    -0.003026   106.236532
	   46 B(16,13,17)     =    107.787841    -0.000002    -0.005496   107.782345
	   47 B(16,13,18)     =    107.657643    -0.000006    -0.018405   107.639239
	   48 B(17,13,18)     =    107.744949    -0.000001    -0.005334   107.739615
	   49 D(1,2,3,4)      =    179.849509    -0.000001     0.487127   180.336636
	   50 D(1,2,3,5)      =    -59.077774    -0.000007     0.286176   -58.791598
	   51 D(1,2,3,6)      =     59.329716     0.000010     0.650353    59.980069
	   52 D(2,3,4,7)      =    -54.894604     0.000007     0.466176   -54.428428
	   53 *D(2,3,4,8)     =     70.000004    -0.000000    -0.000000    70.000004
	   54 D(2,3,4,9)      =   -175.982448    -0.000000     0.080116  -175.902332
	   55 D(3,4,7,10)     =   -176.097529    -0.000006    -1.922238  -178.019767
	   56 D(3,4,7,11)     =     61.563154    -0.000004    -1.890533    59.672621
	   57 D(3,4,7,12)     =    -54.481584    -0.000002    -1.828114   -56.309698
	   58 D(4,7,10,13)    =   -179.989391    -0.000001     0.362663  -179.626729
	   59 D(4,7,10,14)    =    -58.150522    -0.000001     0.438411   -57.712110
	   60 D(4,7,10,15)    =     57.848397    -0.000002     0.413242    58.261638
	   61 D(5,3,4,7)      =   -176.571489     0.000008     0.562944  -176.008545
	   62 D(5,3,4,8)      =    -51.676881     0.000000     0.096768   -51.580113
	   63 D(5,3,4,9)      =     62.340667     0.000000     0.176884    62.517551
	   64 D(6,3,4,7)      =     65.692525     0.000007     0.545523    66.238049
	   65 D(6,3,4,8)      =   -169.412867    -0.000000     0.079347  -169.333520
	   66 D(6,3,4,9)      =    -55.395319    -0.000000     0.159464   -55.235856
	   67 D(7,10,13,16)   =     59.541060     0.000002     0.255828    59.796888
	   68 D(7,10,13,17)   =    179.643246     0.000002     0.256344   179.899589
	   69 D(7,10,13,18)   =    -60.270989     0.000002     0.249659   -60.021329
	   70 D(8,4,7,10)     =     59.884655     0.000000    -1.500791    58.383864
	   71 D(8,4,7,11)     =    -62.454662     0.000002    -1.469086   -63.923747
	   72 D(8,4,7,12)     =   -178.499399     0.000004    -1.406667  -179.906066
	   73 D(9,4,7,10)     =    -56.186950    -0.000004    -1.648148   -57.835099
	   74 D(9,4,7,11)     =   -178.526267    -0.000002    -1.616443  -180.142710
	   75 D(9,4,7,12)     =     65.428995    -0.000001    -1.554025    63.874971
	   76 D(11,7,10,13)   =    -57.865119     0.000001     0.403241   -57.461877
	   77 D(11,7,10,14)   =     63.973751     0.000002     0.478990    64.452741
	   78 D(11,7,10,15)   =    179.972669     0.000001     0.453820   180.426489
	   79 D(12,7,10,13)   =     58.369003     0.000001     0.379311    58.748314
	   80 D(12,7,10,14)   =   -179.792128     0.000001     0.455060  -179.337068
	   81 D(12,7,10,15)   =    -63.793210     0.000000     0.429890   -63.363319
	   82 D(14,10,13,16)  =    -62.272974    -0.000000     0.166163   -62.106812
	   83 D(14,10,13,17)  =     57.829211    -0.000000     0.166678    57.995890
	   84 D(14,10,13,18)  =    177.914977    -0.000000     0.159994   178.074971
	   85 D(15,10,13,16)  =   -178.125466    -0.000001     0.140949  -177.984517
	   86 D(15,10,13,17)  =    -58.023281    -0.000001     0.141465   -57.881816
	   87 D(15,10,13,18)  =     62.062485    -0.000001     0.134781    62.197266
	 ---------------------------------------------------------------------------
	Successfully symmetrized geometry.

  ==> Convergence Check <==

  Measures of convergence in internal coordinates in au.
  Criteria marked as inactive (o), active & met (*), and active & unmet ( ).
  ---------------------------------------------------------------------------------------------
   Step     Total Energy     Delta E     MAX Force     RMS Force      MAX Disp      RMS Disp   
  ---------------------------------------------------------------------------------------------
    Convergence Criteria    1.00e-06 *    3.00e-04 *             o    1.20e-03 *             o
  ---------------------------------------------------------------------------------------------
      2    -271.28630545   -1.37e-04      1.89e-03      3.48e-04 o    3.35e-02      1.00e-02 o  ~
  ---------------------------------------------------------------------------------------------

	Writing optimization data to binary file.
	Structure for next step:
	Cartesian Geometry (in Angstrom)
	    H    -3.0934563974  -1.2686979176   0.1473840226
	    O    -2.2522783878  -0.9697451814  -0.1446005784
	    C    -2.0419237701   0.3552024770   0.2701859841
	    C    -0.6840649002   0.8297656583  -0.2141742378
	    H    -2.8164645770   1.0083685691  -0.1234156193
	    H    -2.0809600877   0.4154356983   1.3562969540
	    C     0.4785391705  -0.0677675270   0.1966326234
	    H    -0.7135973096   0.9476235849  -1.2934141494
	    H    -0.5310234471   1.8283833934   0.1889494528
	    C     1.8314488639   0.4656575511  -0.2664287476
	    H     0.3233567464  -1.0623792372  -0.2034457060
	    H     0.4843718879  -0.1705419298   1.2799781756
	    C     2.9961160945  -0.4335937033   0.1344899332
	    H     1.8212323898   0.5792802232  -1.3472747820
	    H     1.9883555383   1.4606542486   0.1423219874
	    H     2.8862947977  -1.4264892947  -0.2886781065
	    H     3.9417124669  -0.0298068868  -0.2094441088
	    H     3.0548027943  -0.5403557753   1.2127575520
			--------------------------
			 OPTKING Finished Execution 
			--------------------------

    Structure for next step:
    Molecular point group: c1
    Full point group: C1

    Geometry (in Angstrom), charge = 0, multiplicity = 1:

    H           -3.096205959313    -1.269098466393     0.147334598264
    O           -2.255027949684    -0.970145730131    -0.144650002722
    C           -2.044673332059     0.354801928270     0.270136559799
    C           -0.686814462100     0.829365109553    -0.214223662111
    H           -2.819214138976     1.007968020327    -0.123465043678
[...]
	             0.0000140062        0.0000019575       -0.0000160162
	             0.0000119956       -0.0000042250       -0.0000173333
	            -0.0000100600       -0.0000088382        0.0000246398
	            -0.0000057459       -0.0000094970       -0.0000027394
	             0.0000017754        0.0000025890        0.0000063065
	            -0.0000032432       -0.0000091624       -0.0000010217
	            -0.0000025412        0.0000069305       -0.0000097434

	---Fragment 1 Intrafragment Coordinates---
	 - Coordinate -           - BOHR/RAD -       - ANG/DEG -
	 R(1,2)           =         1.774514	       0.939032
	 R(2,3)           =         2.652856	       1.403831
	 R(3,4)           =         2.867919	       1.517637
	 R(3,5)           =         2.053762	       1.086804
	 R(3,6)           =         2.056918	       1.088474
	 R(4,7)           =         2.881499	       1.524823
	 R(4,8)           =         2.052445	       1.086107
	 R(4,9)           =         2.055706	       1.087833
	 R(7,10)          =         2.883759	       1.526020
	 R(7,11)          =         2.046898	       1.083172
	 R(7,12)          =         2.056178	       1.088083
	 R(10,13)         =         2.881876	       1.525023
	 R(10,14)         =         2.053496	       1.086663
	 R(10,15)         =         2.054071	       1.086967
	 R(13,16)         =         2.049992	       1.084809
	 R(13,17)         =         2.048681	       1.084115
	 R(13,18)         =         2.050459	       1.085056
	 B(1,2,3)         =         1.921133	     110.072816
	 B(2,3,4)         =         1.912229	     109.562654
	 B(2,3,5)         =         1.930626	     110.616734
	 B(2,3,6)         =         1.919253	     109.965105
	 B(3,4,7)         =         1.994956	     114.302583
	 B(3,4,8)         =         1.903101	     109.039653
	 B(3,4,9)         =         1.871127	     107.207702
	 B(4,3,5)         =         1.911745	     109.534937
	 B(4,3,6)         =         1.911569	     109.524829
	 B(4,7,10)        =         1.970444	     112.898117
	 B(4,7,11)        =         1.908225	     109.333231
	 B(4,7,12)        =         1.905205	     109.160221
	 B(5,3,6)         =         1.878091	     107.606688
	 B(7,4,8)         =         1.929792	     110.568955
	 B(7,4,9)         =         1.910725	     109.476473
	 B(7,10,13)       =         1.973010	     113.045145
	 B(7,10,14)       =         1.906360	     109.226384
	 B(7,10,15)       =         1.911216	     109.504623
	 B(8,4,9)         =         1.847519	     105.855032
	 B(10,7,11)       =         1.913321	     109.625227
	 B(10,7,12)       =         1.906793	     109.251177
	 B(10,13,16)      =         1.938806	     111.085396
	 B(10,13,17)      =         1.942474	     111.295537
	 B(10,13,18)      =         1.939650	     111.133735
	 B(11,7,12)       =         1.856348	     106.360914
	 B(13,10,14)      =         1.907346	     109.282881
	 B(13,10,15)      =         1.907912	     109.315286
	 B(14,10,15)      =         1.854217	     106.238836
	 B(16,13,17)      =         1.881134	     107.781036
	 B(16,13,18)      =         1.878600	     107.635866
	 B(17,13,18)      =         1.880396	     107.738768
	 D(1,2,3,4)       =        -3.127102	    -179.169739
	 D(1,2,3,5)       =        -1.017824	     -58.316993
	 D(1,2,3,6)       =         1.054212	      60.401895
	 D(2,3,4,7)       =        -0.947855	     -54.308119
	*D(2,3,4,8)       =         1.221731	      70.000004
	 D(2,3,4,9)       =        -3.068822	    -175.830576
	 D(3,4,7,10)      =        -3.105630	    -177.939470
	 D(3,4,7,11)      =         1.042754	      59.745398
	 D(3,4,7,12)      =        -0.981339	     -56.226603
	 D(4,7,10,13)     =        -3.139137	    -179.859328
	 D(4,7,10,14)     =        -1.011589	     -57.959797
	 D(4,7,10,15)     =         1.012270	      57.998827
	 D(5,3,4,7)       =        -3.068537	    -175.814231
	 D(5,3,4,8)       =        -0.898951	     -51.506108
	 D(5,3,4,9)       =         1.093681	      62.663312
	 D(6,3,4,7)       =         1.158687	      66.387868
	 D(6,3,4,8)       =        -2.954912	    -169.304009
	 D(6,3,4,9)       =        -0.962280	     -55.134589
	 D(7,10,13,16)    =         1.041717	      59.685993
	 D(7,10,13,17)    =         3.137931	     179.790209
	 D(7,10,13,18)    =        -1.049406	     -60.126507
	 D(8,4,7,10)      =         1.022275	      58.572040
	 D(8,4,7,11)      =        -1.112527	     -63.743092
	 D(8,4,7,12)      =        -3.136620	    -179.715093
	 D(9,4,7,10)      =        -1.006605	     -57.674223
	 D(9,4,7,11)      =        -3.141407	    -179.989356
	 D(9,4,7,12)      =         1.117685	      64.038644
	 D(11,7,10,13)    =        -1.007194	     -57.707994
	 D(11,7,10,14)    =         1.120354	      64.191537
	 D(11,7,10,15)    =        -3.138972	    -179.849839
	 D(12,7,10,13)    =         1.020653	      58.479132
	 D(12,7,10,14)    =        -3.134984	    -179.621337
	 D(12,7,10,15)    =        -1.111124	     -63.662713
	 D(14,10,13,16)   =        -1.085277	     -62.181813
	 D(14,10,13,17)   =         1.010937	      57.922404
	 D(14,10,13,18)   =         3.106785	     178.005687
	 D(15,10,13,16)   =        -3.107842	    -178.066202
	 D(15,10,13,17)   =        -1.011627	     -57.961986
	 D(15,10,13,18)   =         1.084221	      62.121298

	Current energy   :      -271.2863413502

	Energy change for the previous step:
		Projected    :        -0.0000028242
		Actual       :        -0.0000003406
	Energy ratio indicates iffy step: Trust radius decreased to 7.812e-03.


	Performing BFGS update.
	Previous computed or guess Hessian on step 1.
	Steps to be used in Hessian update: 4 3
	Taking RFO optimization step.
	Going to follow RFO solution 1.
	Using RFO vector 1.
	Norm of target step-size    0.00441
	Projected energy change by RFO approximation:        -0.0000003279

	Back-transformation to cartesian coordinates...
	Successfully converged to displaced geometry.

	Back-transformation to cartesian coordinates to adjust frozen coordinates...
	Successfully converged to displaced geometry.

	--- Internal Coordinate Step in ANG or DEG, aJ/ANG or AJ/DEG ---
	 ---------------------------------------------------------------------------
	   Coordinate                Previous        Force       Change         New 
	   ----------                --------       ------       ------       ------
	    1 R(1,2)          =      0.939032     0.000217     0.000015     0.939047
	    2 R(2,3)          =      1.403831     0.000364     0.000036     1.403867
	    3 R(3,4)          =      1.517637     0.000038     0.000007     1.517644
	    4 R(3,5)          =      1.086804     0.000161     0.000022     1.086826
	    5 R(3,6)          =      1.088474     0.000058     0.000009     1.088483
	    6 R(4,7)          =      1.524823     0.000305     0.000046     1.524870
	    7 R(4,8)          =      1.086107    -0.000057    -0.000004     1.086103
	    8 R(4,9)          =      1.087833    -0.000183    -0.000027     1.087806
	    9 R(7,10)         =      1.526020     0.000106     0.000018     1.526037
	   10 R(7,11)         =      1.083172     0.000054     0.000006     1.083178
	   11 R(7,12)         =      1.088083     0.000132     0.000019     1.088102
	   12 R(10,13)        =      1.525023    -0.000021    -0.000009     1.525014
	   13 R(10,14)        =      1.086663     0.000209     0.000027     1.086691
	   14 R(10,15)        =      1.086967     0.000087     0.000011     1.086978
	   15 R(13,16)        =      1.084809     0.000041     0.000006     1.084814
	   16 R(13,17)        =      1.084115     0.000049     0.000006     1.084121
	   17 R(13,18)        =      1.085056     0.000086     0.000010     1.085066
	   18 B(1,2,3)        =    110.072816    -0.000001    -0.002623   110.070194
	   19 B(2,3,4)        =    109.562654    -0.000002    -0.004280   109.558374
	   20 B(2,3,5)        =    110.616734     0.000002     0.017082   110.633817
	   21 B(2,3,6)        =    109.965105     0.000002     0.003092   109.968196
	   22 B(3,4,7)        =    114.302583     0.000000    -0.000102   114.302481
	   23 B(3,4,8)        =    109.039653     0.000000     0.002181   109.041835
	   24 B(3,4,9)        =    107.207702    -0.000001    -0.007740   107.199962
	   25 B(4,3,5)        =    109.534937    -0.000001    -0.003996   109.530941
	   26 B(4,3,6)        =    109.524829    -0.000001    -0.008757   109.516072
	   27 B(4,7,10)       =    112.898117    -0.000002    -0.004077   112.894040
	   28 B(4,7,11)       =    109.333231     0.000002     0.005625   109.338856
	   29 B(4,7,12)       =    109.160221    -0.000001    -0.004082   109.156139
	   30 B(5,3,6)        =    107.606688    -0.000000    -0.003338   107.603351
	   31 B(7,4,8)        =    110.568955    -0.000000     0.005252   110.574207
	   32 B(7,4,9)        =    109.476473     0.000001     0.001415   109.477888
	   33 B(7,10,13)      =    113.045145    -0.000002    -0.004228   113.040917
	   34 B(7,10,14)      =    109.226384     0.000001     0.009934   109.236318
	   35 B(7,10,15)      =    109.504623     0.000000    -0.002542   109.502081
	   36 B(8,4,9)        =    105.855032     0.000000    -0.001524   105.853508
	   37 B(10,7,11)      =    109.625227    -0.000000    -0.000153   109.625073
	   38 B(10,7,12)      =    109.251177     0.000001     0.003598   109.254775
	   39 B(10,13,16)     =    111.085396    -0.000000    -0.001161   111.084234
	   40 B(10,13,17)     =    111.295537    -0.000001    -0.002485   111.293052
	   41 B(10,13,18)     =    111.133735     0.000001     0.002367   111.136102
	   42 B(11,7,12)      =    106.360914    -0.000000    -0.000742   106.360172
	   43 B(13,10,14)     =    109.282881     0.000000     0.003509   109.286390
	   44 B(13,10,15)     =    109.315286     0.000000    -0.005438   109.309848
	   45 B(14,10,15)     =    106.238836    -0.000000    -0.001013   106.237823
	   46 B(16,13,17)     =    107.781036     0.000000     0.000861   107.781896
	   47 B(16,13,18)     =    107.635866    -0.000000     0.000416   107.636282
	   48 B(17,13,18)     =    107.738768    -0.000000     0.000088   107.738856
	   49 D(1,2,3,4)      =   -179.169739     0.000000     0.049347  -179.120392
	   50 D(1,2,3,5)      =    -58.316993    -0.000000     0.052498   -58.264495
	   51 D(1,2,3,6)      =     60.401895     0.000000     0.060917    60.462812
	   52 D(2,3,4,7)      =    -54.308119    -0.000000    -0.008542   -54.316661
	   53 *D(2,3,4,8)     =     70.000004    -0.000000     0.000000    70.000004
	   54 D(2,3,4,9)      =   -175.830576    -0.000000    -0.004705  -175.835281
	   55 D(3,4,7,10)     =   -177.939470     0.000000     0.015872  -177.923598
	   56 D(3,4,7,11)     =     59.745398     0.000000     0.014791    59.760189
	   57 D(3,4,7,12)     =    -56.226603     0.000000     0.014829   -56.211774
	   58 D(4,7,10,13)    =   -179.859328    -0.000000    -0.052986  -179.912314
	   59 D(4,7,10,14)    =    -57.959797    -0.000000    -0.044218   -58.004015
	   60 D(4,7,10,15)    =     57.998827    -0.000000    -0.041258    57.957569
	   61 D(5,3,4,7)      =   -175.814231    -0.000000    -0.024411  -175.838642
	   62 D(5,3,4,8)      =    -51.506108    -0.000000    -0.015869   -51.521976
	   63 D(5,3,4,9)      =     62.663312    -0.000000    -0.020573    62.642739
	   64 D(6,3,4,7)      =     66.387868     0.000000    -0.012866    66.375002
	   65 D(6,3,4,8)      =   -169.304009     0.000000    -0.004323  -169.308333
	   66 D(6,3,4,9)      =    -55.134589     0.000000    -0.009028   -55.143618
	   67 D(7,10,13,16)   =     59.685993     0.000000     0.070200    59.756192
	   68 D(7,10,13,17)   =    179.790209     0.000000     0.068837   179.859046
	   69 D(7,10,13,18)   =    -60.126507     0.000000     0.068873   -60.057634
	   70 D(8,4,7,10)     =     58.572040     0.000000     0.008903    58.580943
	   71 D(8,4,7,11)     =    -63.743092     0.000000     0.007822   -63.735270
	   72 D(8,4,7,12)     =   -179.715093     0.000000     0.007860  -179.707233
	   73 D(9,4,7,10)     =    -57.674223    -0.000000     0.006873   -57.667351
	   74 D(9,4,7,11)     =   -179.989356    -0.000000     0.005792  -179.983564
	   75 D(9,4,7,12)     =     64.038644    -0.000000     0.005830    64.044474
	   76 D(11,7,10,13)   =    -57.707994    -0.000000    -0.048671   -57.756665
	   77 D(11,7,10,14)   =     64.191537    -0.000000    -0.039904    64.151634
	   78 D(11,7,10,15)   =   -179.849839     0.000000    -0.036944  -179.886782
	   79 D(12,7,10,13)   =     58.479132    -0.000000    -0.047602    58.431530
	   80 D(12,7,10,14)   =   -179.621337     0.000000    -0.038835  -179.660172
	   81 D(12,7,10,15)   =    -63.662713     0.000000    -0.035875   -63.698588
	   82 D(14,10,13,16)  =    -62.181813    -0.000000     0.057823   -62.123990
	   83 D(14,10,13,17)  =     57.922404    -0.000000     0.056460    57.978864
	   84 D(14,10,13,18)  =    178.005687    -0.000000     0.056496   178.062183
	   85 D(15,10,13,16)  =   -178.066202     0.000000     0.060114  -178.006088
	   86 D(15,10,13,17)  =    -57.961986     0.000000     0.058752   -57.903234
	   87 D(15,10,13,18)  =     62.121298     0.000000     0.058788    62.180085
	 ---------------------------------------------------------------------------
	Successfully symmetrized geometry.

  ==> Convergence Check <==

  Measures of convergence in internal coordinates in au.
  Criteria marked as inactive (o), active & met (*), and active & unmet ( ).
  ---------------------------------------------------------------------------------------------
   Step     Total Energy     Delta E     MAX Force     RMS Force      MAX Disp      RMS Disp   
  ---------------------------------------------------------------------------------------------
    Convergence Criteria    1.00e-06 *    3.00e-04 *             o    1.20e-03 *             o
  ---------------------------------------------------------------------------------------------
      5    -271.28634135   -3.41e-07 *    4.42e-05 *    1.28e-05 o    1.23e-03      4.73e-04 o  ~
  ---------------------------------------------------------------------------------------------


  **** Optimization is complete! (in 5 steps) ****

  ==> Optimization Summary <==

  Measures of convergence in internal coordinates in au.
  --------------------------------------------------------------------------------------------------------------- ~
   Step         Total Energy             Delta E       MAX Force       RMS Force        MAX Disp        RMS Disp  ~
  --------------------------------------------------------------------------------------------------------------- ~
      1    -271.286168916040   -271.286168916040      0.00244900      0.00052774      0.08068919      0.02412631  ~
      2    -271.286305447267     -0.000136531227      0.00189215      0.00034837      0.03354937      0.01004764  ~
      3    -271.286339610777     -0.000034163509      0.00029250      0.00006496      0.00945800      0.00350231  ~
      4    -271.286341009641     -0.000001398864      0.00005521      0.00001663      0.00509190      0.00174388  ~
      5    -271.286341350244     -0.000000340603      0.00004421      0.00001278      0.00122521      0.00047306  ~
  --------------------------------------------------------------------------------------------------------------- ~

	Writing optimization data to binary file.
	Final energy is   -271.2863413502440
	Final (previous) structure:
	Cartesian Geometry (in Angstrom)
	    H    -3.0975546164  -1.2680647737   0.1408432956
	    O    -2.2538538877  -0.9705406992  -0.1445162600
	    C    -2.0444596669   0.3541699181   0.2702581697
	    C    -0.6871851919   0.8298470495  -0.2142621118
	    H    -2.8198652827   1.0057003476  -0.1239458648
	    H    -2.0845989978   0.4143149796   1.3563280598
	    C     0.4751625681  -0.0686639501   0.1940418238
	    H    -0.7175777837   0.9476588767  -1.2935328021
	    H    -0.5330983872   1.8281695805   0.1894575524
	    C     1.8285448708   0.4651972055  -0.2664843433
	    H     0.3195048614  -1.0618426468  -0.2092289211
	    H     0.4810679877  -0.1750027763   1.2768997594
	    C     2.9932318597  -0.4327135458   0.1371933030
	    H     1.8199227289   0.5775908334  -1.3472853204
	    H     1.9838714115   1.4606844462   0.1414086923
	    H     2.8840961560  -1.4264559713  -0.2839664343
	    H     3.9389241933  -0.0293938503  -0.2067617295
	    H     3.0510830907  -0.5372685164   1.2156496768
	Saving final (previous) structure.
			--------------------------
			 OPTKING Finished Execution 
			--------------------------

    Final optimized geometry and variables:
    Molecular point group: c1
    Full point group: C1

    Geometry (in Angstrom), charge = 0, multiplicity = 1:

    H           -3.097554616424    -1.268064773691     0.140843295616
    O           -2.253853887732    -0.970540699209    -0.144516260039
    C           -2.044459666907     0.354169918135     0.270258169738
    C           -0.687185191897     0.829847049473    -0.214262111776
    H           -2.819865282703     1.005700347601    -0.123945864768
    H           -2.084598997763     0.414314979604     1.356328059831
    C            0.475162568081    -0.068663950144     0.194041823777
    H           -0.717577783737     0.947658876727    -1.293532802101
    H           -0.533098387161     1.828169580488     0.189457552408
    C            1.828544870791     0.465197205464    -0.266484343307
    H            0.319504861444    -1.061842646789    -0.209228921112
    H            0.481067987664    -0.175002776324     1.276899759434
    C            2.993231859739    -0.432713545810     0.137193303043
    H            1.819922728863     0.577590833357    -1.347285320432
    H            1.983871411549     1.460684446233     0.141408692263
    H            2.884096156009    -1.426455971324    -0.283966434268
    H            3.938924193319    -0.029393850309    -0.206761729503
    H            3.051083090697    -0.537268516411     1.215649676768

	Cleaning optimization helper files.


Properties will be evaluated at   0.000000,   0.000000,   0.000000 Bohr

Properties computed using the  density matrix

  Nuclear Dipole Moment: (a.u.)
     X:     4.8882      Y:     1.6229      Z:     0.8017

  Electronic Dipole Moment: (a.u.)
     X:    -5.3321      Y:    -1.3156      Z:    -0.5007

  Dipole Moment: (a.u.)
     X:    -0.4440      Y:     0.3073      Z:     0.3010     Total:     0.6181

  Dipole Moment: (Debye)
     X:    -1.1285      Y:     0.7810      Z:     0.7650     Total:     1.5712

  Quadrupole Moment: (Debye Ang)
    XX:   -34.4862     YY:   -40.6207     ZZ:   -40.0602
    XY:     0.3991     XZ:    -2.2699     YZ:    -0.5163

  Traceless Quadrupole Moment: (Debye Ang)
    XX:     3.9028     YY:    -2.2317     ZZ:    -1.6712
    XY:     0.3991     XZ:    -2.2699     YZ:    -0.5163

  Mulliken Charges: (a.u.)
   Center  Symbol    Alpha    Beta     Spin     Total
       1     H     0.39589  0.39589  0.00000  0.20821
       2     O     4.19794  4.19794  0.00000 -0.39588
       3     C     2.97432  2.97432  0.00000  0.05137
       4     C     3.09155  3.09155  0.00000 -0.18309
       5     H     0.46563  0.46563  0.00000  0.06874
       6     H     0.47327  0.47327  0.00000  0.05346
       7     C     3.08486  3.08486  0.00000 -0.16973
       8     H     0.45292  0.45292  0.00000  0.09416
       9     H     0.45613  0.45613  0.00000  0.08773
      10     C     3.08375  3.08375  0.00000 -0.16749
      11     H     0.44303  0.44303  0.00000  0.11394
      12     H     0.45938  0.45938  0.00000  0.08124
      13     C     3.14974  3.14974  0.00000 -0.29949
      14     H     0.45490  0.45490  0.00000  0.09021
      15     H     0.45682  0.45682  0.00000  0.08636
      16     H     0.45442  0.45442  0.00000  0.09116
      17     H     0.44952  0.44952  0.00000  0.10096
      18     H     0.45593  0.45593  0.00000  0.08814

   Total alpha = 25.00000, Total beta = 25.00000, Total charge = -0.00000


*** Psi4 exiting successfully. Buy a developer a beer!
