    -----------------------------------------------------------------------
          Psi4: An Open-Source Ab Initio Electronic Structure Package
                              Psi4 1.0.54 Driver

                          Git: Rev {master} 8d4cec3 dirty

    J. M. Turney, A. C. Simmonett, R. M. Parrish, E. G. Hohenstein,
    F. A. Evangelista, J. T. Fermann, B. J. Mintz, L. A. Burns, J. J. Wilke,
    M. L. Abrams, N. J. Russ, M. L. Leininger, C. L. Janssen, E. T. Seidl,
    W. D. Allen, H. F. Schaefer, R. A. King, E. F. Valeev, C. D. Sherrill,
    and T. D. Crawford, WIREs Comput. Mol. Sci. 2, 556-565 (2012)
    (doi: 10.1002/wcms.93)

                         Additional Contributions by
    A. E. DePrince, U. Bozkaya, A. Yu. Sokolov, D. G. A. Smith, R. Di Remigio,
    R. M. Richard, J. F. Gonthier, H. R. McAlexander, M. Saitow, and
    B. P. Pritchard
    -----------------------------------------------------------------------


    Psi4 started on: Sat Sep 10 15:50:13 2016

    Process ID:  46777
    PSI4DATADIR: /export131/home/mjharvey/miniconda3/share/psi4
    Memory level set to 256.000 MB

  ==> Input File <==

--------------------------------------------------------------------------
set {
	reference rhf
	basis cc-pvtz
}


set_num_threads( 4 )
memory 2 gb

molecule MOL {
0 1

H	 -2.830262	 0.333238	 -0.228236
O	 -2.041679	 -0.058866	 0.103463
C	 -0.959304	 0.780994	 -0.094939
C	 0.354905	 0.037902	 -0.006215
H	 -0.985899	 1.279578	 -1.057596
H	 -0.969809	 1.529522	 0.682889
F	 0.412060	 -0.931028	 -0.902708
F	 1.359641	 0.856111	 -0.239961
F	 0.545380	 -0.506387	 1.171682

	symmetry c1
}
set optking {
	frozen_dihedral = ("
		1 2 3 5
	")
}

ee,wfn = optimize('scf', return_wfn=True)
oeprop( wfn, 'DIPOLE', 'QUADRUPOLE', 'MULLIKEN_CHARGES')
f=open( 'psi4out.xyz', 'w' )
f.write( "9  " )
f.write( str(ee) + "\n" )
f.write( MOL.save_string_xyz() )
f.close()
--------------------------------------------------------------------------

  Memory set to   2.000 GiB by Python script.
gradient() will perform analytic gradient computation.

*** tstart() called on cx1-27-3-4
*** at Sat Sep 10 15:50:14 2016


         ---------------------------------------------------------
                                   SCF
            by Justin Turney, Rob Parrish, and Andy Simmonett
                              RHF Reference
                        4 Threads,   2000 MiB Core
         ---------------------------------------------------------

  ==> Geometry <==

    Molecular point group: c1
    Full point group: C1

    Geometry (in Angstrom), charge = 0, multiplicity = 1:

       Center              X                  Y                   Z               Mass       
    ------------   -----------------  -----------------  -----------------  -----------------
           H         -2.823144462805     0.323156626366    -0.232081211832     1.007825032070
           O         -2.034561462805    -0.068947373634     0.099617788168    15.994914619560
           C         -0.952186462805     0.770912626366    -0.098784211832    12.000000000000
           C          0.362022537195     0.027820626366    -0.010060211832    12.000000000000
           H         -0.978781462805     1.269496626366    -1.061441211832     1.007825032070
           H         -0.962691462805     1.519440626366     0.679043788168     1.007825032070
           F          0.419177537195    -0.941109373634    -0.906553211832    18.998403224000
           F          1.366758537195     0.846029626366    -0.243806211832    18.998403224000
           F          0.552497537195    -0.516468373634     1.167836788168    18.998403224000

  Running in c1 symmetry.

  Rotational constants: A =      0.18469  B =      0.09489  C =      0.09354 [cm^-1]
  Rotational constants: A =   5536.93307  B =   2844.64580  C =   2804.35813 [MHz]
  Nuclear repulsion =  276.700379980066714

  Charge       = 0
  Multiplicity = 1
  Electrons    = 50
  Nalpha       = 25
  Nbeta        = 25

  ==> Algorithm <==

  SCF Algorithm Type is DF.
  DIIS enabled.
  MOM disabled.
  Fractional occupation disabled.
  Guess Type is SAD.
  Energy threshold   = 1.00e-08
  Density threshold  = 1.00e-08
  Integral threshold = 0.00e+00

  ==> Primary Basis <==

  Basis Set: CC-PVTZ
    Number of shells: 78
    Number of basis function: 222
    Number of Cartesian functions: 255
    Spherical Harmonics?: true
    Max angular momentum: 3

  ==> Pre-Iterations <==

   -------------------------------------------------------
    Irrep   Nso     Nmo     Nalpha   Nbeta   Ndocc  Nsocc
   -------------------------------------------------------
     A        222     222       0       0       0       0
   -------------------------------------------------------
    Total     222     222      25      25      25       0
   -------------------------------------------------------

  ==> Integral Setup <==

  ==> DFJK: Density-Fitted J/K Matrices <==

    J tasked:                  Yes
    K tasked:                  Yes
    wK tasked:                  No
    OpenMP threads:              4
    Integrals threads:           4
    Memory (MB):              1430
    Algorithm:                Core
    Integral Cache:           NONE
    Schwarz Cutoff:          1E-12
    Fitting Condition:       1E-12

   => Auxiliary Basis Set <=

  Basis Set: 
    Number of shells: 180
    Number of basis function: 564
    Number of Cartesian functions: 681
    Spherical Harmonics?: true
    Max angular momentum: 4

  Minimum eigenvalue in the overlap matrix is 1.0184519473E-03.
  Using Symmetric Orthogonalization.
  SCF Guess: Superposition of Atomic Densities via on-the-fly atomic UHF.

  ==> Iterations <==

                           Total Energy        Delta E     RMS |[F,P]|

   @DF-RHF iter   0:  -452.85144740884550   -4.52851e+02   1.95183e-02 
   @DF-RHF iter   1:  -450.62505835641173    2.22639e+00   3.13006e-03 
   @DF-RHF iter   2:  -450.79347847749113   -1.68420e-01   1.70516e-03 DIIS
   @DF-RHF iter   3:  -450.83824471459002   -4.47662e-02   3.52607e-04 DIIS
   @DF-RHF iter   4:  -450.84250134634772   -4.25663e-03   1.11955e-04 DIIS
   @DF-RHF iter   5:  -450.84296772184291   -4.66375e-04   2.75889e-05 DIIS
   @DF-RHF iter   6:  -450.84300395866069   -3.62368e-05   7.15261e-06 DIIS
   @DF-RHF iter   7:  -450.84300619349312   -2.23483e-06   2.45554e-06 DIIS
   @DF-RHF iter   8:  -450.84300643341760   -2.39924e-07   9.26345e-07 DIIS
   @DF-RHF iter   9:  -450.84300647033035   -3.69128e-08   2.27230e-07 DIIS
   @DF-RHF iter  10:  -450.84300647376233   -3.43198e-09   5.19529e-08 DIIS
   @DF-RHF iter  11:  -450.84300647392490   -1.62572e-10   1.82598e-08 DIIS
   @DF-RHF iter  12:  -450.84300647394036   -1.54614e-11   5.72223e-09 DIIS

  ==> Post-Iterations <==

    Orbital Energies (a.u.)
    -----------------------

    Doubly Occupied:                                                      

       1A    -26.338072     2A    -26.332279     3A    -26.327783  
       4A    -20.581429     5A    -11.493913     6A    -11.309832  
       7A     -1.742457     8A     -1.641430     9A     -1.634484  
      10A     -1.405774    11A     -1.050637    12A     -0.924213  
      13A     -0.834020    14A     -0.831310    15A     -0.790747  
      16A     -0.738527    17A     -0.714491    18A     -0.705811  
      19A     -0.672027    20A     -0.659936    21A     -0.643033  
      22A     -0.642805    23A     -0.602538    24A     -0.530405  
      25A     -0.480709  

    Virtual:                                                              

      26A      0.124979    27A      0.178940    28A      0.196139  
      29A      0.289723    30A      0.302607    31A      0.343704  
      32A      0.361552    33A      0.405548    34A      0.484584  
      35A      0.489857    36A      0.513367    37A      0.518710  
      38A      0.538347    39A      0.569080    40A      0.605961  
      41A      0.608018    42A      0.625602    43A      0.658863  
      44A      0.686399    45A      0.727650    46A      0.758719  
      47A      0.811303    48A      0.829410    49A      0.847882  
      50A      0.897018    51A      0.908497    52A      0.937038  
      53A      0.983428    54A      1.032790    55A      1.047636  
      56A      1.092440    57A      1.109280    58A      1.117423  
      59A      1.142681    60A      1.150593    61A      1.154352  
      62A      1.167937    63A      1.215603    64A      1.283653  
      65A      1.330802    66A      1.354831    67A      1.363809  
      68A      1.386317    69A      1.433202    70A      1.468014  
      71A      1.490373    72A      1.521044    73A      1.542994  
      74A      1.617623    75A      1.730234    76A      1.777867  
      77A      1.963783    78A      2.009151    79A      2.074503  
      80A      2.124176    81A      2.180019    82A      2.203198  
      83A      2.220684    84A      2.242961    85A      2.257342  
      86A      2.268535    87A      2.306724    88A      2.349199  
      89A      2.364572    90A      2.390362    91A      2.423463  
      92A      2.470977    93A      2.504326    94A      2.627176  
      95A      2.651724    96A      2.687210    97A      2.714616  
      98A      2.784227    99A      2.807774   100A      2.835072  
     101A      2.866695   102A      2.891244   103A      2.988374  
     104A      3.080803   105A      3.139981   106A      3.196276  
     107A      3.231654   108A      3.253156   109A      3.265998  
     110A      3.269781   111A      3.308780   112A      3.341173  
     113A      3.361789   114A      3.391855   115A      3.417261  
     116A      3.450504   117A      3.498224   118A      3.504563  
     119A      3.616150   120A      3.642528   121A      3.660729  
     122A      3.700298   123A      3.721015   124A      3.749112  
     125A      3.754997   126A      3.807849   127A      3.829298  
     128A      3.897825   129A      3.924988   130A      3.950805  
     131A      3.960349   132A      4.000721   133A      4.086762  
     134A      4.120137   135A      4.153591   136A      4.170593  
     137A      4.175165   138A      4.259485   139A      4.288834  
     140A      4.338272   141A      4.371043   142A      4.466163  
     143A      4.474142   144A      4.541553   145A      4.585281  
     146A      4.604540   147A      4.705569   148A      4.802753  
     149A      4.913135   150A      5.070180   151A      5.115635  
     152A      5.146551   153A      5.224201   154A      5.280006  
     155A      5.314488   156A      5.369078   157A      5.393859  
     158A      5.439088   159A      5.495492   160A      5.503932  
     161A      5.554925   162A      5.614213   163A      5.677597  
     164A      5.885007   165A      5.974478   166A      6.038327  
     167A      6.202706   168A      6.243071   169A      6.459399  
     170A      6.561134   171A      6.586680   172A      6.663858  
     173A      7.033575   174A      7.125203   175A      7.194444  
     176A      7.221009   177A      7.319182   178A      7.351429  
     179A      7.361373   180A      7.362974   181A      7.366405  
     182A      7.368572   183A      7.371605   184A      7.377418  
     185A      7.385373   186A      7.414281   187A      7.476762  
     188A      7.522655   189A      7.527911   190A      7.542857  
     191A      7.605040   192A      7.635513   193A      7.639036  
     194A      7.656575   195A      7.882678   196A      7.948594  
     197A      7.962795   198A      8.000952   199A      8.099809  
     200A      8.170439   201A      8.183175   202A      8.907270  
     203A      8.909641   204A      8.936080   205A      9.034546  
     206A      9.035168   207A      9.091665   208A      9.214296  
     209A      9.326082   210A      9.407878   211A      9.411637  
     212A      9.530499   213A      9.683320   214A      9.684201  
     215A      9.736772   216A      9.744539   217A     11.197771  
     218A     12.201967   219A     12.409848   220A     12.625793  
     221A     13.226740   222A     13.791391  

    Final Occupation by Irrep:
              A 
    DOCC [    25 ]

  Energy converged.

  @DF-RHF Final Energy:  -450.84300647394036

   => Energetics <=

    Nuclear Repulsion Energy =            276.7003799800667139
    One-Electron Energy =               -1175.8294416605331207
    Two-Electron Energy =                 448.2860552065260435
    DFT Exchange-Correlation Energy =       0.0000000000000000
    Empirical Dispersion Energy =           0.0000000000000000
    PCM Polarization Energy =               0.0000000000000000
    EFP Energy =                            0.0000000000000000
    Total Energy =                       -450.8430064739403633


  Saving occupied orbitals to File 180.

*** tstop() called on cx1-27-3-4 at Sat Sep 10 15:50:17 2016
Module time:
	user time   =      10.67 seconds =       0.18 minutes
	system time =       0.38 seconds =       0.01 minutes
	total time  =          3 seconds =       0.05 minutes
Total time:
	user time   =      10.67 seconds =       0.18 minutes
	system time =       0.38 seconds =       0.01 minutes
	total time  =          3 seconds =       0.05 minutes


Properties will be evaluated at   0.000000,   0.000000,   0.000000 Bohr

Properties computed using the SCF density matrix

  Nuclear Dipole Moment: (a.u.)
     X:    -6.6824      Y:     3.4941      Z:    -0.5921

  Electronic Dipole Moment: (a.u.)
     X:     5.8084      Y:    -2.5135      Z:     0.2716

  Dipole Moment: (a.u.)
     X:    -0.8740      Y:     0.9806      Z:    -0.3205     Total:     1.3521

  Dipole Moment: (Debye)
     X:    -2.2215      Y:     2.4925      Z:    -0.8147     Total:     3.4367


*** tstart() called on cx1-27-3-4
*** at Sat Sep 10 15:50:17 2016


         ------------------------------------------------------------
                                   SCF GRAD                          
                          Rob Parrish, Justin Turney,                
                       Andy Simmonett, and Alex Sokolov              
         ------------------------------------------------------------

  ==> Geometry <==

    Molecular point group: c1
    Full point group: C1

    Geometry (in Angstrom), charge = 0, multiplicity = 1:

       Center              X                  Y                   Z               Mass       
    ------------   -----------------  -----------------  -----------------  -----------------
           H         -2.823144462805     0.323156626366    -0.232081211832     1.007825032070
           O         -2.034561462805    -0.068947373634     0.099617788168    15.994914619560
           C         -0.952186462805     0.770912626366    -0.098784211832    12.000000000000
           C          0.362022537195     0.027820626366    -0.010060211832    12.000000000000
           H         -0.978781462805     1.269496626366    -1.061441211832     1.007825032070
           H         -0.962691462805     1.519440626366     0.679043788168     1.007825032070
           F          0.419177537195    -0.941109373634    -0.906553211832    18.998403224000
           F          1.366758537195     0.846029626366    -0.243806211832    18.998403224000
           F          0.552497537195    -0.516468373634     1.167836788168    18.998403224000

  Nuclear repulsion =  276.700379980066714

  ==> Basis Set <==

  Basis Set: CC-PVTZ
    Number of shells: 78
    Number of basis function: 222
    Number of Cartesian functions: 255
    Spherical Harmonics?: true
    Max angular momentum: 3

  ==> DFJKGrad: Density-Fitted SCF Gradients <==

    Gradient:                    1
    J tasked:                  Yes
    K tasked:                  Yes
    wK tasked:                  No
    OpenMP threads:              4
    Integrals threads:           4
    Memory (MB):              1430
    Schwarz Cutoff:          0E+00
    Fitting Condition:       1E-12

   => Auxiliary Basis Set <=

  Basis Set: 
    Number of shells: 180
    Number of basis function: 564
    Number of Cartesian functions: 681
    Spherical Harmonics?: true
    Max angular momentum: 4


  -Total Gradient:
     Atom            X                  Y                   Z
    ------   -----------------  -----------------  -----------------
       1       -0.002953431734     0.000429959917    -0.000531597877
       2       -0.001329047631     0.010642274265     0.004052996008
       3        0.005641996905    -0.013169074602    -0.004789695661
       4        0.006228794094     0.012585103535     0.005987276639
       5       -0.001323878857     0.002004954879     0.000401860297
       6       -0.007740988715    -0.005959104383    -0.000335415908
       7       -0.001499953064    -0.004087144950    -0.003022267595
       8        0.002813910499    -0.001243844397    -0.000891665537
       9        0.000162598502    -0.001203124268    -0.000871490363


*** tstop() called on cx1-27-3-4 at Sat Sep 10 15:50:20 2016
Module time:
	user time   =      10.70 seconds =       0.18 minutes
	system time =       0.32 seconds =       0.01 minutes
	total time  =          3 seconds =       0.05 minutes
Total time:
	user time   =      21.47 seconds =       0.36 minutes
	system time =       0.70 seconds =       0.01 minutes
	total time  =          6 seconds =       0.10 minutes

			-----------------------------------------
			 OPTKING 2.0: for geometry optimizations 
			  - R.A. King,  Bethel University        
			-----------------------------------------

	Internal coordinates to be generated automatically.
	Detected frag 1 with atoms:  1 2 3 4 5 6 7 8 9
	---Fragment 1 Bond Connectivity---
	 1 : 2
	 2 : 1 3
	 3 : 2 4 5 6
	 4 : 3 7 8 9
	 5 : 3
	 6 : 3
	 7 : 4
	 8 : 4
	 9 : 4

	Assuming in current code that numbering for constraints corresponds to unified fragment.
	Frozen dihedral atom list: 
	     1     2     3     5
	---Fragment 1 Geometry and Gradient---
	 H          -5.3349698683        0.6106775219       -0.4385699310
	 O          -3.8447639652       -0.1302916537        0.1882503376
	 C          -1.7993716421        1.4568137362       -0.1866751066
	 C           0.6841234492        0.0525733647       -0.0190110452
	 H          -1.8496289086        2.3990009505       -2.0058331965
	 H          -1.8192232152        2.8713266590        1.2832067919
	 F           0.7921307464       -1.7784389773       -1.7131372953
	 F           2.5827993251        1.5987642941       -0.4607269699
	 F           1.0440690344       -0.9759837825        2.2068916975
	            -0.0029534317        0.0004299599       -0.0005315979
	            -0.0013290476        0.0106422743        0.0040529960
	             0.0056419969       -0.0131690746       -0.0047896957
	             0.0062287941        0.0125851035        0.0059872766
	            -0.0013238789        0.0020049549        0.0004018603
	            -0.0077409887       -0.0059591044       -0.0003354159
	            -0.0014999531       -0.0040871449       -0.0030222676
	             0.0028139105       -0.0012438444       -0.0008916655
	             0.0001625985       -0.0012031243       -0.0008714904

	Previous optimization step data not found.  Starting new optimization.

	---Fragment 1 Intrafragment Coordinates---
	 - Coordinate -           - BOHR/RAD -       - ANG/DEG -
	 R(1,2)           =         1.778385	       0.941081
	 R(2,3)           =         2.615932	       1.384292
	 R(3,4)           =         2.857928	       1.512350
	 R(3,5)           =         2.049287	       1.084436
	 R(3,6)           =         2.040047	       1.079547
	 R(4,7)           =         2.496865	       1.321284
	 R(4,8)           =         2.488130	       1.316662
	 R(4,9)           =         2.478333	       1.311477
	 B(1,2,3)         =         1.930388	     110.603079
	 B(2,3,4)         =         1.952976	     111.897290
	 B(2,3,5)         =         1.968167	     112.767666
	 B(2,3,6)         =         1.885778	     108.047109
	 B(3,4,7)         =         1.937032	     110.983742
	 B(3,4,8)         =         1.925555	     110.326169
	 B(3,4,9)         =         1.963642	     112.508420
	 B(4,3,5)         =         1.874749	     107.415192
	 B(4,3,6)         =         1.882703	     107.870956
	 B(5,3,6)         =         1.897134	     108.697761
	 B(7,4,8)         =         1.877843	     107.592463
	 B(7,4,9)         =         1.874196	     107.383500
	 B(8,4,9)         =         1.882333	     107.849764
	 D(1,2,3,4)       =        -2.814044	    -161.232855
	*D(1,2,3,5)       =        -0.698132	     -39.999994
	 D(1,2,3,6)       =         1.399042	      80.159214
	 D(2,3,4,7)       =         1.028115	      58.906630
	 D(2,3,4,8)       =         3.107886	     178.068775
	 D(2,3,4,9)       =        -1.072417	     -61.444986
	 D(5,3,4,7)       =        -1.140937	     -65.370894
	 D(5,3,4,8)       =         0.938834	      53.791250
	 D(5,3,4,9)       =         3.041716	     174.277489
	 D(6,3,4,7)       =         3.100037	     177.619023
	 D(6,3,4,8)       =        -1.103377	     -63.218833
	 D(6,3,4,9)       =         0.999505	      57.267407

	Current energy   :      -450.8430064739

	Generating empirical Hessian (Schlegel '84) for each fragment.
	Taking RFO optimization step.
	Going to follow RFO solution 1.
	Using RFO vector 1.
	Norm of target step-size    0.22304
	Projected energy change by RFO approximation:        -0.0052936578

	Back-transformation to cartesian coordinates...
	Could not converge backtransformation.
	Using first guess instead.

	Back-transformation to cartesian coordinates to adjust frozen coordinates...
	Successfully converged to displaced geometry.

	--- Internal Coordinate Step in ANG or DEG, aJ/ANG or AJ/DEG ---
	 ---------------------------------------------------------------------------
	   Coordinate                Previous        Force       Change         New 
	   ----------                --------       ------       ------       ------
	    1 R(1,2)          =      0.941081    -0.023409    -0.000615     0.940466
	    2 R(2,3)          =      1.384292     0.023599     0.004530     1.388822
	    3 R(3,4)          =      1.512350    -0.031251    -0.005540     1.506810
	    4 R(3,5)          =      1.084436    -0.004923    -0.000211     1.084225
	    5 R(3,6)          =      1.079547     0.035412     0.008754     1.088300
	    6 R(4,7)          =      1.321284    -0.041053    -0.004078     1.317206
	    7 R(4,8)          =      1.316662    -0.012627    -0.001197     1.315464
	    8 R(4,9)          =      1.311477     0.002140     0.000237     1.311715
	    9 B(1,2,3)        =    110.603079    -0.000141    -0.596589   110.006490
	   10 B(2,3,4)        =    111.897290    -0.001131    -4.143010   107.754280
	   11 B(2,3,5)        =    112.767666     0.000248    -0.135126   112.632540
	   12 B(2,3,6)        =    108.047109     0.000816     5.516721   113.563830
	   13 B(3,4,7)        =    110.983742     0.000295     1.195789   112.179530
	   14 B(3,4,8)        =    110.326169    -0.000402    -1.557581   108.768588
	   15 B(3,4,9)        =    112.508420    -0.000082    -0.233755   112.274665
	   16 B(4,3,5)        =    107.415192     0.000332    -1.062548   106.352643
	   17 B(4,3,6)        =    107.870956    -0.000081    -0.599738   107.271217
	   18 B(5,3,6)        =    108.697761    -0.000191     0.174475   108.872236
	   19 B(7,4,8)        =    107.592463     0.000054     0.148388   107.740850
	   20 B(7,4,9)        =    107.383500     0.000020     0.682367   108.065868
	   21 B(8,4,9)        =    107.849764     0.000126    -0.233333   107.616431
	   22 D(1,2,3,4)      =   -161.232855     0.000050     4.245942  -156.986913
	   23 *D(1,2,3,5)     =    -39.999994    -0.000000     0.000000   -39.999994
	   24 D(1,2,3,6)      =     80.159214     0.000107     4.185023    84.344237
	   25 D(2,3,4,7)      =     58.906630    -0.000018     0.272905    59.179535
	   26 D(2,3,4,8)      =    178.068775    -0.000019     0.193747   178.262522
	   27 D(2,3,4,9)      =    -61.444986    -0.000059    -1.305642   -62.750629
	   28 D(5,3,4,7)      =    -65.370894     0.000026     3.549855   -61.821039
	   29 D(5,3,4,8)      =     53.791250     0.000025     3.470698    57.261948
	   30 D(5,3,4,9)      =    174.277489    -0.000015     1.971308   176.248798
	   31 D(6,3,4,7)      =    177.619023     0.000047     4.185172   181.804195
	   32 D(6,3,4,8)      =    -63.218833     0.000046     4.106014   -59.112818
	   33 D(6,3,4,9)      =     57.267407     0.000006     2.606625    59.874031
	 ---------------------------------------------------------------------------
	Successfully symmetrized geometry.

  ==> Convergence Check <==

  Measures of convergence in internal coordinates in au.
  Criteria marked as inactive (o), active & met (*), and active & unmet ( ).
  --------------------------------------------------------------------------------------------- ~
   Step     Total Energy     Delta E     MAX Force     RMS Force      MAX Disp      RMS Disp    ~
  --------------------------------------------------------------------------------------------- ~
    Convergence Criteria    1.00e-06 *    3.00e-04 *             o    1.20e-03 *             o  ~
  --------------------------------------------------------------------------------------------- ~
      1    -450.84300647   -4.51e+02      1.49e-02      4.19e-03 o    9.63e-02      3.88e-02 o  ~
  ---------------------------------------------------------------------------------------------

	Writing optimization data to binary file.
	Structure for next step:
	Cartesian Geometry (in Angstrom)
	    H    -2.7925590219   0.2587082100  -0.2573832626
	    O    -2.0012063646  -0.0886650670   0.1135199083
	    C    -0.9542125408   0.8029642987  -0.0804602262
	    C     0.3327888304   0.0223223941  -0.0118793416
	    H    -0.9777248790   1.2673771690  -1.0599046797
	    H    -0.9002619377   1.5821637070   0.6773888452
	    F     0.3862849020  -0.9291822642  -0.9211691955
	    F     1.3375808308   0.8426971343  -0.2305684272
	    F     0.5184010154  -0.5280539445   1.1642284729
			--------------------------
			 OPTKING Finished Execution 
			--------------------------

    Structure for next step:
    Molecular point group: c1
    Full point group: C1

    Geometry (in Angstrom), charge = 0, multiplicity = 1:

    H           -2.776823015362     0.259282529563    -0.260383517682
    O           -1.985470358050    -0.088090747502     0.110519653219
    C           -0.938476534314     0.803538618210    -0.083460481293
    C            0.348524836942     0.022896713663    -0.014879596613
    H           -0.961988872483     1.267951488498    -1.062904934747
    H           -0.884525931167     1.582738026503     0.674388590112
    F            0.402020908567    -0.928607944721    -0.924169450534
    F            1.353316837327     0.843271453782    -0.233568682255
    F            0.534137021959    -0.527479625010     1.161228217805

gradient() will perform analytic gradient computation.

*** tstart() called on cx1-27-3-4
*** at Sat Sep 10 15:50:21 2016


         ---------------------------------------------------------
                                   SCF
            by Justin Turney, Rob Parrish, and Andy Simmonett
                              RHF Reference
                        4 Threads,   2000 MiB Core
         ---------------------------------------------------------

  ==> Geometry <==

    Molecular point group: c1
    Full point group: C1

    Geometry (in Angstrom), charge = 0, multiplicity = 1:

       Center              X                  Y                   Z               Mass       
    ------------   -----------------  -----------------  -----------------  -----------------
           H         -2.776823015362     0.259282529563    -0.260383517682     1.007825032070
           O         -1.985470358050    -0.088090747502     0.110519653219    15.994914619560
           C         -0.938476534314     0.803538618210    -0.083460481293    12.000000000000
           C          0.348524836942     0.022896713663    -0.014879596613    12.000000000000
           H         -0.961988872483     1.267951488498    -1.062904934747     1.007825032070
           H         -0.884525931167     1.582738026503     0.674388590112     1.007825032070
           F          0.402020908567    -0.928607944721    -0.924169450534    18.998403224000
           F          1.353316837327     0.843271453782    -0.233568682255    18.998403224000
           F          0.534137021959    -0.527479625010     1.161228217805    18.998403224000

  Running in c1 symmetry.

  Rotational constants: A =      0.18322  B =      0.09765  C =      0.09618 [cm^-1]
  Rotational constants: A =   5492.91562  B =   2927.60238  C =   2883.26213 [MHz]
  Nuclear repulsion =  278.074782926682815

  Charge       = 0
  Multiplicity = 1
  Electrons    = 50
  Nalpha       = 25
  Nbeta        = 25

  ==> Algorithm <==

  SCF Algorithm Type is DF.
  DIIS enabled.
  MOM disabled.
  Fractional occupation disabled.
  Guess Type is READ.
  Energy threshold   = 1.00e-08
  Density threshold  = 1.00e-08
  Integral threshold = 0.00e+00

  ==> Primary Basis <==

  Basis Set: CC-PVTZ
    Number of shells: 78
    Number of basis function: 222
    Number of Cartesian functions: 255
    Spherical Harmonics?: true
    Max angular momentum: 3

  ==> Pre-Iterations <==

   -------------------------------------------------------
    Irrep   Nso     Nmo     Nalpha   Nbeta   Ndocc  Nsocc
   -------------------------------------------------------
     A        222     222       0       0       0       0
   -------------------------------------------------------
    Total     222     222      25      25      25       0
   -------------------------------------------------------

  ==> Integral Setup <==

  ==> DFJK: Density-Fitted J/K Matrices <==

    J tasked:                  Yes
    K tasked:                  Yes
    wK tasked:                  No
    OpenMP threads:              4
    Integrals threads:           4
    Memory (MB):              1430
    Algorithm:                Core
    Integral Cache:           NONE
    Schwarz Cutoff:          1E-12
    Fitting Condition:       1E-12

   => Auxiliary Basis Set <=

  Basis Set: 
    Number of shells: 180
    Number of basis function: 564
    Number of Cartesian functions: 681
    Spherical Harmonics?: true
    Max angular momentum: 4

  Minimum eigenvalue in the overlap matrix is 9.9505789050E-04.
  Using Symmetric Orthogonalization.
  SCF Guess: Reading in previously saved MOs, projecting if necessary.

  Using orbitals from previous SCF, no projection.
  Recomputing DOCC and SOCC from number of alpha and beta electrons from previous calculation.
              A 
    DOCC [    25 ]

  ==> Iterations <==

                           Total Energy        Delta E     RMS |[F,P]|

   @DF-RHF iter   0:  -450.84680720865970   -4.50847e+02   4.48803e-04 
   @DF-RHF iter   1:  -450.84398006237200    2.82715e-03   7.10655e-05 
   @DF-RHF iter   2:  -450.84416543126633   -1.85369e-04   2.99602e-05 DIIS
   @DF-RHF iter   3:  -450.84419766475150   -3.22335e-05   1.57619e-05 DIIS
   @DF-RHF iter   4:  -450.84420606764434   -8.40289e-06   3.01921e-06 DIIS
   @DF-RHF iter   5:  -450.84420672389911   -6.56255e-07   7.07846e-07 DIIS
   @DF-RHF iter   6:  -450.84420675888396   -3.49849e-08   1.73451e-07 DIIS
   @DF-RHF iter   7:  -450.84420676020989   -1.32593e-09   6.74729e-08 DIIS
   @DF-RHF iter   8:  -450.84420676033858   -1.28694e-10   1.76262e-08 DIIS
   @DF-RHF iter   9:  -450.84420676035154   -1.29603e-11   4.39604e-09 DIIS

  ==> Post-Iterations <==

    Orbital Energies (a.u.)
    -----------------------

    Doubly Occupied:                                                      

       1A    -26.333887     2A    -26.330447     3A    -26.329236  
       4A    -20.583268     5A    -11.489666     6A    -11.310189  
       7A     -1.741813     8A     -1.639040     9A     -1.635752  
      10A     -1.405790    11A     -1.051397    12A     -0.923071  
      13A     -0.833362    14A     -0.831686    15A     -0.787470  
      16A     -0.738962    17A     -0.713775    18A     -0.704035  
      19A     -0.672154    20A     -0.657693    21A     -0.642604  
      22A     -0.640939    23A     -0.599660    24A     -0.531693  
      25A     -0.484223  

    Virtual:                                                              

      26A      0.126202    27A      0.175832    28A      0.197773  
      29A      0.285783    30A      0.304643    31A      0.348474  
      32A      0.359926    33A      0.407329    34A      0.484957  
      35A      0.486871    36A      0.515169    37A      0.521340  
      38A      0.538451    39A      0.570022    40A      0.600558  
      41A      0.610394    42A      0.629187    43A      0.656839  
      44A      0.688526    45A      0.727362    46A      0.761555  
      47A      0.809395    48A      0.824824    49A      0.846929  
      50A      0.897069    51A      0.909423    52A      0.940937  
      53A      0.986178    54A      1.036422    55A      1.052501  
      56A      1.098278    57A      1.108224    58A      1.129097  
      59A      1.143340    60A      1.148345    61A      1.161515  
      62A      1.178319    63A      1.209731    64A      1.289060  
      65A      1.329580    66A      1.338540    67A      1.361102  
      68A      1.382313    69A      1.413852    70A      1.460110  
      71A      1.490070    72A      1.521475    73A      1.543406  
      74A      1.606173    75A      1.728966    76A      1.797100  
      77A      1.977949    78A      2.022537    79A      2.066647  
      80A      2.134697    81A      2.177967    82A      2.213731  
      83A      2.225093    84A      2.245929    85A      2.257212  
      86A      2.266136    87A      2.299878    88A      2.348268  
      89A      2.365022    90A      2.379509    91A      2.417291  
      92A      2.471830    93A      2.507547    94A      2.620529  
      95A      2.655938    96A      2.696790    97A      2.722654  
      98A      2.786073    99A      2.816019   100A      2.839272  
     101A      2.867242   102A      2.919724   103A      3.001499  
     104A      3.073693   105A      3.164142   106A      3.200759  
     107A      3.227934   108A      3.255444   109A      3.266881  
     110A      3.271523   111A      3.305100   112A      3.334286  
     113A      3.360282   114A      3.391092   115A      3.427657  
     116A      3.454133   117A      3.503156   118A      3.518666  
     119A      3.623938   120A      3.643924   121A      3.664946  
     122A      3.690586   123A      3.707675   124A      3.744293  
     125A      3.754178   126A      3.806348   127A      3.830396  
     128A      3.904268   129A      3.923030   130A      3.947255  
     131A      3.962014   132A      3.992694   133A      4.094029  
     134A      4.117634   135A      4.154287   136A      4.167397  
     137A      4.190541   138A      4.250211   139A      4.287964  
     140A      4.341615   141A      4.373061   142A      4.459888  
     143A      4.504395   144A      4.546948   145A      4.578434  
     146A      4.598321   147A      4.677991   148A      4.791350  
     149A      4.916678   150A      5.054600   151A      5.113926  
     152A      5.155797   153A      5.217706   154A      5.276841  
     155A      5.321433   156A      5.373255   157A      5.387964  
     158A      5.437104   159A      5.493332   160A      5.502910  
     161A      5.551671   162A      5.592707   163A      5.650924  
     164A      5.836588   165A      5.991760   166A      6.057042  
     167A      6.177016   168A      6.258985   169A      6.484589  
     170A      6.568867   171A      6.593401   172A      6.640177  
     173A      7.031337   174A      7.127497   175A      7.195102  
     176A      7.223852   177A      7.320143   178A      7.350393  
     179A      7.363598   180A      7.364711   181A      7.367583  
     182A      7.368450   183A      7.372192   184A      7.380813  
     185A      7.385804   186A      7.404129   187A      7.483222  
     188A      7.526440   189A      7.531764   190A      7.535728  
     191A      7.609762   192A      7.638099   193A      7.641859  
     194A      7.663745   195A      7.889998   196A      7.947163  
     197A      7.971070   198A      8.006359   199A      8.111320  
     200A      8.179963   201A      8.188298   202A      8.909937  
     203A      8.911429   204A      8.938205   205A      9.035578  
     206A      9.036973   207A      9.095759   208A      9.221169  
     209A      9.331469   210A      9.414942   211A      9.418821  
     212A      9.536251   213A      9.685943   214A      9.688341  
     215A      9.739074   216A      9.746710   217A     11.193531  
     218A     12.283615   219A     12.442950   220A     12.693917  
     221A     13.252950   222A     13.808377  

    Final Occupation by Irrep:
              A 
    DOCC [    25 ]

  Energy converged.

  @DF-RHF Final Energy:  -450.84420676035154

   => Energetics <=

    Nuclear Repulsion Energy =            278.0747829266828148
    One-Electron Energy =               -1178.6143502032173274
    Two-Electron Energy =                 449.6953605161829728
    DFT Exchange-Correlation Energy =       0.0000000000000000
    Empirical Dispersion Energy =           0.0000000000000000
    PCM Polarization Energy =               0.0000000000000000
    EFP Energy =                            0.0000000000000000
    Total Energy =                       -450.8442067603515397


  Saving occupied orbitals to File 180.

*** tstop() called on cx1-27-3-4 at Sat Sep 10 15:50:23 2016
Module time:
	user time   =       8.45 seconds =       0.14 minutes
	system time =       0.24 seconds =       0.00 minutes
	total time  =          2 seconds =       0.03 minutes
Total time:
	user time   =      31.61 seconds =       0.53 minutes
	system time =       1.00 seconds =       0.02 minutes
	total time  =          9 seconds =       0.15 minutes


Properties will be evaluated at   0.000000,   0.000000,   0.000000 Bohr

Properties computed using the SCF density matrix

  Nuclear Dipole Moment: (a.u.)
     X:    -6.5036      Y:     3.4932      Z:    -0.6111

  Electronic Dipole Moment: (a.u.)
     X:     5.6184      Y:    -2.5337      Z:     0.2600

  Dipole Moment: (a.u.)
     X:    -0.8851      Y:     0.9595      Z:    -0.3510     Total:     1.3518

  Dipole Moment: (Debye)
     X:    -2.2498      Y:     2.4388      Z:    -0.8922     Total:     3.4359


*** tstart() called on cx1-27-3-4
*** at Sat Sep 10 15:50:23 2016


         ------------------------------------------------------------
                                   SCF GRAD                          
                          Rob Parrish, Justin Turney,                
                       Andy Simmonett, and Alex Sokolov              
         ------------------------------------------------------------

  ==> Geometry <==

    Molecular point group: c1
    Full point group: C1

    Geometry (in Angstrom), charge = 0, multiplicity = 1:

       Center              X                  Y                   Z               Mass       
    ------------   -----------------  -----------------  -----------------  -----------------
           H         -2.776823015362     0.259282529563    -0.260383517682     1.007825032070
           O         -1.985470358050    -0.088090747502     0.110519653219    15.994914619560
           C         -0.938476534314     0.803538618210    -0.083460481293    12.000000000000
           C          0.348524836942     0.022896713663    -0.014879596613    12.000000000000
           H         -0.961988872483     1.267951488498    -1.062904934747     1.007825032070
           H         -0.884525931167     1.582738026503     0.674388590112     1.007825032070
           F          0.402020908567    -0.928607944721    -0.924169450534    18.998403224000
           F          1.353316837327     0.843271453782    -0.233568682255    18.998403224000
           F          0.534137021959    -0.527479625010     1.161228217805    18.998403224000

  Nuclear repulsion =  278.074782926682815

  ==> Basis Set <==

  Basis Set: CC-PVTZ
    Number of shells: 78
    Number of basis function: 222
    Number of Cartesian functions: 255
    Spherical Harmonics?: true
    Max angular momentum: 3

  ==> DFJKGrad: Density-Fitted SCF Gradients <==

    Gradient:                    1
    J tasked:                  Yes
    K tasked:                  Yes
    wK tasked:                  No
    OpenMP threads:              4
    Integrals threads:           4
    Memory (MB):              1430
    Schwarz Cutoff:          0E+00
    Fitting Condition:       1E-12

   => Auxiliary Basis Set <=

  Basis Set: 
    Number of shells: 180
    Number of basis function: 564
    Number of Cartesian functions: 681
    Spherical Harmonics?: true
    Max angular momentum: 4


  -Total Gradient:
     Atom            X                  Y                   Z
    ------   -----------------  -----------------  -----------------
       1       -0.000632972060     0.001380940420    -0.001475604364
       2        0.002260894082    -0.005496265036     0.000060318410
       3       -0.000554777035     0.003023409012     0.001615314854
       4        0.000325294938     0.001075549738     0.001838426537
       5        0.001156074715    -0.000276490027    -0.000579000430
       6        0.002448989088     0.002877182783     0.001129963485
       7       -0.000102840711    -0.002892598002    -0.003727934532
       8       -0.005179391971    -0.001485824548     0.000900836840
       9        0.000278728948     0.001794095664     0.000237679196


*** tstop() called on cx1-27-3-4 at Sat Sep 10 15:50:26 2016
Module time:
	user time   =      11.19 seconds =       0.19 minutes
	system time =       0.32 seconds =       0.01 minutes
	total time  =          3 seconds =       0.05 minutes
Total time:
	user time   =      42.89 seconds =       0.71 minutes
	system time =       1.32 seconds =       0.02 minutes
	total time  =         12 seconds =       0.20 minutes

			-----------------------------------------
			 OPTKING 2.0: for geometry optimizations 
			  - R.A. King,  Bethel University        
			-----------------------------------------

	Previous internal coordinate definitions found.
	---Fragment 1 Geometry and Gradient---
	 H          -5.2474350185        0.4899729719       -0.4920535379
	 O          -3.7519952217       -0.1664673876        0.2088518769
	 C          -1.7734636320        1.5184679256       -0.1577174526
	 C           0.6586164923        0.0432685182       -0.0281183626
	 H          -1.8178955119        2.3960810630       -2.0085992320
	 H          -1.6715117673        2.9909414102        1.2744097425
	 F           0.7597094169       -1.7548147003       -1.7464271619
	 F           2.5573981936        1.5935521033       -0.4413808427
	 F           1.0093726889       -0.9967920319        2.1944033094
	            -0.0006329721        0.0013809404       -0.0014756044
	             0.0022608941       -0.0054962650        0.0000603184
	            -0.0005547770        0.0030234090        0.0016153149
	             0.0003252949        0.0010755497        0.0018384265
	             0.0011560747       -0.0002764900       -0.0005790004
	             0.0024489891        0.0028771828        0.0011299635
	            -0.0001028407       -0.0028925980       -0.0037279345
	            -0.0051793920       -0.0014858245        0.0009008368
	             0.0002787289        0.0017940957        0.0002376792

	---Fragment 1 Intrafragment Coordinates---
	 - Coordinate -           - BOHR/RAD -       - ANG/DEG -
	 R(1,2)           =         1.777223	       0.940466
	 R(2,3)           =         2.624494	       1.388822
	 R(3,4)           =         2.847459	       1.506810
	 R(3,5)           =         2.048888	       1.084225
	 R(3,6)           =         2.056590	       1.088300
	 R(4,7)           =         2.489158	       1.317206
	 R(4,8)           =         2.485867	       1.315464
	 R(4,9)           =         2.478782	       1.311715
	 B(1,2,3)         =         1.919975	     110.006490
	 B(2,3,4)         =         1.880667	     107.754280
	 B(2,3,5)         =         1.965809	     112.632540
	 B(2,3,6)         =         1.982063	     113.563830
	 B(3,4,7)         =         1.957902	     112.179530
	 B(3,4,8)         =         1.898370	     108.768588
	 B(3,4,9)         =         1.959563	     112.274665
	 B(4,3,5)         =         1.856204	     106.352643
	 B(4,3,6)         =         1.872236	     107.271217
	 B(5,3,6)         =         1.900179	     108.872236
	 B(7,4,8)         =         1.880433	     107.740850
	 B(7,4,9)         =         1.886105	     108.065868
	 B(8,4,9)         =         1.878261	     107.616431
	 D(1,2,3,4)       =        -2.739939	    -156.986913
	*D(1,2,3,5)       =        -0.698132	     -39.999994
	 D(1,2,3,6)       =         1.472085	      84.344237
	 D(2,3,4,7)       =         1.032878	      59.179535
	 D(2,3,4,8)       =         3.111268	     178.262522
	 D(2,3,4,9)       =        -1.095205	     -62.750629
	 D(5,3,4,7)       =        -1.078981	     -61.821039
	 D(5,3,4,8)       =         0.999410	      57.261948
	 D(5,3,4,9)       =         3.076122	     176.248798
	 D(6,3,4,7)       =        -3.110104	    -178.195805
	 D(6,3,4,8)       =        -1.031713	     -59.112818
	 D(6,3,4,9)       =         1.044999	      59.874031

	Current energy   :      -450.8442067604

	Energy change for the previous step:
		Projected    :        -0.0052936578
		Actual       :        -0.0012002864
	Energy ratio indicates iffy step: Trust radius decreased to 1.250e-01.


	Performing BFGS update.
	Previous computed or guess Hessian on step 1.
	Steps to be used in Hessian update: 1
	Taking RFO optimization step.
	Going to follow RFO solution 1.
	Using RFO vector 1.

	Determining step-restricting scale parameter for RS-RFO.
	Maximum step size allowed    0.12500

	 Iter      |step|        alpha        rfo_root  
	------------------------------------------------
	    0     0.16769       1.00000           1
	    1     0.13591       2.90097           1
	    2     0.12613       3.77508           1
	    3     0.12501       3.88712           1
	    4     0.12500       3.88861           1
	------------------------------------------------
	Norm of target step-size    0.12500
	Projected energy change by RFO approximation:         0.0008683932

	Back-transformation to cartesian coordinates...
	Could not converge backtransformation.
	Using first guess instead.

	Back-transformation to cartesian coordinates to adjust frozen coordinates...
	Successfully converged to displaced geometry.

	--- Internal Coordinate Step in ANG or DEG, aJ/ANG or AJ/DEG ---
	 ---------------------------------------------------------------------------
	   Coordinate                Previous        Force       Change         New 
	   ----------                --------       ------       ------       ------
	    1 R(1,2)          =      0.940466    -0.013385    -0.001419     0.939047
	    2 R(2,3)          =      1.388822    -0.010028    -0.000756     1.388066
	    3 R(3,4)          =      1.506810     0.026762     0.003649     1.510459
	    4 R(3,5)          =      1.084225    -0.003127    -0.000509     1.083716
	    5 R(3,6)          =      1.088300    -0.024455    -0.003403     1.084898
	    6 R(4,7)          =      1.317206    -0.038383    -0.002936     1.314270
	    7 R(4,8)          =      1.315464     0.041462     0.003418     1.318882
	    8 R(4,9)          =      1.311715     0.004121     0.000749     1.312464
	    9 B(1,2,3)        =    110.006490     0.000169     0.548468   110.554959
	   10 B(2,3,4)        =    107.754280     0.000343     0.771662   108.525942
	   11 B(2,3,5)        =    112.632540    -0.000070     0.168812   112.801352
	   12 B(2,3,6)        =    113.563830    -0.000261    -1.272526   112.291303
	   13 B(3,4,7)        =    112.179530    -0.000010    -0.107557   112.071974
	   14 B(3,4,8)        =    108.768588     0.000292     0.767594   109.536182
	   15 B(3,4,9)        =    112.274665     0.000006    -0.059673   112.214992
	   16 B(4,3,5)        =    106.352643    -0.000038     0.671626   107.024269
	   17 B(4,3,6)        =    107.271217    -0.000019    -0.132858   107.138359
	   18 B(5,3,6)        =    108.872236     0.000064    -0.100248   108.771988
	   19 B(7,4,8)        =    107.740850    -0.000123    -0.190541   107.550309
	   20 B(7,4,9)        =    108.065868    -0.000098    -0.503407   107.562460
	   21 B(8,4,9)        =    107.616431    -0.000078     0.083523   107.699954
	   22 D(1,2,3,4)      =   -156.986913    -0.000030    -1.426144  -158.413057
	   23 *D(1,2,3,5)     =    -39.999994     0.000000     0.000000   -39.999994
	   24 D(1,2,3,6)      =     84.344237    -0.000041    -1.003507    83.340730
	   25 D(2,3,4,7)      =     59.179535     0.000007     2.517808    61.697343
	   26 D(2,3,4,8)      =    178.262522     0.000015     2.719294   180.981816
	   27 D(2,3,4,9)      =    -62.750629     0.000037     3.295585   -59.455043
	   28 D(5,3,4,7)      =    -61.821039    -0.000011     1.509364   -60.311675
	   29 D(5,3,4,8)      =     57.261948    -0.000004     1.710850    58.972798
	   30 D(5,3,4,9)      =    176.248798     0.000019     2.287141   178.535939
	   31 D(6,3,4,7)      =   -178.195805    -0.000022     1.357688  -176.838117
	   32 D(6,3,4,8)      =    -59.112818    -0.000014     1.559174   -57.553645
	   33 D(6,3,4,9)      =     59.874031     0.000008     2.135465    62.009496
	 ---------------------------------------------------------------------------
	Successfully symmetrized geometry.

  ==> Convergence Check <==

  Measures of convergence in internal coordinates in au.
  Criteria marked as inactive (o), active & met (*), and active & unmet ( ).
  ---------------------------------------------------------------------------------------------
   Step     Total Energy     Delta E     MAX Force     RMS Force      MAX Disp      RMS Disp   
  ---------------------------------------------------------------------------------------------
    Convergence Criteria    1.00e-06 *    3.00e-04 *             o    1.20e-03 *             o
  ---------------------------------------------------------------------------------------------
      2    -450.84420676   -1.20e-03      5.03e-03      2.12e-03 o    5.75e-02      2.18e-02 o  ~
  ---------------------------------------------------------------------------------------------

	Writing optimization data to binary file.
	Structure for next step:
	Cartesian Geometry (in Angstrom)
	    H    -2.7892411088   0.2673181446  -0.2292308966
	    O    -1.9913087271  -0.0780470133   0.1255030085
	    C    -0.9388620563   0.7989927988  -0.0978480130
	    C     0.3559589500   0.0254888745  -0.0164984880
	    H    -0.9742451332   1.2560703371  -1.0798199886
	    H    -0.8905327019   1.5828977949   0.6505906341
	    F     0.4287244929  -0.9135047374  -0.9331778046
	    F     1.3719017530   0.8450659076  -0.2051873811
	    F     0.5183194249  -0.5487815937   1.1524387274
			--------------------------
			 OPTKING Finished Execution 
			--------------------------

    Structure for next step:
    Molecular point group: c1
    Full point group: C1

    Geometry (in Angstrom), charge = 0, multiplicity = 1:

    H           -2.794442179173     0.266820058867    -0.231620711514
    O           -1.996509797444    -0.078545099063     0.123113193610
    C           -0.944063126688     0.798494713054    -0.100237827916
    C            0.350757879647     0.024990788817    -0.018888302917
    H           -0.979446203522     1.255572251350    -1.082209803539
    H           -0.895733772296     1.582399709180     0.648200819207
    F            0.423523422491    -0.914002823134    -0.935567619476
    F            1.366700682585     0.844567821836    -0.207577195966
    F            0.513118354491    -0.549279679461     1.150048912469

gradient() will perform analytic gradient computation.

*** tstart() called on cx1-27-3-4
*** at Sat Sep 10 15:50:27 2016


         ---------------------------------------------------------
                                   SCF
            by Justin Turney, Rob Parrish, and Andy Simmonett
                              RHF Reference
                        4 Threads,   2000 MiB Core
         ---------------------------------------------------------

  ==> Geometry <==

    Molecular point group: c1
    Full point group: C1

    Geometry (in Angstrom), charge = 0, multiplicity = 1:

       Center              X                  Y                   Z               Mass       
    ------------   -----------------  -----------------  -----------------  -----------------
           H         -2.794442179173     0.266820058867    -0.231620711514     1.007825032070
           O         -1.996509797444    -0.078545099063     0.123113193610    15.994914619560
           C         -0.944063126688     0.798494713054    -0.100237827916    12.000000000000
           C          0.350757879647     0.024990788817    -0.018888302917    12.000000000000
           H         -0.979446203522     1.255572251350    -1.082209803539     1.007825032070
           H         -0.895733772296     1.582399709180     0.648200819207     1.007825032070
           F          0.423523422491    -0.914002823134    -0.935567619476    18.998403224000
           F          1.366700682585     0.844567821836    -0.207577195966    18.998403224000
           F          0.513118354491    -0.549279679461     1.150048912469    18.998403224000

  Running in c1 symmetry.

  Rotational constants: A =      0.18413  B =      0.09692  C =      0.09532 [cm^-1]
  Rotational constants: A =   5520.11241  B =   2905.61940  C =   2857.68915 [MHz]
  Nuclear repulsion =  277.703397643684923

  Charge       = 0
  Multiplicity = 1
  Electrons    = 50
  Nalpha       = 25
  Nbeta        = 25

  ==> Algorithm <==

  SCF Algorithm Type is DF.
  DIIS enabled.
  MOM disabled.
  Fractional occupation disabled.
  Guess Type is READ.
  Energy threshold   = 1.00e-08
  Density threshold  = 1.00e-08
  Integral threshold = 0.00e+00

  ==> Primary Basis <==

  Basis Set: CC-PVTZ
    Number of shells: 78
    Number of basis function: 222
    Number of Cartesian functions: 255
    Spherical Harmonics?: true
    Max angular momentum: 3

  ==> Pre-Iterations <==

   -------------------------------------------------------
    Irrep   Nso     Nmo     Nalpha   Nbeta   Ndocc  Nsocc
   -------------------------------------------------------
     A        222     222       0       0       0       0
   -------------------------------------------------------
    Total     222     222      25      25      25       0
   -------------------------------------------------------

  ==> Integral Setup <==

  ==> DFJK: Density-Fitted J/K Matrices <==

    J tasked:                  Yes
    K tasked:                  Yes
    wK tasked:                  No
    OpenMP threads:              4
    Integrals threads:           4
    Memory (MB):              1430
    Algorithm:                Core
    Integral Cache:           NONE
    Schwarz Cutoff:          1E-12
    Fitting Condition:       1E-12

   => Auxiliary Basis Set <=

  Basis Set: 
    Number of shells: 180
    Number of basis function: 564
    Number of Cartesian functions: 681
    Spherical Harmonics?: true
    Max angular momentum: 4

  Minimum eigenvalue in the overlap matrix is 1.0034137602E-03.
  Using Symmetric Orthogonalization.
  SCF Guess: Reading in previously saved MOs, projecting if necessary.

  Using orbitals from previous SCF, no projection.
  Recomputing DOCC and SOCC from number of alpha and beta electrons from previous calculation.
              A 
    DOCC [    25 ]

  ==> Iterations <==

                           Total Energy        Delta E     RMS |[F,P]|

   @DF-RHF iter   0:  -450.84196995245708   -4.50842e+02   3.35697e-04 
   @DF-RHF iter   1:  -450.84438509935370   -2.41515e-03   4.87671e-05 
   @DF-RHF iter   2:  -450.84447607673263   -9.09774e-05   1.72298e-05 DIIS
   @DF-RHF iter   3:  -450.84448979988275   -1.37232e-05   6.43812e-06 DIIS
   @DF-RHF iter   4:  -450.84449088314540   -1.08326e-06   1.84346e-06 DIIS
   @DF-RHF iter   5:  -450.84449104966296   -1.66518e-07   6.14717e-07 DIIS
   @DF-RHF iter   6:  -450.84449106882056   -1.91576e-08   1.45097e-07 DIIS
   @DF-RHF iter   7:  -450.84449106975222   -9.31664e-10   3.22869e-08 DIIS
   @DF-RHF iter   8:  -450.84449106980043   -4.82032e-11   1.01546e-08 DIIS
   @DF-RHF iter   9:  -450.84449106980486   -4.43379e-12   3.93426e-09 DIIS

  ==> Post-Iterations <==

    Orbital Energies (a.u.)
    -----------------------

    Doubly Occupied:                                                      

       1A    -26.334096     2A    -26.329924     3A    -26.329469  
       4A    -20.582883     5A    -11.490698     6A    -11.310600  
       7A     -1.741776     8A     -1.638406     9A     -1.635763  
      10A     -1.405968    11A     -1.050855    12A     -0.923475  
      13A     -0.833166    14A     -0.831093    15A     -0.788553  
      16A     -0.739439    17A     -0.713632    18A     -0.704027  
      19A     -0.671920    20A     -0.657483    21A     -0.642319  
      22A     -0.641482    23A     -0.600498    24A     -0.531826  
      25A     -0.483646  

    Virtual:                                                              

      26A      0.126057    27A      0.176386    28A      0.197229  
      29A      0.286584    30A      0.304143    31A      0.346700  
      32A      0.360811    33A      0.405563    34A      0.485250  
      35A      0.487421    36A      0.515811    37A      0.521097  
      38A      0.539651    39A      0.570333    40A      0.600488  
      41A      0.609965    42A      0.627953    43A      0.657841  
      44A      0.689112    45A      0.727527    46A      0.760431  
      47A      0.808712    48A      0.823987    49A      0.846177  
      50A      0.896617    51A      0.911797    52A      0.941414  
      53A      0.988211    54A      1.034843    55A      1.052639  
      56A      1.097877    57A      1.108089    58A      1.122618  
      59A      1.143303    60A      1.148972    61A      1.161313  
      62A      1.174398    63A      1.211645    64A      1.286152  
      65A      1.328753    66A      1.342220    67A      1.363914  
      68A      1.386470    69A      1.415884    70A      1.464229  
      71A      1.487634    72A      1.520598    73A      1.543346  
      74A      1.610615    75A      1.730776    76A      1.788696  
      77A      1.973777    78A      2.019290    79A      2.069915  
      80A      2.128252    81A      2.178814    82A      2.210301  
      83A      2.224880    84A      2.243237    85A      2.259056  
      86A      2.266744    87A      2.301414    88A      2.354326  
      89A      2.365889    90A      2.383639    91A      2.411651  
      92A      2.474788    93A      2.504372    94A      2.622020  
      95A      2.654499    96A      2.691611    97A      2.721549  
      98A      2.785840    99A      2.816107   100A      2.835568  
     101A      2.869416   102A      2.914546   103A      2.994362  
     104A      3.073712   105A      3.156755   106A      3.197141  
     107A      3.230471   108A      3.255741   109A      3.268968  
     110A      3.271043   111A      3.308987   112A      3.336535  
     113A      3.361406   114A      3.390683   115A      3.425089  
     116A      3.450932   117A      3.500540   118A      3.516834  
     119A      3.622753   120A      3.641757   121A      3.665528  
     122A      3.690759   123A      3.713784   124A      3.744338  
     125A      3.753955   126A      3.812008   127A      3.823535  
     128A      3.898795   129A      3.925614   130A      3.945384  
     131A      3.961139   132A      3.994124   133A      4.092336  
     134A      4.118379   135A      4.154175   136A      4.168627  
     137A      4.184781   138A      4.252041   139A      4.289187  
     140A      4.334995   141A      4.370814   142A      4.466430  
     143A      4.492136   144A      4.548210   145A      4.582755  
     146A      4.600965   147A      4.682267   148A      4.796647  
     149A      4.915809   150A      5.058652   151A      5.119613  
     152A      5.155735   153A      5.216401   154A      5.276928  
     155A      5.322381   156A      5.369481   157A      5.393838  
     158A      5.438447   159A      5.495444   160A      5.503807  
     161A      5.555862   162A      5.596108   163A      5.659451  
     164A      5.847841   165A      5.981898   166A      6.050898  
     167A      6.178840   168A      6.255967   169A      6.476986  
     170A      6.566503   171A      6.592116   172A      6.647643  
     173A      7.033815   174A      7.130799   175A      7.194286  
     176A      7.229622   177A      7.320407   178A      7.352189  
     179A      7.363663   180A      7.364340   181A      7.367712  
     182A      7.368680   183A      7.371893   184A      7.380387  
     185A      7.385167   186A      7.405736   187A      7.480248  
     188A      7.526025   189A      7.529606   190A      7.536730  
     191A      7.608357   192A      7.639903   193A      7.641608  
     194A      7.663505   195A      7.887505   196A      7.950513  
     197A      7.970732   198A      8.006876   199A      8.104377  
     200A      8.177962   201A      8.188306   202A      8.910224  
     203A      8.910692   204A      8.939072   205A      9.035116  
     206A      9.036409   207A      9.094240   208A      9.217733  
     209A      9.329762   210A      9.412628   211A      9.416876  
     212A      9.536702   213A      9.684083   214A      9.688933  
     215A      9.741089   216A      9.747482   217A     11.187952  
     218A     12.274174   219A     12.438530   220A     12.659088  
     221A     13.246192   222A     13.796449  

    Final Occupation by Irrep:
              A 
    DOCC [    25 ]

  Energy converged.

  @DF-RHF Final Energy:  -450.84449106980486

   => Energetics <=

    Nuclear Repulsion Energy =            277.7033976436849230
    One-Electron Energy =               -1177.8697876820549482
    Two-Electron Energy =                 449.3218989685653924
    DFT Exchange-Correlation Energy =       0.0000000000000000
    Empirical Dispersion Energy =           0.0000000000000000
    PCM Polarization Energy =               0.0000000000000000
    EFP Energy =                            0.0000000000000000
    Total Energy =                       -450.8444910698046897


  Saving occupied orbitals to File 180.

*** tstop() called on cx1-27-3-4 at Sat Sep 10 15:50:29 2016
Module time:
	user time   =       8.27 seconds =       0.14 minutes
	system time =       0.18 seconds =       0.00 minutes
	total time  =          2 seconds =       0.03 minutes
Total time:
	user time   =      51.88 seconds =       0.86 minutes
	system time =       1.53 seconds =       0.03 minutes
	total time  =         15 seconds =       0.25 minutes


Properties will be evaluated at   0.000000,   0.000000,   0.000000 Bohr

Properties computed using the SCF density matrix

  Nuclear Dipole Moment: (a.u.)
     X:    -6.5601      Y:     3.4939      Z:    -0.6299

  Electronic Dipole Moment: (a.u.)
     X:     5.6621      Y:    -2.5370      Z:     0.2685

  Dipole Moment: (a.u.)
     X:    -0.8980      Y:     0.9569      Z:    -0.3615     Total:     1.3612

  Dipole Moment: (Debye)
     X:    -2.2825      Y:     2.4322      Z:    -0.9187     Total:     3.4597


*** tstart() called on cx1-27-3-4
*** at Sat Sep 10 15:50:30 2016


         ------------------------------------------------------------
                                   SCF GRAD                          
                          Rob Parrish, Justin Turney,                
                       Andy Simmonett, and Alex Sokolov              
         ------------------------------------------------------------

  ==> Geometry <==

    Molecular point group: c1
    Full point group: C1

    Geometry (in Angstrom), charge = 0, multiplicity = 1:

       Center              X                  Y                   Z               Mass       
    ------------   -----------------  -----------------  -----------------  -----------------
           H         -2.794442179173     0.266820058867    -0.231620711514     1.007825032070
           O         -1.996509797444    -0.078545099063     0.123113193610    15.994914619560
           C         -0.944063126688     0.798494713054    -0.100237827916    12.000000000000
           C          0.350757879647     0.024990788817    -0.018888302917    12.000000000000
           H         -0.979446203522     1.255572251350    -1.082209803539     1.007825032070
           H         -0.895733772296     1.582399709180     0.648200819207     1.007825032070
           F          0.423523422491    -0.914002823134    -0.935567619476    18.998403224000
           F          1.366700682585     0.844567821836    -0.207577195966    18.998403224000
           F          0.513118354491    -0.549279679461     1.150048912469    18.998403224000

  Nuclear repulsion =  277.703397643684923

  ==> Basis Set <==

  Basis Set: CC-PVTZ
    Number of shells: 78
    Number of basis function: 222
    Number of Cartesian functions: 255
    Spherical Harmonics?: true
    Max angular momentum: 3

  ==> DFJKGrad: Density-Fitted SCF Gradients <==

    Gradient:                    1
    J tasked:                  Yes
    K tasked:                  Yes
    wK tasked:                  No
    OpenMP threads:              4
    Integrals threads:           4
    Memory (MB):              1430
    Schwarz Cutoff:          0E+00
    Fitting Condition:       1E-12

   => Auxiliary Basis Set <=

  Basis Set: 
    Number of shells: 180
    Number of basis function: 564
    Number of Cartesian functions: 681
    Spherical Harmonics?: true
    Max angular momentum: 4


  -Total Gradient:
     Atom            X                  Y                   Z
    ------   -----------------  -----------------  -----------------
       1       -0.000081993230    -0.000137753268    -0.000270133571
       2       -0.000898785981    -0.000694707104     0.000504383885
       3       -0.000302613934    -0.000113390356    -0.000803498759
       4        0.000028536980     0.002472349758     0.000890873327
       5        0.000168856676     0.000461419659     0.000067031423
       6        0.000559107473     0.000235352719     0.000161180041
       7        0.000269543782    -0.000889632859    -0.000120662821
       8       -0.000016966846    -0.000619942644    -0.000179189423
       9        0.000274315079    -0.000713695911    -0.000249984098


*** tstop() called on cx1-27-3-4 at Sat Sep 10 15:50:32 2016
Module time:
	user time   =      10.67 seconds =       0.18 minutes
	system time =       0.27 seconds =       0.00 minutes
	total time  =          2 seconds =       0.03 minutes
Total time:
	user time   =      62.64 seconds =       1.04 minutes
	system time =       1.81 seconds =       0.03 minutes
	total time  =         18 seconds =       0.30 minutes

			-----------------------------------------
			 OPTKING 2.0: for geometry optimizations 
			  - R.A. King,  Bethel University        
			-----------------------------------------

	Previous internal coordinate definitions found.
	---Fragment 1 Geometry and Gradient---
	 H          -5.2807304128        0.5042168380       -0.4376997115
	 O          -3.7728567388       -0.1484287263        0.2326502193
	 C          -1.7840207616        1.5089363262       -0.1894220429
	 C           0.6628363315        0.0472257467       -0.0356937196
	 H          -1.8508850866        2.3726876951       -2.0450801470
	 H          -1.6926915176        2.9903020831        1.2249220274
	 F           0.8003432794       -1.7272150204       -1.7679665796
	 F           2.5826899957        1.5960018839       -0.3922640518
	 F           0.9696531637       -1.0379881645        2.1732774840
	            -0.0000819932       -0.0001377533       -0.0002701336
	            -0.0008987860       -0.0006947071        0.0005043839
	            -0.0003026139       -0.0001133904       -0.0008034988
	             0.0000285370        0.0024723498        0.0008908733
	             0.0001688567        0.0004614197        0.0000670314
	             0.0005591075        0.0002353527        0.0001611800
	             0.0002695438       -0.0008896329       -0.0001206628
	            -0.0000169668       -0.0006199426       -0.0001791894
	             0.0002743151       -0.0007136959       -0.0002499841

	---Fragment 1 Intrafragment Coordinates---
	 - Coordinate -           - BOHR/RAD -       - ANG/DEG -
	 R(1,2)           =         1.774542	       0.939047
	 R(2,3)           =         2.623065	       1.388066
	 R(3,4)           =         2.854355	       1.510459
	 R(3,5)           =         2.047927	       1.083716
	 R(3,6)           =         2.050160	       1.084898
	 R(4,7)           =         2.483610	       1.314270
	 R(4,8)           =         2.492326	       1.318882
	 R(4,9)           =         2.480197	       1.312464
	 B(1,2,3)         =         1.929548	     110.554959
	 B(2,3,4)         =         1.894135	     108.525942
	 B(2,3,5)         =         1.968755	     112.801352
	 B(2,3,6)         =         1.959853	     112.291303
	 B(3,4,7)         =         1.956025	     112.071974
	 B(3,4,8)         =         1.911767	     109.536182
	 B(3,4,9)         =         1.958521	     112.214992
	 B(4,3,5)         =         1.867926	     107.024269
	 B(4,3,6)         =         1.869917	     107.138359
	 B(5,3,6)         =         1.898429	     108.771988
	 B(7,4,8)         =         1.877107	     107.550309
	 B(7,4,9)         =         1.877319	     107.562460
	 B(8,4,9)         =         1.879719	     107.699954
	 D(1,2,3,4)       =        -2.764829	    -158.413057
	*D(1,2,3,5)       =        -0.698132	     -39.999994
	 D(1,2,3,6)       =         1.454570	      83.340730
	 D(2,3,4,7)       =         1.076822	      61.697343
	 D(2,3,4,8)       =        -3.124457	    -179.018184
	 D(2,3,4,9)       =        -1.037686	     -59.455043
	 D(5,3,4,7)       =        -1.052637	     -60.311675
	 D(5,3,4,8)       =         1.029269	      58.972798
	 D(5,3,4,9)       =         3.116040	     178.535939
	 D(6,3,4,7)       =        -3.086407	    -176.838117
	 D(6,3,4,8)       =        -1.004501	     -57.553645
	 D(6,3,4,9)       =         1.082270	      62.009496

	Current energy   :      -450.8444910698

	Energy change for the previous step:
		Projected    :         0.0008683932
		Actual       :        -0.0002843095

	Performing BFGS update.
	Previous computed or guess Hessian on step 1.
	Steps to be used in Hessian update: 2 1
	Taking RFO optimization step.
	Going to follow RFO solution 1.
	Using RFO vector 1.
	Norm of target step-size    0.04285
	Projected energy change by RFO approximation:        -0.0000014666

	Back-transformation to cartesian coordinates...
	Could not converge backtransformation.
	Using first guess instead.

	Back-transformation to cartesian coordinates to adjust frozen coordinates...
	Successfully converged to displaced geometry.

	--- Internal Coordinate Step in ANG or DEG, aJ/ANG or AJ/DEG ---
	 ---------------------------------------------------------------------------
	   Coordinate                Previous        Force       Change         New 
	   ----------                --------       ------       ------       ------
	    1 R(1,2)          =      0.939047    -0.000997    -0.000205     0.938842
	    2 R(2,3)          =      1.388066    -0.010771    -0.001385     1.386682
	    3 R(3,4)          =      1.510459    -0.003023    -0.000485     1.509974
	    4 R(3,5)          =      1.083716    -0.001058    -0.000191     1.083525
	    5 R(3,6)          =      1.084898    -0.002522    -0.000500     1.084398
	    6 R(4,7)          =      1.314270    -0.006053    -0.000845     1.313425
	    7 R(4,8)          =      1.318882     0.003070     0.000559     1.319441
	    8 R(4,9)          =      1.312464    -0.001018    -0.000031     1.312433
	    9 B(1,2,3)        =    110.554959    -0.000009    -0.018889   110.536070
	   10 B(2,3,4)        =    108.525942    -0.000005    -0.055017   108.470925
	   11 B(2,3,5)        =    112.801352    -0.000012    -0.158952   112.642400
	   12 B(2,3,6)        =    112.291303    -0.000026    -0.169711   112.121593
	   13 B(3,4,7)        =    112.071974    -0.000024     0.012040   112.084013
	   14 B(3,4,8)        =    109.536182    -0.000049    -0.199503   109.336679
	   15 B(3,4,9)        =    112.214992    -0.000057    -0.179851   112.035141
	   16 B(4,3,5)        =    107.024269     0.000003     0.071800   107.096069
	   17 B(4,3,6)        =    107.138359     0.000040     0.262625   107.400984
	   18 B(5,3,6)        =    108.771988     0.000003     0.081383   108.853371
	   19 B(7,4,8)        =    107.550309     0.000038     0.106118   107.656428
	   20 B(7,4,9)        =    107.562460     0.000071     0.324848   107.887308
	   21 B(8,4,9)        =    107.699954     0.000028    -0.049453   107.650501
	   22 D(1,2,3,4)      =   -158.413057     0.000001     0.043367  -158.369690
	   23 *D(1,2,3,5)     =    -39.999994    -0.000000    -0.000000   -39.999994
	   24 D(1,2,3,6)      =     83.340730    -0.000006    -0.143841    83.196889
	   25 D(2,3,4,7)      =     61.697343     0.000003     0.835290    62.532634
	   26 D(2,3,4,8)      =   -179.018184     0.000003     0.843347  -178.174837
	   27 D(2,3,4,9)      =    -59.455043    -0.000005     0.534570   -58.920473
	   28 D(5,3,4,7)      =    -60.311675     0.000006     1.015151   -59.296524
	   29 D(5,3,4,8)      =     58.972798     0.000006     1.023208    59.996006
	   30 D(5,3,4,9)      =    178.535939    -0.000002     0.714430   179.250369
	   31 D(6,3,4,7)      =   -176.838117     0.000001     0.753524  -176.084593
	   32 D(6,3,4,8)      =    -57.553645     0.000001     0.761581   -56.792064
	   33 D(6,3,4,9)      =     62.009496    -0.000007     0.452803    62.462299
	 ---------------------------------------------------------------------------
	Successfully symmetrized geometry.

  ==> Convergence Check <==

  Measures of convergence in internal coordinates in au.
  Criteria marked as inactive (o), active & met (*), and active & unmet ( ).
  ---------------------------------------------------------------------------------------------
   Step     Total Energy     Delta E     MAX Force     RMS Force      MAX Disp      RMS Disp   
  ---------------------------------------------------------------------------------------------
    Convergence Criteria    1.00e-06 *    3.00e-04 *             o    1.20e-03 *             o
  ---------------------------------------------------------------------------------------------
      3    -450.84449107   -2.84e-04      1.31e-03      4.31e-04 o    1.79e-02      7.46e-03 o  ~
  ---------------------------------------------------------------------------------------------

	Writing optimization data to binary file.
	Structure for next step:
	Cartesian Geometry (in Angstrom)
	    H    -2.7921174103   0.2681426382  -0.2257617712
	    O    -1.9939060176  -0.0760601462   0.1289322776
	    C    -0.9423887600   0.7980385081  -0.1016096219
	    C     0.3508160075   0.0228092556  -0.0199825439
	    H    -0.9823470143   1.2481101295  -1.0864274097
	    H    -0.8957161885   1.5858604906   0.6420819540
	    F     0.4271397459  -0.9088387485  -0.9426372511
	    F     1.3660022979   0.8465771327  -0.1981089118
	    F     0.5064225993  -0.5536215186   1.1487747418
			--------------------------
			 OPTKING Finished Execution 
			--------------------------

    Structure for next step:
    Molecular point group: c1
    Full point group: C1

    Geometry (in Angstrom), charge = 0, multiplicity = 1:

    H           -2.792018442456     0.267550829804    -0.226565003234
    O           -1.993807049664    -0.076651954618     0.128129045605
    C           -0.942289792066     0.797446699754    -0.102412853901
    C            0.350914975422     0.022217447199    -0.020785775909
    H           -0.982248046424     1.247518321132    -1.087230641673
    H           -0.895617220567     1.585268682249     0.641278722019
    F            0.427238713807    -0.909430556929    -0.943440483165
    F            1.366101265823     0.845985324300    -0.198912143786
    F            0.506521567209    -0.554213326971     1.147971509818

gradient() will perform analytic gradient computation.

*** tstart() called on cx1-27-3-4
*** at Sat Sep 10 15:50:33 2016


         ---------------------------------------------------------
                                   SCF
            by Justin Turney, Rob Parrish, and Andy Simmonett
                              RHF Reference
                        4 Threads,   2000 MiB Core
         ---------------------------------------------------------

  ==> Geometry <==

    Molecular point group: c1
    Full point group: C1

    Geometry (in Angstrom), charge = 0, multiplicity = 1:

       Center              X                  Y                   Z               Mass       
    ------------   -----------------  -----------------  -----------------  -----------------
           H         -2.792018442456     0.267550829804    -0.226565003234     1.007825032070
           O         -1.993807049664    -0.076651954618     0.128129045605    15.994914619560
           C         -0.942289792066     0.797446699754    -0.102412853901    12.000000000000
           C          0.350914975422     0.022217447199    -0.020785775909    12.000000000000
           H         -0.982248046424     1.247518321132    -1.087230641673     1.007825032070
           H         -0.895617220567     1.585268682249     0.641278722019     1.007825032070
           F          0.427238713807    -0.909430556929    -0.943440483165    18.998403224000
           F          1.366101265823     0.845985324300    -0.198912143786    18.998403224000
           F          0.506521567209    -0.554213326971     1.147971509818    18.998403224000

  Running in c1 symmetry.

  Rotational constants: A =      0.18396  B =      0.09700  C =      0.09552 [cm^-1]
  Rotational constants: A =   5515.03334  B =   2908.06717  C =   2863.66644 [MHz]
  Nuclear repulsion =  277.785502103885733

  Charge       = 0
  Multiplicity = 1
  Electrons    = 50
  Nalpha       = 25
  Nbeta        = 25

  ==> Algorithm <==

  SCF Algorithm Type is DF.
  DIIS enabled.
  MOM disabled.
  Fractional occupation disabled.
  Guess Type is READ.
  Energy threshold   = 1.00e-08
  Density threshold  = 1.00e-08
  Integral threshold = 0.00e+00

  ==> Primary Basis <==

  Basis Set: CC-PVTZ
    Number of shells: 78
    Number of basis function: 222
    Number of Cartesian functions: 255
    Spherical Harmonics?: true
    Max angular momentum: 3

  ==> Pre-Iterations <==

   -------------------------------------------------------
    Irrep   Nso     Nmo     Nalpha   Nbeta   Ndocc  Nsocc
   -------------------------------------------------------
     A        222     222       0       0       0       0
   -------------------------------------------------------
    Total     222     222      25      25      25       0
   -------------------------------------------------------

  ==> Integral Setup <==

  ==> DFJK: Density-Fitted J/K Matrices <==

    J tasked:                  Yes
    K tasked:                  Yes
    wK tasked:                  No
    OpenMP threads:              4
    Integrals threads:           4
    Memory (MB):              1430
    Algorithm:                Core
    Integral Cache:           NONE
    Schwarz Cutoff:          1E-12
    Fitting Condition:       1E-12

   => Auxiliary Basis Set <=

  Basis Set: 
    Number of shells: 180
    Number of basis function: 564
    Number of Cartesian functions: 681
    Spherical Harmonics?: true
    Max angular momentum: 4

  Minimum eigenvalue in the overlap matrix is 1.0033245069E-03.
  Using Symmetric Orthogonalization.
[...]
     110A      3.271137   111A      3.309781   112A      3.337528  
     113A      3.361778   114A      3.390705   115A      3.425404  
     116A      3.451182   117A      3.500650   118A      3.517558  
     119A      3.623657   120A      3.642431   121A      3.666304  
     122A      3.691131   123A      3.715552   124A      3.745089  
     125A      3.754300   126A      3.814139   127A      3.824795  
     128A      3.900207   129A      3.926080   130A      3.945132  
     131A      3.961233   132A      3.995192   133A      4.093941  
     134A      4.119436   135A      4.153800   136A      4.169215  
     137A      4.186149   138A      4.252161   139A      4.288761  
     140A      4.334127   141A      4.370358   142A      4.467202  
     143A      4.492853   144A      4.549391   145A      4.583436  
     146A      4.603102   147A      4.683610   148A      4.799442  
     149A      4.916308   150A      5.059858   151A      5.120891  
     152A      5.158093   153A      5.217849   154A      5.276298  
     155A      5.323667   156A      5.370268   157A      5.394079  
     158A      5.439066   159A      5.495697   160A      5.504483  
     161A      5.556765   162A      5.598086   163A      5.661264  
     164A      5.849994   165A      5.983122   166A      6.050943  
     167A      6.180060   168A      6.256673   169A      6.478007  
     170A      6.565836   171A      6.593611   172A      6.649512  
     173A      7.034567   174A      7.131348   175A      7.194833  
     176A      7.230566   177A      7.320182   178A      7.352666  
     179A      7.363178   180A      7.364310   181A      7.367749  
     182A      7.368461   183A      7.371763   184A      7.380607  
     185A      7.384918   186A      7.407150   187A      7.480705  
     188A      7.526255   189A      7.530469   190A      7.537658  
     191A      7.608810   192A      7.640117   193A      7.640926  
     194A      7.664724   195A      7.888613   196A      7.949442  
     197A      7.971771   198A      8.007584   199A      8.107011  
     200A      8.178381   201A      8.188726   202A      8.910203  
     203A      8.910698   204A      8.938635   205A      9.035179  
     206A      9.036740   207A      9.094915   208A      9.219061  
     209A      9.330222   210A      9.413411   211A      9.417154  
     212A      9.536433   213A      9.683781   214A      9.688924  
     215A      9.741670   216A      9.746831   217A     11.192080  
     218A     12.278161   219A     12.442461   220A     12.660275  
     221A     13.252756   222A     13.808517  

    Final Occupation by Irrep:
              A 
    DOCC [    25 ]

  Energy converged.

  @DF-RHF Final Energy:  -450.84450324187657

   => Energetics <=

    Nuclear Repulsion Energy =            277.7883417130502153
    One-Electron Energy =               -1178.0355203908420663
    Two-Electron Energy =                 449.4026754359151710
    DFT Exchange-Correlation Energy =       0.0000000000000000
    Empirical Dispersion Energy =           0.0000000000000000
    PCM Polarization Energy =               0.0000000000000000
    EFP Energy =                            0.0000000000000000
    Total Energy =                       -450.8445032418767369


  Saving occupied orbitals to File 180.

*** tstop() called on cx1-27-3-4 at Sat Sep 10 15:50:41 2016
Module time:
	user time   =       7.54 seconds =       0.13 minutes
	system time =       0.23 seconds =       0.00 minutes
	total time  =          2 seconds =       0.03 minutes
Total time:
	user time   =      91.45 seconds =       1.52 minutes
	system time =       2.61 seconds =       0.04 minutes
	total time  =         27 seconds =       0.45 minutes


Properties will be evaluated at   0.000000,   0.000000,   0.000000 Bohr

Properties computed using the SCF density matrix

  Nuclear Dipole Moment: (a.u.)
     X:    -6.5592      Y:     3.4900      Z:    -0.6333

  Electronic Dipole Moment: (a.u.)
     X:     5.6620      Y:    -2.5411      Z:     0.2683

  Dipole Moment: (a.u.)
     X:    -0.8972      Y:     0.9488      Z:    -0.3649     Total:     1.3559

  Dipole Moment: (Debye)
     X:    -2.2803      Y:     2.4117      Z:    -0.9275     Total:     3.4463


*** tstart() called on cx1-27-3-4
*** at Sat Sep 10 15:50:41 2016


         ------------------------------------------------------------
                                   SCF GRAD                          
                          Rob Parrish, Justin Turney,                
                       Andy Simmonett, and Alex Sokolov              
         ------------------------------------------------------------

  ==> Geometry <==

    Molecular point group: c1
    Full point group: C1

    Geometry (in Angstrom), charge = 0, multiplicity = 1:

       Center              X                  Y                   Z               Mass       
    ------------   -----------------  -----------------  -----------------  -----------------
           H         -2.792762100245     0.267417774765    -0.228823422829     1.007825032070
           O         -1.994781173014    -0.077067620662     0.126293109538    15.994914619560
           C         -0.942836697600     0.797726523499    -0.101162327875    12.000000000000
           C          0.350750662894     0.023018552750    -0.020021964735    12.000000000000
           H         -0.981594933600     1.249527207685    -1.085300221695     1.007825032070
           H         -0.896452556083     1.584307594752     0.643787365756     1.007825032070
           F          0.425518755727    -0.910488654967    -0.940347501110    18.998403224000
           F          1.366617611874     0.845214115965    -0.202350583444    18.998403224000
           F          0.509043645942    -0.552765342677     1.148474658910    18.998403224000

  Nuclear repulsion =  277.788341713050215

  ==> Basis Set <==

  Basis Set: CC-PVTZ
    Number of shells: 78
    Number of basis function: 222
    Number of Cartesian functions: 255
    Spherical Harmonics?: true
    Max angular momentum: 3

  ==> DFJKGrad: Density-Fitted SCF Gradients <==

    Gradient:                    1
    J tasked:                  Yes
    K tasked:                  Yes
    wK tasked:                  No
    OpenMP threads:              4
    Integrals threads:           4
    Memory (MB):              1430
    Schwarz Cutoff:          0E+00
    Fitting Condition:       1E-12

   => Auxiliary Basis Set <=

  Basis Set: 
    Number of shells: 180
    Number of basis function: 564
    Number of Cartesian functions: 681
    Spherical Harmonics?: true
    Max angular momentum: 4


  -Total Gradient:
     Atom            X                  Y                   Z
    ------   -----------------  -----------------  -----------------
       1        0.000058114706    -0.000129016284    -0.000236869430
       2       -0.000047914897     0.000276894531     0.000260020758
       3        0.000194539198    -0.000305600786    -0.000091906251
       4        0.000057245354     0.000191190260     0.000040897886
       5       -0.000179991898     0.000135911180     0.000096423867
       6       -0.000015023899     0.000004540781    -0.000009547657
       7        0.000032626530    -0.000026411896    -0.000032161950
       8       -0.000079022966    -0.000113625461    -0.000027094744
       9       -0.000020572128    -0.000033882317     0.000000237519


*** tstop() called on cx1-27-3-4 at Sat Sep 10 15:50:44 2016
Module time:
	user time   =      12.20 seconds =       0.20 minutes
	system time =       0.35 seconds =       0.01 minutes
	total time  =          3 seconds =       0.05 minutes
Total time:
	user time   =     103.74 seconds =       1.73 minutes
	system time =       2.96 seconds =       0.05 minutes
	total time  =         30 seconds =       0.50 minutes

			-----------------------------------------
			 OPTKING 2.0: for geometry optimizations 
			  - R.A. King,  Bethel University        
			-----------------------------------------

	Previous internal coordinate definitions found.
	---Fragment 1 Geometry and Gradient---
	 H          -5.2775555238        0.5053463574       -0.4324136019
	 O          -3.7695901120       -0.1456366968        0.2386593895
	 C          -1.7817031465        1.5074846584       -0.1911690946
	 C           0.6628226938        0.0434987607       -0.0378360300
	 H          -1.8549455979        2.3612642181       -2.0509201910
	 H          -1.6940498221        2.9939074643        1.2165818091
	 F           0.8041139127       -1.7205742050       -1.7769992468
	 F           2.5825330148        1.5972232028       -0.3823871855
	 F           0.9619530805       -1.0445751134        2.1703025759
	             0.0000581147       -0.0001290163       -0.0002368694
	            -0.0000479149        0.0002768945        0.0002600208
	             0.0001945392       -0.0003056008       -0.0000919063
	             0.0000572454        0.0001911903        0.0000408979
	            -0.0001799919        0.0001359112        0.0000964239
	            -0.0000150239        0.0000045408       -0.0000095477
	             0.0000326265       -0.0000264119       -0.0000321619
	            -0.0000790230       -0.0001136255       -0.0000270947
	            -0.0000205721       -0.0000338823        0.0000002375

	---Fragment 1 Intrafragment Coordinates---
	 - Coordinate -           - BOHR/RAD -       - ANG/DEG -
	 R(1,2)           =         1.774282	       0.938910
	 R(2,3)           =         2.620927	       1.386935
	 R(3,4)           =         2.853502	       1.510008
	 R(3,5)           =         2.047676	       1.083584
	 R(3,6)           =         2.049121	       1.084348
	 R(4,7)           =         2.481251	       1.313021
	 R(4,8)           =         2.493604	       1.319559
	 R(4,9)           =         2.479770	       1.312238
	 B(1,2,3)         =         1.929624	     110.559306
	 B(2,3,4)         =         1.893728	     108.502614
	 B(2,3,5)         =         1.965793	     112.631662
	 B(2,3,6)         =         1.957688	     112.167281
	 B(3,4,7)         =         1.956138	     112.078460
	 B(3,4,8)         =         1.909662	     109.415587
	 B(3,4,9)         =         1.956600	     112.104928
	 B(4,3,5)         =         1.868538	     107.059315
	 B(4,3,6)         =         1.874024	     107.373649
	 B(5,3,6)         =         1.899725	     108.846197
	 B(7,4,8)         =         1.877902	     107.595861
	 B(7,4,9)         =         1.881070	     107.777360
	 B(8,4,9)         =         1.879233	     107.672103
	 D(1,2,3,4)       =        -2.763525	    -158.338320
	*D(1,2,3,5)       =        -0.698132	     -39.999994
	 D(1,2,3,6)       =         1.452361	      83.214183
	 D(2,3,4,7)       =         1.085945	      62.220044
	 D(2,3,4,8)       =        -3.115664	    -178.514374
	 D(2,3,4,9)       =        -1.032130	     -59.136694
	 D(5,3,4,7)       =        -1.040091	     -59.592812
	 D(5,3,4,8)       =         1.041486	      59.672771
	 D(5,3,4,9)       =         3.125020	     179.050450
	 D(6,3,4,7)       =        -3.077718	    -176.340236
	 D(6,3,4,8)       =        -0.996141	     -57.074653
	 D(6,3,4,9)       =         1.087393	      62.303026

	Current energy   :      -450.8445032419

	Energy change for the previous step:
		Projected    :         0.0000000188
		Actual       :        -0.0000029478

	Performing BFGS update.
	Previous computed or guess Hessian on step 1.
	Steps to be used in Hessian update: 4 3
	Taking RFO optimization step.
	Going to follow RFO solution 1.
	Using RFO vector 1.
	Norm of target step-size    0.00163
	Projected energy change by RFO approximation:        -0.0000001774

	Back-transformation to cartesian coordinates...
	Successfully converged to displaced geometry.

	Back-transformation to cartesian coordinates to adjust frozen coordinates...
	Successfully converged to displaced geometry.

	--- Internal Coordinate Step in ANG or DEG, aJ/ANG or AJ/DEG ---
	 ---------------------------------------------------------------------------
	   Coordinate                Previous        Force       Change         New 
	   ----------                --------       ------       ------       ------
	    1 R(1,2)          =      0.938910     0.000059     0.000005     0.938915
	    2 R(2,3)          =      1.386935     0.000801     0.000094     1.387029
	    3 R(3,4)          =      1.510008     0.000150     0.000025     1.510033
	    4 R(3,5)          =      1.083584     0.000202     0.000034     1.083618
	    5 R(3,6)          =      1.084348     0.000032    -0.000005     1.084344
	    6 R(4,7)          =      1.313021    -0.000356    -0.000076     1.312945
	    7 R(4,8)          =      1.319559     0.001054     0.000122     1.319681
	    8 R(4,9)          =      1.312238    -0.000104    -0.000020     1.312218
	    9 B(1,2,3)        =    110.559306    -0.000000     0.000631   110.559938
	   10 B(2,3,4)        =    108.502614    -0.000000     0.001821   108.504435
	   11 B(2,3,5)        =    112.631662     0.000004     0.032855   112.664516
	   12 B(2,3,6)        =    112.167281    -0.000000    -0.009616   112.157665
	   13 B(3,4,7)        =    112.078460    -0.000002     0.001181   112.079642
	   14 B(3,4,8)        =    109.415587    -0.000004    -0.014839   109.400748
	   15 B(3,4,9)        =    112.104928     0.000001     0.001400   112.106328
	   16 B(4,3,5)        =    107.059315    -0.000001    -0.001360   107.057955
	   17 B(4,3,6)        =    107.373649    -0.000002    -0.017601   107.356047
	   18 B(5,3,6)        =    108.846197    -0.000001    -0.008043   108.838154
	   19 B(7,4,8)        =    107.595861     0.000005     0.017370   107.613231
	   20 B(7,4,9)        =    107.777360     0.000001     0.008517   107.785877
	   21 B(8,4,9)        =    107.672103    -0.000001    -0.013260   107.658844
	   22 D(1,2,3,4)      =   -158.338320    -0.000000    -0.019393  -158.357713
	   23 *D(1,2,3,5)     =    -39.999994    -0.000000     0.000000   -39.999994
	   24 D(1,2,3,6)      =     83.214183     0.000000     0.006967    83.221150
	   25 D(2,3,4,7)      =     62.220044     0.000000     0.004297    62.224340
	   26 D(2,3,4,8)      =   -178.514374     0.000001     0.016928  -178.497445
	   27 D(2,3,4,9)      =    -59.136694     0.000000    -0.008632   -59.145327
	   28 D(5,3,4,7)      =    -59.592812    -0.000000    -0.035311   -59.628122
	   29 D(5,3,4,8)      =     59.672771    -0.000000    -0.022679    59.650092
	   30 D(5,3,4,9)      =    179.050450    -0.000001    -0.048240   179.002211
	   31 D(6,3,4,7)      =   -176.340236     0.000000    -0.016462  -176.356698
	   32 D(6,3,4,8)      =    -57.074653     0.000000    -0.003830   -57.078484
	   33 D(6,3,4,9)      =     62.303026    -0.000000    -0.029391    62.273635
	 ---------------------------------------------------------------------------
	Successfully symmetrized geometry.

  ==> Convergence Check <==

  Measures of convergence in internal coordinates in au.
  Criteria marked as inactive (o), active & met (*), and active & unmet ( ).
  ---------------------------------------------------------------------------------------------
   Step     Total Energy     Delta E     MAX Force     RMS Force      MAX Disp      RMS Disp   
  ---------------------------------------------------------------------------------------------
    Convergence Criteria    1.00e-06 *    3.00e-04 *             o    1.20e-03 *             o
  ---------------------------------------------------------------------------------------------
      5    -450.84450324   -2.95e-06      1.28e-04 *    3.74e-05 o    8.42e-04 *    2.84e-04 o  ~
  ---------------------------------------------------------------------------------------------


  **** Optimization is complete! (in 5 steps) ****

  ==> Optimization Summary <==

  Measures of convergence in internal coordinates in au.
  --------------------------------------------------------------------------------------------------------------- ~
   Step         Total Energy             Delta E       MAX Force       RMS Force        MAX Disp        RMS Disp  ~
  --------------------------------------------------------------------------------------------------------------- ~
      1    -450.843006473940   -450.843006473940      0.01486098      0.00419047      0.09628495      0.03875650  ~
      2    -450.844206760352     -0.001200286411      0.00503255      0.00211636      0.05751882      0.02178223  ~
      3    -450.844491069805     -0.000284309453      0.00130731      0.00043138      0.01785834      0.00745999  ~
      4    -450.844500294038     -0.000009224233      0.00069287      0.00025340      0.00592603      0.00254286  ~
      5    -450.844503241877     -0.000002947838      0.00012789      0.00003739      0.00084194      0.00028406  ~
  --------------------------------------------------------------------------------------------------------------- ~

	Writing optimization data to binary file.
	Final energy is   -450.8445032418766
	Final (previous) structure:
	Cartesian Geometry (in Angstrom)
	    H    -2.7927621002   0.2674177748  -0.2288234228
	    O    -1.9947811730  -0.0770676207   0.1262931095
	    C    -0.9428366976   0.7977265235  -0.1011623279
	    C     0.3507506629   0.0230185528  -0.0200219647
	    H    -0.9815949336   1.2495272077  -1.0853002217
	    H    -0.8964525561   1.5843075948   0.6437873658
	    F     0.4255187557  -0.9104886550  -0.9403475011
	    F     1.3666176119   0.8452141160  -0.2023505834
	    F     0.5090436459  -0.5527653427   1.1484746589
	Saving final (previous) structure.
			--------------------------
			 OPTKING Finished Execution 
			--------------------------

    Final optimized geometry and variables:
    Molecular point group: c1
    Full point group: C1

    Geometry (in Angstrom), charge = 0, multiplicity = 1:

    H           -2.792762100245     0.267417774765    -0.228823422829
    O           -1.994781173014    -0.077067620662     0.126293109538
    C           -0.942836697600     0.797726523499    -0.101162327875
    C            0.350750662894     0.023018552750    -0.020021964735
    H           -0.981594933600     1.249527207685    -1.085300221695
    H           -0.896452556083     1.584307594752     0.643787365756
    F            0.425518755727    -0.910488654967    -0.940347501110
    F            1.366617611874     0.845214115965    -0.202350583444
    F            0.509043645942    -0.552765342677     1.148474658910

	Cleaning optimization helper files.


Properties will be evaluated at   0.000000,   0.000000,   0.000000 Bohr

Properties computed using the  density matrix

  Nuclear Dipole Moment: (a.u.)
     X:    -6.5592      Y:     3.4900      Z:    -0.6333

  Electronic Dipole Moment: (a.u.)
     X:     5.6620      Y:    -2.5411      Z:     0.2683

  Dipole Moment: (a.u.)
     X:    -0.8972      Y:     0.9488      Z:    -0.3649     Total:     1.3559

  Dipole Moment: (Debye)
     X:    -2.2803      Y:     2.4117      Z:    -0.9275     Total:     3.4463

  Quadrupole Moment: (Debye Ang)
    XX:   -28.4684     YY:   -32.1503     ZZ:   -33.2304
    XY:    -3.9236     XZ:     2.3903     YZ:    -0.2626

  Traceless Quadrupole Moment: (Debye Ang)
    XX:     2.8146     YY:    -0.8672     ZZ:    -1.9474
    XY:    -3.9236     XZ:     2.3903     YZ:    -0.2626

  Mulliken Charges: (a.u.)
   Center  Symbol    Alpha    Beta     Spin     Total
       1     H     0.38913  0.38913  0.00000  0.22174
       2     O     4.18632  4.18632  0.00000 -0.37264
       3     C     2.98611  2.98611  0.00000  0.02777
       4     C     2.67650  2.67650  0.00000  0.64700
       5     H     0.46480  0.46480  0.00000  0.07041
       6     H     0.46490  0.46490  0.00000  0.07020
       7     F     4.60932  4.60932  0.00000 -0.21864
       8     F     4.61431  4.61431  0.00000 -0.22861
       9     F     4.60861  4.60861  0.00000 -0.21723

   Total alpha = 25.00000, Total beta = 25.00000, Total charge =  0.00000


*** Psi4 exiting successfully. Buy a developer a beer!
