    -----------------------------------------------------------------------
          Psi4: An Open-Source Ab Initio Electronic Structure Package
                              Psi4 (no tag) Driver

                          Git: Rev {detached?}  

    J. M. Turney, A. C. Simmonett, R. M. Parrish, E. G. Hohenstein,
    F. A. Evangelista, J. T. Fermann, B. J. Mintz, L. A. Burns, J. J. Wilke,
    M. L. Abrams, N. J. Russ, M. L. Leininger, C. L. Janssen, E. T. Seidl,
    W. D. Allen, H. F. Schaefer, R. A. King, E. F. Valeev, C. D. Sherrill,
    and T. D. Crawford, WIREs Comput. Mol. Sci. 2, 556-565 (2012)
    (doi: 10.1002/wcms.93)

                         Additional Contributions by
    A. E. DePrince, M. Saitow, U. Bozkaya, A. Yu. Sokolov
    -----------------------------------------------------------------------


    Psi4 started on: Fri Sep  9 20:32:32 2016

    Process ID:   4161
    PSI4DATADIR: /export131/home/mjharvey/miniconda3/share
    Memory level set to 256.000 MB

  ==> Input File <==

--------------------------------------------------------------------------
set {
	reference rhf
	basis cc-pvtz
}


set_num_threads( 4 )
memory 2 gb

molecule MOL {
0 1

H	 1.914133	 2.240228	 0.851051
N	 1.063089	 1.725566	 0.770821
C	 1.263552	 0.494993	 0.021953
H	 0.402615	 2.318068	 0.312507
C	 -0.016533	 -0.325589	 -0.026925
H	 2.035909	 -0.077034	 0.525186
H	 1.616490	 0.669944	 -0.995304
C	 -1.280353	 0.525521	 0.047747
H	 -0.016686	 -0.912532	 -0.939714
H	 -0.014099	 -1.037598	 0.796369
C	 -2.560681	 -0.301323	 -0.007747
H	 -1.279957	 1.241025	 -0.770189
H	 -1.270445	 1.110526	 0.963468
H	 -2.617064	 -0.872870	 -0.928010
H	 -3.439525	 0.331102	 0.043462
H	 -2.609427	 -1.002736	 0.818585

	symmetry c1
}
set optking {
	frozen_dihedral = ("
		6 3 5 9
	")
}

ee = optimize('scf')
oeprop('DIPOLE', 'QUADRUPOLE', 'MULLIKEN_CHARGES')
f=open( 'psi4out.xyz', 'w' )
f.write( "16  " )
f.write( str(ee) + "\n" )
f.write( MOL.save_string_xyz() )
f.close()
--------------------------------------------------------------------------

  Memory set to   2.000 GiB by Python script.
gradient() will perform analytic gradient computation.

*** tstart() called on cx1-28-12-4
*** at Fri Sep  9 20:32:32 2016


         ---------------------------------------------------------
                                   SCF
            by Justin Turney, Rob Parrish, and Andy Simmonett
                              RHF Reference
                        4 Threads,   2000 MiB Core
         ---------------------------------------------------------

  ==> Geometry <==

    Molecular point group: c1
    Full point group: C1

    Geometry (in Angstrom), charge = 0, multiplicity = 1:

       Center              X                  Y                   Z               Mass       
    ------------   -----------------  -----------------  -----------------  -----------------
           H          2.209129223192     1.789737887876     0.688278394561     1.007825032070
           N          1.358085223192     1.275075887876     0.608048394561    14.003074004780
           C          1.558548223192     0.044502887876    -0.140819605439    12.000000000000
           H          0.697611223192     1.867577887876     0.149734394561     1.007825032070
           C          0.278463223192    -0.776079112124    -0.189697605439    12.000000000000
           H          2.330905223192    -0.527524112124     0.362413394561     1.007825032070
           H          1.911486223192     0.219453887876    -1.158076605439     1.007825032070
           C         -0.985356776808     0.075030887876    -0.115025605439    12.000000000000
           H          0.278310223192    -1.363022112124    -1.102486605439     1.007825032070
           H          0.280897223192    -1.488088112124     0.633596394561     1.007825032070
           C         -2.265684776808    -0.751813112124    -0.170519605439    12.000000000000
           H         -0.984960776808     0.790534887876    -0.932961605439     1.007825032070
           H         -0.975448776808     0.660035887876     0.800695394561     1.007825032070
           H         -2.322067776808    -1.323360112124    -1.090782605439     1.007825032070
           H         -3.144528776808    -0.119388112124    -0.119310605439     1.007825032070
           H         -2.314430776808    -1.453226112124     0.655812394561     1.007825032070

  Running in c1 symmetry.

  Rotational constants: A =      0.38229  B =      0.08592  C =      0.07484 [cm^-1]
  Rotational constants: A =  11460.79185  B =   2575.69408  C =   2243.67294 [MHz]
  Nuclear repulsion =  191.285267903246051

  Charge       = 0
  Multiplicity = 1
  Electrons    = 42
  Nalpha       = 21
  Nbeta        = 21

  ==> Algorithm <==

  SCF Algorithm Type is DF.
  DIIS enabled.
  MOM disabled.
  Fractional occupation disabled.
  Guess Type is CORE.
  Energy threshold   = 1.00e-08
  Density threshold  = 1.00e-08
  Integral threshold = 0.00e+00

  ==> Primary Basis <==

  Basis Set: CC-PVTZ
    Number of shells: 116
    Number of basis function: 304
    Number of Cartesian functions: 340
    Spherical Harmonics?: true
    Max angular momentum: 3

  ==> Pre-Iterations <==

   -------------------------------------------------------
    Irrep   Nso     Nmo     Nalpha   Nbeta   Ndocc  Nsocc
   -------------------------------------------------------
     A        304     304       0       0       0       0
   -------------------------------------------------------
    Total     304     304      21      21      21       0
   -------------------------------------------------------

 OEINTS: Overlap, kinetic, potential, dipole, and quadrupole integrals
         stored in file 35.

  ==> Integral Setup <==

  ==> DFJK: Density-Fitted J/K Matrices <==

    J tasked:                  Yes
    K tasked:                  Yes
    wK tasked:                  No
    OpenMP threads:              4
    Integrals threads:           4
    Memory (MB):              1430
    Algorithm:                Core
    Integral Cache:           NONE
    Schwarz Cutoff:          1E-12
    Fitting Condition:       1E-12

   => Auxiliary Basis Set <=

  Basis Set: 
    Number of shells: 235
    Number of basis function: 725
    Number of Cartesian functions: 865
    Spherical Harmonics?: true
    Max angular momentum: 4

  Minimum eigenvalue in the overlap matrix is 3.6281830468E-04.
  Using Symmetric Orthogonalization.
  SCF Guess: Core (One-Electron) Hamiltonian.

  ==> Iterations <==

                           Total Energy        Delta E     RMS |[F,P]|

   @DF-RHF iter   1:  -139.14740412889518   -1.39147e+02   4.17910e-02 
   @DF-RHF iter   2:   -74.82611912047366    6.43213e+01   3.58717e-02 DIIS
   @DF-RHF iter   3:  -165.80240925606705   -9.09763e+01   1.94489e-02 DIIS
   @DF-RHF iter   4:  -148.88557863092166    1.69168e+01   2.56063e-02 DIIS
   @DF-RHF iter   5:  -211.81955109106889   -6.29340e+01   3.33729e-03 DIIS
   @DF-RHF iter   6:  -212.32612497188234   -5.06574e-01   1.20466e-03 DIIS
   @DF-RHF iter   7:  -212.38988724360604   -6.37623e-02   1.77771e-04 DIIS
   @DF-RHF iter   8:  -212.39209848599018   -2.21124e-03   6.38856e-05 DIIS
   @DF-RHF iter   9:  -212.39232928440481   -2.30798e-04   1.74918e-05 DIIS
   @DF-RHF iter  10:  -212.39235333415354   -2.40497e-05   5.80752e-06 DIIS
   @DF-RHF iter  11:  -212.39235585144968   -2.51730e-06   1.60714e-06 DIIS
   @DF-RHF iter  12:  -212.39235614167148   -2.90222e-07   4.82512e-07 DIIS
   @DF-RHF iter  13:  -212.39235616934388   -2.76724e-08   1.33814e-07 DIIS
   @DF-RHF iter  14:  -212.39235617189985   -2.55596e-09   3.66067e-08 DIIS
   @DF-RHF iter  15:  -212.39235617205776   -1.57911e-10   1.07078e-08 DIIS
   @DF-RHF iter  16:  -212.39235617207163   -1.38698e-11   2.79464e-09 DIIS

  ==> Post-Iterations <==

    Orbital Energies (a.u.)
    -----------------------

    Doubly Occupied:                                                      

       1A    -15.525509     2A    -11.237502     3A    -11.209235  
       4A    -11.207395     5A    -11.203743     6A     -1.180676  
       7A     -1.054728     8A     -0.961656     9A     -0.854473  
      10A     -0.776193    11A     -0.666058    12A     -0.650010  
      13A     -0.598449    14A     -0.584679    15A     -0.549996  
      16A     -0.524786    17A     -0.507311    18A     -0.472107  
      19A     -0.468133    20A     -0.453601    21A     -0.379605  

    Virtual:                                                              

      22A      0.139302    23A      0.157194    24A      0.165274  
      25A      0.181529    26A      0.203931    27A      0.215232  
      28A      0.225390    29A      0.239329    30A      0.244580  
      31A      0.258908    32A      0.277648    33A      0.310698  
      34A      0.343526    35A      0.364524    36A      0.372333  
      37A      0.400620    38A      0.411966    39A      0.445225  
      40A      0.458346    41A      0.473039    42A      0.492128  
      43A      0.520065    44A      0.528405    45A      0.561137  
      46A      0.578372    47A      0.601294    48A      0.615404  
      49A      0.617280    50A      0.629072    51A      0.635501  
      52A      0.650069    53A      0.664745    54A      0.679902  
      55A      0.691194    56A      0.692507    57A      0.707891  
      58A      0.718979    59A      0.725160    60A      0.730489  
      61A      0.750527    62A      0.762587    63A      0.789190  
      64A      0.823695    65A      0.834429    66A      0.889739  
      67A      0.925298    68A      0.940242    69A      0.958624  
      70A      0.985225    71A      1.003868    72A      1.024504  
      73A      1.057376    74A      1.074422    75A      1.086944  
      76A      1.115730    77A      1.133231    78A      1.161595  
      79A      1.176044    80A      1.221211    81A      1.233528  
      82A      1.252745    83A      1.264054    84A      1.268769  
      85A      1.290431    86A      1.308243    87A      1.314490  
      88A      1.332198    89A      1.349408    90A      1.363011  
      91A      1.379261    92A      1.393595    93A      1.400614  
      94A      1.418533    95A      1.434950    96A      1.451738  
      97A      1.456954    98A      1.487396    99A      1.494109  
     100A      1.511468   101A      1.540005   102A      1.547368  
     103A      1.550152   104A      1.593557   105A      1.594027  
     106A      1.615968   107A      1.625025   108A      1.667394  
     109A      1.675788   110A      1.696855   111A      1.704206  
     112A      1.733911   113A      1.764845   114A      1.781778  
     115A      1.804833   116A      1.840192   117A      1.849571  
     118A      1.862222   119A      1.903543   120A      1.923048  
     121A      1.951403   122A      1.980834   123A      2.080830  
     124A      2.085004   125A      2.126245   126A      2.500283  
     127A      2.578454   128A      2.606285   129A      2.631132  
     130A      2.649364   131A      2.672715   132A      2.715296  
     133A      2.748002   134A      2.762550   135A      2.800791  
     136A      2.834171   137A      2.841718   138A      2.859972  
     139A      2.893112   140A      2.910831   141A      2.928452  
     142A      2.956854   143A      2.992523   144A      3.010921  
     145A      3.026886   146A      3.058744   147A      3.092811  
     148A      3.109225   149A      3.120358   150A      3.148099  
     151A      3.160784   152A      3.190150   153A      3.203902  
     154A      3.215155   155A      3.238720   156A      3.256844  
     157A      3.273267   158A      3.310476   159A      3.327132  
     160A      3.338244   161A      3.361921   162A      3.374195  
     163A      3.380311   164A      3.414346   165A      3.420209  
     166A      3.434267   167A      3.438799   168A      3.443516  
     169A      3.459399   170A      3.470595   171A      3.509204  
     172A      3.525662   173A      3.534044   174A      3.554362  
     175A      3.566144   176A      3.593465   177A      3.611772  
     178A      3.636189   179A      3.643334   180A      3.667481  
     181A      3.682403   182A      3.695065   183A      3.726777  
     184A      3.757510   185A      3.774465   186A      3.789927  
     187A      3.804210   188A      3.824239   189A      3.835772  
     190A      3.852633   191A      3.864629   192A      3.888552  
     193A      3.913371   194A      3.923223   195A      3.930095  
     196A      3.958203   197A      3.982772   198A      3.999918  
     199A      4.028035   200A      4.030412   201A      4.061232  
     202A      4.080737   203A      4.097232   204A      4.119134  
     205A      4.148697   206A      4.157100   207A      4.169718  
     208A      4.182050   209A      4.200963   210A      4.216359  
     211A      4.228000   212A      4.246987   213A      4.248850  
     214A      4.282608   215A      4.301159   216A      4.303606  
     217A      4.323914   218A      4.344632   219A      4.354973  
     220A      4.398857   221A      4.409539   222A      4.417594  
     223A      4.429443   224A      4.436758   225A      4.457973  
     226A      4.484547   227A      4.491555   228A      4.503343  
     229A      4.514674   230A      4.537748   231A      4.557991  
     232A      4.588001   233A      4.595731   234A      4.613733  
     235A      4.646520   236A      4.656167   237A      4.661276  
     238A      4.695028   239A      4.711652   240A      4.734242  
     241A      4.745884   242A      4.770762   243A      4.810362  
     244A      4.838204   245A      4.865005   246A      4.884854  
     247A      4.959581   248A      5.001002   249A      5.006719  
     250A      5.056166   251A      5.102091   252A      5.123962  
     253A      5.136424   254A      5.172428   255A      5.196943  
     256A      5.244168   257A      5.259382   258A      5.291636  
     259A      5.317347   260A      5.320891   261A      5.344559  
     262A      5.396460   263A      5.413981   264A      5.438656  
     265A      5.449330   266A      5.469350   267A      5.489425  
     268A      5.552623   269A      5.595192   270A      5.606951  
     271A      5.619477   272A      5.649274   273A      5.723104  
     274A      5.731484   275A      5.739135   276A      5.778602  
     277A      5.793581   278A      5.804300   279A      5.848398  
     280A      5.895774   281A      5.901915   282A      5.930142  
     283A      5.946750   284A      5.991639   285A      6.014710  
     286A      6.056617   287A      6.103199   288A      6.190457  
     289A      6.240842   290A      6.312445   291A      6.330364  
     292A      6.334441   293A      6.370075   294A      6.448606  
     295A      6.469943   296A      6.537199   297A      6.630729  
     298A      6.715369   299A      7.409324   300A     12.550899  
     301A     13.506180   302A     13.760040   303A     14.111939  
     304A     14.296744  

    Final Occupation by Irrep:
              A 
    DOCC [    21 ]

  Energy converged.

  @DF-RHF Final Energy:  -212.39235617207163

   => Energetics <=

    Nuclear Repulsion Energy =            191.2852679032460514
    One-Electron Energy =                -665.2235575237784815
    Two-Electron Energy =                 261.5459334484609144
    DFT Exchange-Correlation Energy =       0.0000000000000000
    Empirical Dispersion Energy =           0.0000000000000000
    PCM Polarization Energy =               0.0000000000000000
    EFP Energy =                            0.0000000000000000
    Total Energy =                       -212.3923561720715156

    Alert: EFP and PCM quantities not currently incorporated into SCF psivars.

Properties will be evaluated at   0.000000,   0.000000,   0.000000 Bohr
  ==> Properties <==


Properties computed using the SCF density matrix

  Nuclear Dipole Moment: (a.u.)
     X:    -1.9099      Y:    -0.8917      Z:    -1.0453

  Electronic Dipole Moment: (a.u.)
     X:     2.0988      Y:     1.0573      Z:     0.6489

  Dipole Moment: (a.u.)
     X:     0.1889      Y:     0.1655      Z:    -0.3963     Total:     0.4692

  Dipole Moment: (Debye)
     X:     0.4802      Y:     0.4207      Z:    -1.0074     Total:     1.1927


  Saving occupied orbitals to File 180.

*** tstop() called on cx1-28-12-4 at Fri Sep  9 20:32:43 2016
Module time:
	user time   =      32.24 seconds =       0.54 minutes
	system time =       0.50 seconds =       0.01 minutes
	total time  =         11 seconds =       0.18 minutes
Total time:
	user time   =      32.24 seconds =       0.54 minutes
	system time =       0.50 seconds =       0.01 minutes
	total time  =         11 seconds =       0.18 minutes

*** tstart() called on cx1-28-12-4
*** at Fri Sep  9 20:32:43 2016


         ------------------------------------------------------------
                                   SCF GRAD                          
                          Rob Parrish, Justin Turney,                
                       Andy Simmonett, and Alex Sokolov              
         ------------------------------------------------------------

  ==> Geometry <==

    Molecular point group: c1
    Full point group: C1

    Geometry (in Angstrom), charge = 0, multiplicity = 1:

       Center              X                  Y                   Z               Mass       
    ------------   -----------------  -----------------  -----------------  -----------------
           H          2.209129223192     1.789737887876     0.688278394561     1.007825032070
           N          1.358085223192     1.275075887876     0.608048394561    14.003074004780
           C          1.558548223192     0.044502887876    -0.140819605439    12.000000000000
           H          0.697611223192     1.867577887876     0.149734394561     1.007825032070
           C          0.278463223192    -0.776079112124    -0.189697605439    12.000000000000
           H          2.330905223192    -0.527524112124     0.362413394561     1.007825032070
           H          1.911486223192     0.219453887876    -1.158076605439     1.007825032070
           C         -0.985356776808     0.075030887876    -0.115025605439    12.000000000000
           H          0.278310223192    -1.363022112124    -1.102486605439     1.007825032070
           H          0.280897223192    -1.488088112124     0.633596394561     1.007825032070
           C         -2.265684776808    -0.751813112124    -0.170519605439    12.000000000000
           H         -0.984960776808     0.790534887876    -0.932961605439     1.007825032070
           H         -0.975448776808     0.660035887876     0.800695394561     1.007825032070
           H         -2.322067776808    -1.323360112124    -1.090782605439     1.007825032070
           H         -3.144528776808    -0.119388112124    -0.119310605439     1.007825032070
           H         -2.314430776808    -1.453226112124     0.655812394561     1.007825032070

  Nuclear repulsion =  191.285267903246051

  ==> Basis Set <==

  Basis Set: CC-PVTZ
    Number of shells: 116
    Number of basis function: 304
    Number of Cartesian functions: 340
    Spherical Harmonics?: true
    Max angular momentum: 3

  ==> DFJKGrad: Density-Fitted SCF Gradients <==

    Gradient:                    1
    J tasked:                  Yes
    K tasked:                  Yes
    wK tasked:                  No
    OpenMP threads:              4
    Integrals threads:           4
    Memory (MB):              1430
    Schwarz Cutoff:          0E+00
    Fitting Condition:       1E-12

   => Auxiliary Basis Set <=

  Basis Set: 
    Number of shells: 235
    Number of basis function: 725
    Number of Cartesian functions: 865
    Spherical Harmonics?: true
    Max angular momentum: 4


  -Total Gradient:
     Atom            X                  Y                   Z
    ------   -----------------  -----------------  -----------------
       1       -0.000468018040     0.000593511212     0.000073701898
       2       -0.006172242977    -0.003341442491    -0.001771155937
       3       -0.005097896400    -0.004122017544     0.000891832959
       4       -0.003281691541    -0.000022035432    -0.001122983291
       5        0.003862709002     0.005052885194    -0.004842010038
       6       -0.000299353868    -0.001101535938     0.001865087389
       7        0.000194712920    -0.002114314953    -0.000696267424
       8        0.005658270220     0.001655320063    -0.000707501759
       9        0.001518190796     0.001150697026    -0.000345140982
      10        0.002449663475    -0.002035946457     0.000580103645
      11       -0.000690225643     0.000309480632     0.001509674468
      12        0.001381297147    -0.000096158116     0.001736985759
      13        0.000659064704     0.003938119663     0.002777150858
      14        0.000560592477     0.000394878428     0.000134142682
      15       -0.000000807810    -0.000076074492    -0.000047730055
      16       -0.000274264465    -0.000185366798    -0.000035890173


*** tstop() called on cx1-28-12-4 at Fri Sep  9 20:33:00 2016
Module time:
	user time   =      64.11 seconds =       1.07 minutes
	system time =       0.51 seconds =       0.01 minutes
	total time  =         17 seconds =       0.28 minutes
Total time:
	user time   =      96.38 seconds =       1.61 minutes
	system time =       1.01 seconds =       0.02 minutes
	total time  =         28 seconds =       0.47 minutes
CURRENT ENERGY: -212.3923561721

			-----------------------------------------
			 OPTKING 2.0: for geometry optimizations 
			  - R.A. King,  Bethel University        
			-----------------------------------------

	Internal coordinates to be generated automatically.
	Detected frag with atoms:  1 2 3 4 5 6 7 8 9 10 11 12 13 14 15 16
	---Fragment 1 Bond Connectivity---
	 1 : 2
	 2 : 1 3 4
	 3 : 2 5 6 7
	 4 : 2
	 5 : 3 8 9 10
	 6 : 3
	 7 : 3
	 8 : 5 11 12 13
	 9 : 5
	 10 : 5
	 11 : 8 14 15 16
	 12 : 8
	 13 : 8
	 14 : 11
	 15 : 11
	 16 : 11

	Assuming in current code that numbering for constraints corresponds to unified fragment.
	Frozen dihedral atom list: 
	     6     3     5     9
	---Fragment 1 Geometry and Gradient---
	 H           4.1746492240        3.3821144577        1.3006576689
	 N           2.5664091370        2.4095442267        1.1490449413
	 C           2.9452293067        0.0840982702       -0.2661104884
	 H           1.3182941591        3.5292107399        0.2829569984
	 C           0.5262192299       -1.4665769794       -0.3584765223
	 H           4.4047725135       -0.9968761004        0.6848620626
	 H           3.6121854686        0.4147077469       -2.1884476252
	 C          -1.8620544513        0.1417878296       -0.2173668925
	 H           0.5259301018       -2.5757385050       -2.0833977495
	 H           0.5308188233       -2.8120789935        1.1973236645
	 C          -4.2815237316       -1.4207208850       -0.3222353546
	 H          -1.8613061198        1.4938944366       -1.7630419268
	 H          -1.8433310448        1.2472870660        1.5130950116
	 H          -4.3880721602       -2.5007881871       -2.0612803948
	 H          -5.9422982051       -0.2256108354       -0.2254643690
	 H          -4.3736403217       -2.7461993611        1.2393058203
	            -0.0004680180        0.0005935112        0.0000737019
	            -0.0061722430       -0.0033414425       -0.0017711559
	            -0.0050978964       -0.0041220175        0.0008918330
	            -0.0032816915       -0.0000220354       -0.0011229833
	             0.0038627090        0.0050528852       -0.0048420100
	            -0.0002993539       -0.0011015359        0.0018650874
	             0.0001947129       -0.0021143150       -0.0006962674
	             0.0056582702        0.0016553201       -0.0007075018
	             0.0015181908        0.0011506970       -0.0003451410
	             0.0024496635       -0.0020359465        0.0005801036
	            -0.0006902256        0.0003094806        0.0015096745
	             0.0013812971       -0.0000961581        0.0017369858
	             0.0006590647        0.0039381197        0.0027771509
	             0.0005605925        0.0003948784        0.0001341427
	            -0.0000008078       -0.0000760745       -0.0000477301
	            -0.0002742645       -0.0001853668       -0.0000358902

	Previous optimization step data not found.  Starting new optimization.

	---Fragment 1 Intrafragment Coordinates---
	 - Coordinate -           - BOHR/RAD -       - ANG/DEG -
	 R(1,2)           =         1.885554	       0.997792
	 R(2,3)           =         2.748430	       1.454407
	 R(2,4)           =         1.887208	       0.998667
	 R(3,5)           =         2.874845	       1.521303
	 R(3,6)           =         2.050151	       1.084893
	 R(3,7)           =         2.061435	       1.090864
	 R(5,8)           =         2.882811	       1.525518
	 R(5,9)           =         2.050754	       1.085212
	 R(5,10)          =         2.056918	       1.088474
	 R(8,11)          =         2.882059	       1.525120
	 R(8,12)          =         2.053608	       1.086722
	 R(8,13)          =         2.053528	       1.086680
	 R(11,14)         =         2.049921	       1.084771
	 R(11,15)         =         2.048371	       1.083951
	 R(11,16)         =         2.050314	       1.084980
	 B(1,2,3)         =         1.939343	     111.116172
	 B(1,2,4)         =         1.870218	     107.155626
	 B(2,3,5)         =         1.935794	     110.912854
	 B(2,3,6)         =         1.881162	     107.782670
	 B(2,3,7)         =         1.970397	     112.895439
	 B(3,2,4)         =         1.935681	     110.906345
	 B(3,5,8)         =         1.976412	     113.240064
	 B(3,5,9)         =         1.895341	     108.595038
	 B(3,5,10)        =         1.903557	     109.065785
	 B(5,3,6)         =         1.906609	     109.240671
	 B(5,3,7)         =         1.905814	     109.195072
	 B(5,8,11)        =         1.972760	     113.030795
	 B(5,8,12)        =         1.907302	     109.280362
	 B(5,8,13)        =         1.911386	     109.514373
	 B(6,3,7)         =         1.861664	     106.665475
	 B(8,5,9)         =         1.920699	     110.047937
	 B(8,5,10)        =         1.906868	     109.255488
	 B(8,11,14)       =         1.939227	     111.109541
	 B(8,11,15)       =         1.941863	     111.260542
	 B(8,11,16)       =         1.939591	     111.130369
	 B(9,5,10)        =         1.857098	     106.403866
	 B(11,8,12)       =         1.906966	     109.261110
	 B(11,8,13)       =         1.907289	     109.279601
	 B(12,8,13)       =         1.854384	     106.248395
	 B(14,11,15)      =         1.881095	     107.778809
	 B(14,11,16)      =         1.878802	     107.647405
	 B(15,11,16)      =         1.880499	     107.744632
	 D(1,2,3,5)       =         3.082843	     176.633873
	 D(1,2,3,6)       =         0.996472	      57.093627
	 D(1,2,3,7)       =        -1.055004	     -60.447267
	 D(2,3,5,8)       =         0.502343	      28.782155
	 D(2,3,5,9)       =         2.641326	     151.336820
	 D(2,3,5,10)      =        -1.624872	     -93.098318
	 D(3,5,8,11)      =         3.137220	     179.749442
	 D(3,5,8,12)      =         1.009650	      57.848704
	 D(3,5,8,13)      =        -1.015037	     -58.157327
	 D(4,2,3,5)       =        -1.122032	     -64.287724
	 D(4,2,3,6)       =         3.074782	     176.172030
	 D(4,2,3,7)       =         1.023306	      58.631136
	 D(5,8,11,14)     =        -1.041738	     -59.687163
	 D(5,8,11,15)     =        -3.137776	    -179.781323
	 D(5,8,11,16)     =         1.049881	      60.153758
	 D(6,3,5,8)       =         2.573407	     147.445363
	*D(6,3,5,9)       =        -1.570796	     -89.999971
	 D(6,3,5,10)      =         0.446192	      25.564890
	 D(7,3,5,8)       =        -1.679880	     -96.250007
	 D(7,3,5,9)       =         0.459103	      26.304659
	 D(7,3,5,10)      =         2.476090	     141.869520
	 D(9,5,8,11)      =         1.012384	      58.005322
	 D(9,5,8,12)      =        -1.115185	     -63.895416
	 D(9,5,8,13)      =        -3.139873	    -179.901447
	 D(10,5,8,11)     =        -1.020604	     -58.476283
	 D(10,5,8,12)     =         3.135012	     179.622979
	 D(10,5,8,13)     =         1.110325	      63.616948
	 D(12,8,11,14)    =         1.086020	      62.224386
	 D(12,8,11,15)    =        -1.010018	     -57.869774
	 D(12,8,11,16)    =        -3.105546	    -177.934693
	 D(13,8,11,14)    =         3.108224	     178.088132
	 D(13,8,11,15)    =         1.012186	      57.993972
	 D(13,8,11,16)    =        -1.083342	     -62.070947

	Current energy   :      -212.3923561721

	Generating empirical Hessian (Schlegel '84) for each fragment.
	Taking RFO optimization step.
	Going to follow RFO solution 1.
	Using RFO vector 1.
	Norm of target step-size    0.32249
	Projected energy change by RFO approximation:        -0.0107847217

	Back-transformation to cartesian coordinates...
	Successfully converged to displaced geometry.

	Back-transformation to cartesian coordinates to adjust frozen coordinates...
	Successfully converged to displaced geometry.

	--- Internal Coordinate Step in ANG or DEG, aJ/ANG or AJ/DEG ---
	 ---------------------------------------------------------------------------
	   Coordinate                Previous        Force       Change         New 
	   ----------                --------       ------       ------       ------
	    1 R(1,2)          =      0.997792     0.000718     0.000094     0.997887
	    2 R(2,3)          =      1.454407     0.020006     0.003337     1.457743
	    3 R(2,4)          =      0.998667    -0.022019    -0.002900     0.995767
	    4 R(3,5)          =      1.521303     0.149968     0.030993     1.552296
	    5 R(3,6)          =      1.084893    -0.010157    -0.001800     1.083094
	    6 R(3,7)          =      1.090864    -0.003075    -0.000556     1.090309
	    7 R(5,8)          =      1.525518     0.020315     0.004253     1.529771
	    8 R(5,9)          =      1.085212     0.002737     0.000486     1.085698
	    9 R(5,10)         =      1.088474    -0.014632    -0.002623     1.085851
	   10 R(8,11)         =      1.525120    -0.000353    -0.000074     1.525046
	   11 R(8,12)         =      1.086722     0.011288     0.002012     1.088735
	   12 R(8,13)         =      1.086680    -0.036797    -0.006558     1.080122
	   13 R(11,14)        =      1.084771     0.002892     0.000512     1.085284
	   14 R(11,15)        =      1.083951     0.000379     0.000067     1.084018
	   15 R(11,16)        =      1.084980    -0.000864    -0.000153     1.084827
	   16 B(1,2,3)        =    111.116172    -0.000122    -0.686899   110.429273
	   17 B(1,2,4)        =    107.155626    -0.000047    -0.480112   106.675513
	   18 B(2,3,5)        =    110.912854     0.001471     4.966062   115.878916
	   19 B(2,3,6)        =    107.782670    -0.000647    -4.136642   103.646027
	   20 B(2,3,7)        =    112.895439    -0.000464    -0.891305   112.004135
	   21 B(3,2,4)        =    110.906345     0.000144     0.504586   111.410931
	   22 B(3,5,8)        =    113.240064     0.001453     4.861565   118.101629
	   23 B(3,5,9)        =    108.595038    -0.000351    -1.238846   107.356193
	   24 B(3,5,10)       =    109.065785    -0.000304     0.960152   110.025937
	   25 B(5,3,6)        =    109.240671    -0.000354    -1.388817   107.851854
	   26 B(5,3,7)        =    109.195072    -0.000314     0.627639   109.822711
	   27 B(5,8,11)       =    113.030795    -0.000121    -0.605874   112.424921
	   28 B(5,8,12)       =    109.280362     0.000107     0.523517   109.803879
	   29 B(5,8,13)       =    109.514373     0.000028     0.141487   109.655860
	   30 B(6,3,7)        =    106.665475     0.000245     0.348651   107.014125
	   31 B(8,5,9)        =    110.047937    -0.000710    -4.673488   105.374450
	   32 B(8,5,10)       =    109.255488    -0.000442    -0.898025   108.357463
	   33 B(8,11,14)      =    111.109541     0.000076     0.392799   111.502340
	   34 B(8,11,15)      =    111.260542    -0.000014    -0.076286   111.184256
	   35 B(8,11,16)      =    111.130369    -0.000047    -0.243472   110.886896
	   36 B(9,5,10)       =    106.403866     0.000290     0.615338   107.019204
	   37 B(11,8,12)      =    109.261110    -0.000068    -0.705746   108.555364
	   38 B(11,8,13)      =    109.279601     0.000024    -0.102538   109.177063
	   39 B(12,8,13)      =    106.248395     0.000040     0.823929   107.072324
	   40 B(14,11,15)     =    107.778809    -0.000022    -0.033979   107.744830
	   41 B(14,11,16)     =    107.647405    -0.000011    -0.019342   107.628063
	   42 B(15,11,16)     =    107.744632     0.000016    -0.024752   107.719880
	   43 D(1,2,3,5)      =    176.633873    -0.000031    -4.454048   172.179825
	   44 D(1,2,3,6)      =     57.093627    -0.000038    -2.844166    54.249461
	   45 D(1,2,3,7)      =    -60.447267     0.000050    -0.319331   -60.766598
	   46 D(2,3,5,8)      =     28.782155     0.000071     6.838730    35.620884
	   47 D(2,3,5,9)      =    151.336820     0.000029     3.086345   154.423165
	   48 D(2,3,5,10)     =    -93.098318     0.000026     3.644820   -89.453499
	   49 D(3,5,8,11)     =    179.749442    -0.000029    -4.160803   175.588639
	   50 D(3,5,8,12)     =     57.848704    -0.000008    -3.223980    54.624724
	   51 D(3,5,8,13)     =    -58.157327    -0.000036    -4.602552   -62.759880
	   52 D(4,2,3,5)      =    -64.287724    -0.000041    -5.175405   -69.463129
	   53 D(4,2,3,6)      =    176.172030    -0.000048    -3.565523   172.606507
	   54 D(4,2,3,7)      =     58.631136     0.000040    -1.040687    57.590449
	   55 D(5,8,11,14)    =    -59.687163    -0.000002    -0.046937   -59.734100
	   56 D(5,8,11,15)    =   -179.781323    -0.000006    -0.217729  -179.999053
	   57 D(5,8,11,16)    =     60.153758    -0.000001     0.027376    60.181134
	   58 D(6,3,5,8)      =    147.445363     0.000042     3.752385   151.197748
	   59 *D(6,3,5,9)     =    -89.999971     0.000000     0.000000   -89.999971
	   60 D(6,3,5,10)     =     25.564890    -0.000002     0.558475    26.123365
	   61 D(7,3,5,8)      =    -96.250007     0.000024     3.734579   -92.515428
	   62 D(7,3,5,9)      =     26.304659    -0.000018    -0.017806    26.286852
	   63 D(7,3,5,10)     =    141.869520    -0.000021     0.540668   142.410189
	   64 D(9,5,8,11)     =     58.005322    -0.000037    -2.255207    55.750115
	   65 D(9,5,8,12)     =    -63.895416    -0.000016    -1.318384   -65.213800
	   66 D(9,5,8,13)     =   -179.901447    -0.000045    -2.696956  -182.598403
	   67 D(10,5,8,11)    =    -58.476283     0.000034    -0.045917   -58.522200
	   68 D(10,5,8,12)    =    179.622979     0.000055     0.890906   180.513885
	   69 D(10,5,8,13)    =     63.616948     0.000027    -0.487667    63.129281
	   70 D(12,8,11,14)   =     62.224386    -0.000001    -0.280868    61.943518
	   71 D(12,8,11,15)   =    -57.869774    -0.000004    -0.451660   -58.321435
	   72 D(12,8,11,16)   =   -177.934693     0.000001    -0.206555  -178.141248
	   73 D(13,8,11,14)   =    178.088132     0.000004     0.253963   178.342095
	   74 D(13,8,11,15)   =     57.993972     0.000001     0.083171    58.077143
	   75 D(13,8,11,16)   =    -62.070947     0.000006     0.328277   -61.742671
	 ---------------------------------------------------------------------------

  ==> Convergence Check <==

  Measures of convergence in internal coordinates in au.
  Criteria marked as inactive (o), active & met (*), and active & unmet ( ).
  --------------------------------------------------------------------------------------------- ~
   Step     Total Energy     Delta E     MAX Force     RMS Force      MAX Disp      RMS Disp    ~
  --------------------------------------------------------------------------------------------- ~
    Convergence Criteria    1.00e-06 *    3.00e-04 *             o    1.20e-03 *             o  ~
  --------------------------------------------------------------------------------------------- ~
      1    -212.39235617   -2.12e+02      1.93e-02      4.57e-03 o    1.19e-01      3.72e-02 o  ~
  ---------------------------------------------------------------------------------------------

	Writing optimization data to binary file.
	Structure for next step:
	Cartesian Geometry (in Angstrom)
	    H     2.4807007153   1.7117173948   0.6665695087
	    N     1.5600752654   1.3288312632   0.6262587461
	    C     1.5563687812   0.0930278740  -0.1469115436
	    H     0.9805763357   2.0216427487   0.2070394506
	    C     0.2280914622  -0.7101782882  -0.1341582295
	    H     2.3148319430  -0.5119224453   0.3346075739
	    H     1.8815594862   0.2534875481  -1.1751513621
	    C    -1.0865631946   0.0716702977  -0.1097358600
	    H     0.1963986189  -1.2981805011  -1.0462926421
	    H     0.2249695730  -1.4104756371   0.6956887594
	    C    -2.3064848322  -0.8382465375  -0.2077568805
	    H    -1.1122363194   0.7761432467  -0.9394358022
	    H    -1.1480386898   0.6507611473   0.7999551932
	    H    -2.2975501988  -1.4181276335  -1.1250893180
	    H    -3.2258624375  -0.2642457768  -0.1886849166
	    H    -2.3358790970  -1.5364555775   0.6219955500
			--------------------------
			 OPTKING Finished Execution 
			--------------------------

    Structure for next step:
    Molecular point group: c1
    Full point group: C1

    Geometry (in Angstrom), charge = 0, multiplicity = 1:

    H            2.474047025654     1.698455085870     0.660699776830
    N            1.553421646070     1.315568983551     0.620389017383
    C            1.549715162132     0.079765688691    -0.152781213317
    H            0.973922760607     2.008380416050     0.201169753870
    C            0.221437944520    -0.723440412187    -0.140027900137
    H            2.308178266027    -0.525184584468     0.328737867401
    H            1.874905842237     0.240225350479    -1.181020953259
    C           -1.093216611906     0.058408114053    -0.115605532532
    H            0.189745103694    -1.311442580179    -1.052162243086
    H            0.218316055630    -1.423737707595     0.689819025315
    C           -2.313138156330    -0.851508651725    -0.213626545607
    H           -1.118889734719     0.762881009227    -0.945305411343
    H           -1.154692102412     0.637498919381     0.794085451215
    H           -2.304203523590    -1.431389703417    -1.130958913001
    H           -3.232515691441    -0.277507934889    -0.194554583131
    H           -2.342532418819    -1.549717638375     0.616125821542

gradient() will perform analytic gradient computation.

*** tstart() called on cx1-28-12-4
*** at Fri Sep  9 20:33:01 2016


         ---------------------------------------------------------
                                   SCF
            by Justin Turney, Rob Parrish, and Andy Simmonett
                              RHF Reference
                        4 Threads,   2000 MiB Core
         ---------------------------------------------------------

  ==> Geometry <==

    Molecular point group: c1
    Full point group: C1

    Geometry (in Angstrom), charge = 0, multiplicity = 1:

       Center              X                  Y                   Z               Mass       
    ------------   -----------------  -----------------  -----------------  -----------------
           H          2.474047025654     1.698455085870     0.660699776830     1.007825032070
           N          1.553421646070     1.315568983551     0.620389017383    14.003074004780
           C          1.549715162132     0.079765688691    -0.152781213317    12.000000000000
           H          0.973922760607     2.008380416050     0.201169753870     1.007825032070
           C          0.221437944520    -0.723440412187    -0.140027900137    12.000000000000
           H          2.308178266027    -0.525184584468     0.328737867401     1.007825032070
           H          1.874905842237     0.240225350479    -1.181020953259     1.007825032070
           C         -1.093216611906     0.058408114053    -0.115605532532    12.000000000000
           H          0.189745103694    -1.311442580179    -1.052162243086     1.007825032070
           H          0.218316055630    -1.423737707595     0.689819025315     1.007825032070
           C         -2.313138156330    -0.851508651725    -0.213626545607    12.000000000000
           H         -1.118889734719     0.762881009227    -0.945305411343     1.007825032070
           H         -1.154692102412     0.637498919381     0.794085451215     1.007825032070
           H         -2.304203523590    -1.431389703417    -1.130958913001     1.007825032070
           H         -3.232515691441    -0.277507934889    -0.194554583131     1.007825032070
           H         -2.342532418819    -1.549717638375     0.616125821542     1.007825032070

  Running in c1 symmetry.

  Rotational constants: A =      0.41368  B =      0.07723  C =      0.06921 [cm^-1]
  Rotational constants: A =  12401.68492  B =   2315.16403  C =   2074.74425 [MHz]
  Nuclear repulsion =  188.002699487635141

  Charge       = 0
  Multiplicity = 1
  Electrons    = 42
  Nalpha       = 21
  Nbeta        = 21

  ==> Algorithm <==

  SCF Algorithm Type is DF.
  DIIS enabled.
  MOM disabled.
  Fractional occupation disabled.
  Guess Type is READ.
  Energy threshold   = 1.00e-08
  Density threshold  = 1.00e-08
  Integral threshold = 0.00e+00

  ==> Primary Basis <==

  Basis Set: CC-PVTZ
    Number of shells: 116
    Number of basis function: 304
    Number of Cartesian functions: 340
    Spherical Harmonics?: true
    Max angular momentum: 3

  ==> Pre-Iterations <==

   -------------------------------------------------------
    Irrep   Nso     Nmo     Nalpha   Nbeta   Ndocc  Nsocc
   -------------------------------------------------------
     A        304     304       0       0       0       0
   -------------------------------------------------------
    Total     304     304      21      21      21       0
   -------------------------------------------------------

 OEINTS: Overlap, kinetic, potential, dipole, and quadrupole integrals
         stored in file 35.

  ==> Integral Setup <==

  ==> DFJK: Density-Fitted J/K Matrices <==

    J tasked:                  Yes
    K tasked:                  Yes
    wK tasked:                  No
    OpenMP threads:              4
    Integrals threads:           4
    Memory (MB):              1430
    Algorithm:                Core
    Integral Cache:           NONE
    Schwarz Cutoff:          1E-12
    Fitting Condition:       1E-12

   => Auxiliary Basis Set <=

  Basis Set: 
    Number of shells: 235
    Number of basis function: 725
    Number of Cartesian functions: 865
    Spherical Harmonics?: true
    Max angular momentum: 4

  Minimum eigenvalue in the overlap matrix is 4.1865529688E-04.
  Using Symmetric Orthogonalization.
  SCF Guess: Reading in previously saved MOs, projecting if necessary.

  Using orbitals from previous SCF, no projection.
  Recomputing DOCC and SOCC from number of alpha and beta electrons from previous calculation.
              A 
    DOCC [    21 ]

  ==> Iterations <==

                           Total Energy        Delta E     RMS |[F,P]|

   @DF-RHF iter   0:  -212.36674244042729   -2.12367e+02   7.32759e-04 
   @DF-RHF iter   1:  -212.39176845866132   -2.50260e-02   1.24862e-04 
   @DF-RHF iter   2:  -212.39289708081589   -1.12862e-03   4.31159e-05 DIIS
   @DF-RHF iter   3:  -212.39302898141409   -1.31901e-04   1.97602e-05 DIIS
   @DF-RHF iter   4:  -212.39304990802918   -2.09266e-05   2.13469e-06 DIIS
   @DF-RHF iter   5:  -212.39305038921248   -4.81183e-07   7.79544e-07 DIIS
   @DF-RHF iter   6:  -212.39305044042158   -5.12091e-08   2.14448e-07 DIIS
   @DF-RHF iter   7:  -212.39305044570324   -5.28166e-09   6.12669e-08 DIIS
   @DF-RHF iter   8:  -212.39305044613178   -4.28543e-10   1.81853e-08 DIIS
   @DF-RHF iter   9:  -212.39305044616941   -3.76303e-11   5.49717e-09 DIIS

  ==> Post-Iterations <==

    Orbital Energies (a.u.)
    -----------------------

    Doubly Occupied:                                                      

       1A    -15.526333     2A    -11.240998     3A    -11.211585  
       4A    -11.210733     5A    -11.205446     6A     -1.176377  
       7A     -1.056817     8A     -0.958193     9A     -0.853816  
      10A     -0.778410    11A     -0.664428    12A     -0.646109  
      13A     -0.598453    14A     -0.584728    15A     -0.546805  
      16A     -0.526821    17A     -0.512277    18A     -0.470869  
      19A     -0.465046    20A     -0.454071    21A     -0.381436  

    Virtual:                                                              

      22A      0.137669    23A      0.156260    24A      0.167920  
      25A      0.181840    26A      0.200804    27A      0.213949  
      28A      0.223639    29A      0.238053    30A      0.244417  
      31A      0.254318    32A      0.278003    33A      0.312414  
      34A      0.346655    35A      0.359758    36A      0.372130  
      37A      0.393006    38A      0.409537    39A      0.444173  
      40A      0.457305    41A      0.474043    42A      0.493232  
      43A      0.508339    44A      0.528682    45A      0.561905  
      46A      0.580813    47A      0.596172    48A      0.609987  
      49A      0.615677    50A      0.627781    51A      0.636303  
      52A      0.652274    53A      0.666912    54A      0.673972  
      55A      0.682387    56A      0.689485    57A      0.700012  
      58A      0.709999    59A      0.719858    60A      0.725200  
      61A      0.737564    62A      0.754785    63A      0.786653  
      64A      0.805869    65A      0.840851    66A      0.884256  
      67A      0.923098    68A      0.928985    69A      0.947425  
      70A      0.978878    71A      0.982953    72A      1.022128  
      73A      1.056557    74A      1.066009    75A      1.076056  
      76A      1.106832    77A      1.134678    78A      1.142757  
      79A      1.171507    80A      1.219199    81A      1.220809  
      82A      1.230673    83A      1.266711    84A      1.272503  
      85A      1.277878    86A      1.294892    87A      1.313850  
      88A      1.335004    89A      1.348860    90A      1.371769  
      91A      1.383409    92A      1.389424    93A      1.410480  
      94A      1.418431    95A      1.432687    96A      1.448192  
      97A      1.463595    98A      1.471830    99A      1.481445  
     100A      1.498350   101A      1.534619   102A      1.539018  
     103A      1.548313   104A      1.570813   105A      1.586692  
     106A      1.600405   107A      1.617003   108A      1.642704  
     109A      1.676211   110A      1.684186   111A      1.703763  
     112A      1.736161   113A      1.762609   114A      1.766645  
     115A      1.790164   116A      1.825740   117A      1.830602  
     118A      1.865917   119A      1.886906   120A      1.908547  
     121A      1.947082   122A      1.985924   123A      2.063499  
     124A      2.078949   125A      2.128148   126A      2.517474  
     127A      2.577931   128A      2.592271   129A      2.630464  
     130A      2.655134   131A      2.676173   132A      2.700005  
     133A      2.722556   134A      2.750019   135A      2.777858  
     136A      2.814034   137A      2.832284   138A      2.850577  
     139A      2.877057   140A      2.883913   141A      2.931363  
     142A      2.946464   143A      2.980843   144A      2.985943  
     145A      3.020758   146A      3.036780   147A      3.094635  
     148A      3.106761   149A      3.117115   150A      3.141505  
     151A      3.158214   152A      3.186772   153A      3.203679  
     154A      3.210733   155A      3.232606   156A      3.241643  
     157A      3.264367   158A      3.294993   159A      3.320408  
     160A      3.330997   161A      3.358454   162A      3.370496  
     163A      3.373849   164A      3.393922   165A      3.419192  
     166A      3.429175   167A      3.429892   168A      3.456879  
     169A      3.463866   170A      3.467764   171A      3.500093  
     172A      3.505559   173A      3.531907   174A      3.543167  
     175A      3.557658   176A      3.589203   177A      3.596024  
     178A      3.620115   179A      3.635680   180A      3.657395  
     181A      3.668160   182A      3.677953   183A      3.710168  
     184A      3.752335   185A      3.768290   186A      3.783433  
     187A      3.791350   188A      3.809566   189A      3.835900  
     190A      3.839807   191A      3.847303   192A      3.887342  
     193A      3.891310   194A      3.906637   195A      3.923325  
     196A      3.955389   197A      3.974480   198A      3.995325  
     199A      4.010045   200A      4.041243   201A      4.049598  
     202A      4.067585   203A      4.100040   204A      4.109802  
     205A      4.136960   206A      4.152067   207A      4.165917  
     208A      4.172677   209A      4.188213   210A      4.193759  
     211A      4.220604   212A      4.230716   213A      4.247332  
     214A      4.262954   215A      4.284895   216A      4.300049  
     217A      4.322466   218A      4.327318   219A      4.348535  
     220A      4.364430   221A      4.398551   222A      4.403082  
     223A      4.420623   224A      4.440272   225A      4.451508  
     226A      4.470348   227A      4.481540   228A      4.489254  
     229A      4.509047   230A      4.536405   231A      4.554500  
     232A      4.567105   233A      4.580651   234A      4.605540  
     235A      4.639324   236A      4.650199   237A      4.663813  
     238A      4.675627   239A      4.693271   240A      4.719512  
     241A      4.743169   242A      4.762793   243A      4.790357  
     244A      4.807222   245A      4.832362   246A      4.879812  
     247A      4.899517   248A      4.988269   249A      4.992577  
     250A      5.027838   251A      5.095580   252A      5.110631  
     253A      5.132669   254A      5.168991   255A      5.186781  
     256A      5.236333   257A      5.250793   258A      5.288851  
     259A      5.308191   260A      5.322304   261A      5.347827  
     262A      5.381113   263A      5.404480   264A      5.417873  
     265A      5.430036   266A      5.466955   267A      5.502112  
     268A      5.538733   269A      5.576946   270A      5.591739  
     271A      5.625782   272A      5.630908   273A      5.692937  
     274A      5.737817   275A      5.738487   276A      5.769016  
     277A      5.789801   278A      5.809912   279A      5.855824  
     280A      5.883901   281A      5.908630   282A      5.916721  
     283A      5.946897   284A      5.967514   285A      6.015489  
     286A      6.050013   287A      6.085714   288A      6.172718  
     289A      6.246983   290A      6.300849   291A      6.316974  
     292A      6.334250   293A      6.356224   294A      6.408218  
     295A      6.449467   296A      6.524803   297A      6.600697  
     298A      6.719460   299A      7.389218   300A     12.500051  
     301A     13.382676   302A     13.749698   303A     13.923323  
     304A     14.234437  

    Final Occupation by Irrep:
              A 
    DOCC [    21 ]

  Energy converged.

  @DF-RHF Final Energy:  -212.39305044616941

   => Energetics <=

    Nuclear Repulsion Energy =            188.0026994876351409
    One-Electron Energy =                -658.6519996450737153
    Two-Electron Energy =                 258.2562497112689925
    DFT Exchange-Correlation Energy =       0.0000000000000000
    Empirical Dispersion Energy =           0.0000000000000000
    PCM Polarization Energy =               0.0000000000000000
    EFP Energy =                            0.0000000000000000
    Total Energy =                       -212.3930504461695818

    Alert: EFP and PCM quantities not currently incorporated into SCF psivars.

Properties will be evaluated at   0.000000,   0.000000,   0.000000 Bohr
  ==> Properties <==


Properties computed using the SCF density matrix

  Nuclear Dipole Moment: (a.u.)
     X:    -1.9861      Y:    -1.1021      Z:    -1.1393

  Electronic Dipole Moment: (a.u.)
     X:     2.1620      Y:     1.2427      Z:     0.7141

  Dipole Moment: (a.u.)
     X:     0.1759      Y:     0.1406      Z:    -0.4252     Total:     0.4812

  Dipole Moment: (Debye)
     X:     0.4472      Y:     0.3573      Z:    -1.0809     Total:     1.2231


  Saving occupied orbitals to File 180.

*** tstop() called on cx1-28-12-4 at Fri Sep  9 20:33:10 2016
Module time:
	user time   =      28.31 seconds =       0.47 minutes
	system time =       0.40 seconds =       0.01 minutes
	total time  =          9 seconds =       0.15 minutes
Total time:
	user time   =     126.23 seconds =       2.10 minutes
	system time =       1.46 seconds =       0.02 minutes
	total time  =         38 seconds =       0.63 minutes

*** tstart() called on cx1-28-12-4
*** at Fri Sep  9 20:33:10 2016


         ------------------------------------------------------------
                                   SCF GRAD                          
                          Rob Parrish, Justin Turney,                
                       Andy Simmonett, and Alex Sokolov              
         ------------------------------------------------------------

  ==> Geometry <==

    Molecular point group: c1
    Full point group: C1

    Geometry (in Angstrom), charge = 0, multiplicity = 1:

       Center              X                  Y                   Z               Mass       
    ------------   -----------------  -----------------  -----------------  -----------------
           H          2.474047025654     1.698455085870     0.660699776830     1.007825032070
           N          1.553421646070     1.315568983551     0.620389017383    14.003074004780
           C          1.549715162132     0.079765688691    -0.152781213317    12.000000000000
           H          0.973922760607     2.008380416050     0.201169753870     1.007825032070
           C          0.221437944520    -0.723440412187    -0.140027900137    12.000000000000
           H          2.308178266027    -0.525184584468     0.328737867401     1.007825032070
           H          1.874905842237     0.240225350479    -1.181020953259     1.007825032070
           C         -1.093216611906     0.058408114053    -0.115605532532    12.000000000000
           H          0.189745103694    -1.311442580179    -1.052162243086     1.007825032070
           H          0.218316055630    -1.423737707595     0.689819025315     1.007825032070
           C         -2.313138156330    -0.851508651725    -0.213626545607    12.000000000000
           H         -1.118889734719     0.762881009227    -0.945305411343     1.007825032070
           H         -1.154692102412     0.637498919381     0.794085451215     1.007825032070
           H         -2.304203523590    -1.431389703417    -1.130958913001     1.007825032070
           H         -3.232515691441    -0.277507934889    -0.194554583131     1.007825032070
           H         -2.342532418819    -1.549717638375     0.616125821542     1.007825032070

  Nuclear repulsion =  188.002699487635113

  ==> Basis Set <==

  Basis Set: CC-PVTZ
    Number of shells: 116
    Number of basis function: 304
    Number of Cartesian functions: 340
    Spherical Harmonics?: true
    Max angular momentum: 3

  ==> DFJKGrad: Density-Fitted SCF Gradients <==

    Gradient:                    1
    J tasked:                  Yes
    K tasked:                  Yes
    wK tasked:                  No
    OpenMP threads:              4
    Integrals threads:           4
    Memory (MB):              1430
    Schwarz Cutoff:          0E+00
    Fitting Condition:       1E-12

   => Auxiliary Basis Set <=

  Basis Set: 
    Number of shells: 235
    Number of basis function: 725
    Number of Cartesian functions: 865
    Spherical Harmonics?: true
    Max angular momentum: 4


  -Total Gradient:
     Atom            X                  Y                   Z
    ------   -----------------  -----------------  -----------------
       1       -0.000104758826     0.001422825570    -0.000148321401
       2        0.008513851588     0.000463009675    -0.000327958079
       3       -0.002002106944     0.001714635405    -0.005623661050
       4        0.001898235933    -0.001944805647     0.000541322591
       5        0.000075618886    -0.003933999585     0.003819957983
       6       -0.000253934687     0.005541046604     0.005996801164
       7        0.002994640486     0.000341298305     0.000007062054
       8       -0.003351876068    -0.004241420942     0.001290243042
       9       -0.005199461971     0.004385266877    -0.001754019147
      10       -0.001251615315    -0.001776279955    -0.000357517600
      11       -0.000531559239     0.001190352785    -0.000698941141
      12       -0.000773519562    -0.000465611271    -0.000894330969
      13        0.000170119231    -0.002569604990    -0.001741090837
      14       -0.000236778162    -0.000258757312    -0.000035097089
      15       -0.000245629978    -0.000145838812    -0.000051228569
      16        0.000298774624     0.000277883291    -0.000023220951


*** tstop() called on cx1-28-12-4 at Fri Sep  9 20:33:27 2016
Module time:
	user time   =      62.91 seconds =       1.05 minutes
	system time =       0.49 seconds =       0.01 minutes
	total time  =         17 seconds =       0.28 minutes
Total time:
	user time   =     189.16 seconds =       3.15 minutes
	system time =       1.95 seconds =       0.03 minutes
	total time  =         55 seconds =       0.92 minutes
CURRENT ENERGY: -212.3930504462

			-----------------------------------------
			 OPTKING 2.0: for geometry optimizations 
			  - R.A. King,  Bethel University        
			-----------------------------------------

	Previous internal coordinate definitions found.
	---Fragment 1 Geometry and Gradient---
	 H           4.6752713184        3.2096149613        1.2485416343
	 N           2.9355414800        2.4860650878        1.1723653387
	 C           2.9285372404        0.1507353064       -0.2887146514
	 H           1.8404472921        3.7952889570        0.3801557410
	 C           0.4184570706       -1.3671042525       -0.2646143822
	 H           4.3618247887       -0.9924550339        0.6212245389
	 H           3.5430585668        0.4539601226       -2.2318061589
	 C          -2.0658800004        0.1103753395       -0.2184627959
	 H           0.3585662810       -2.4782673155       -1.9882984868
	 H           0.4125575556       -2.6904743524        1.3035690391
	 C          -4.3711976230       -1.6091181515       -0.4036956659
	 H          -2.1143951715        1.4416361794       -1.7863683394
	 H          -2.1820518414        1.2046983676        1.5006040289
	 H          -4.3543136140       -2.7049345289       -2.1372026131
	 H          -6.1085693771       -0.5244139966       -0.3676548800
	 H          -4.4267447290       -2.9285419198        1.1643090661
	            -0.0001047588        0.0014228256       -0.0001483214
	             0.0085138516        0.0004630097       -0.0003279581
	            -0.0020021069        0.0017146354       -0.0056236611
	             0.0018982359       -0.0019448056        0.0005413226
	             0.0000756189       -0.0039339996        0.0038199580
	            -0.0002539347        0.0055410466        0.0059968012
	             0.0029946405        0.0003412983        0.0000070621
	            -0.0033518761       -0.0042414209        0.0012902430
	            -0.0051994620        0.0043852669       -0.0017540191
	            -0.0012516153       -0.0017762800       -0.0003575176
	            -0.0005315592        0.0011903528       -0.0006989411
	            -0.0007735196       -0.0004656113       -0.0008943310
	             0.0001701192       -0.0025696050       -0.0017410908
	            -0.0002367782       -0.0002587573       -0.0000350971
	            -0.0002456300       -0.0001458388       -0.0000512286
	             0.0002987746        0.0002778833       -0.0000232210

	---Fragment 1 Intrafragment Coordinates---
	 - Coordinate -           - BOHR/RAD -       - ANG/DEG -
	 R(1,2)           =         1.885733	       0.997887
	 R(2,3)           =         2.754736	       1.457743
	 R(2,4)           =         1.881726	       0.995767
	 R(3,5)           =         2.933414	       1.552296
	 R(3,6)           =         2.046750	       1.083094
	 R(3,7)           =         2.060385	       1.090309
	 R(5,8)           =         2.890849	       1.529771
	 R(5,9)           =         2.051672	       1.085698
	 R(5,10)          =         2.051961	       1.085851
	 R(8,11)          =         2.881919	       1.525046
	 R(8,12)          =         2.057410	       1.088735
	 R(8,13)          =         2.041134	       1.080122
	 R(11,14)         =         2.050889	       1.085284
	 R(11,15)         =         2.048498	       1.084018
	 R(11,16)         =         2.050025	       1.084827
	 B(1,2,3)         =         1.927354	     110.429273
	 B(1,2,4)         =         1.861839	     106.675513
	 B(2,3,5)         =         2.022469	     115.878916
	 B(2,3,6)         =         1.808964	     103.646027
	 B(2,3,7)         =         1.954841	     112.004135
	 B(3,2,4)         =         1.944488	     111.410931
	 B(3,5,8)         =         2.061262	     118.101629
	 B(3,5,9)         =         1.873719	     107.356193
	 B(3,5,10)        =         1.920315	     110.025937
	 B(5,3,6)         =         1.882370	     107.851854
	 B(5,3,7)         =         1.916768	     109.822711
	 B(5,8,11)        =         1.962185	     112.424921
	 B(5,8,12)        =         1.916439	     109.803879
	 B(5,8,13)        =         1.913856	     109.655860
	 B(6,3,7)         =         1.867749	     107.014125
	 B(8,5,9)         =         1.839131	     105.374450
	 B(8,5,10)        =         1.891195	     108.357463
	 B(8,11,14)       =         1.946083	     111.502340
	 B(8,11,15)       =         1.940531	     111.184256
	 B(8,11,16)       =         1.935341	     110.886896
	 B(9,5,10)        =         1.867837	     107.019204
	 B(11,8,12)       =         1.894649	     108.555364
	 B(11,8,13)       =         1.905499	     109.177063
	 B(12,8,13)       =         1.868765	     107.072324
	 B(14,11,15)      =         1.880502	     107.744830
	 B(14,11,16)      =         1.878464	     107.628063
	 B(15,11,16)      =         1.880067	     107.719880
	 D(1,2,3,5)       =         3.005105	     172.179825
	 D(1,2,3,6)       =         0.946832	      54.249461
	 D(1,2,3,7)       =        -1.060577	     -60.766598
	 D(2,3,5,8)       =         0.621702	      35.620884
	 D(2,3,5,9)       =         2.695193	     154.423165
	 D(2,3,5,10)      =        -1.561258	     -89.453499
	 D(3,5,8,11)      =         3.064600	     175.588639
	 D(3,5,8,12)      =         0.953381	      54.624724
	 D(3,5,8,13)      =        -1.095367	     -62.759880
	 D(4,2,3,5)       =        -1.212360	     -69.463129
	 D(4,2,3,6)       =         3.012552	     172.606507
	 D(4,2,3,7)       =         1.005143	      57.590449
	 D(5,8,11,14)     =        -1.042557	     -59.734100
	 D(5,8,11,15)     =        -3.141576	    -179.999053
	 D(5,8,11,16)     =         1.050359	      60.181134
	 D(6,3,5,8)       =         2.638899	     151.197748
	*D(6,3,5,9)       =        -1.570796	     -89.999971
	 D(6,3,5,10)      =         0.455939	      26.123365
	 D(7,3,5,8)       =        -1.614699	     -92.515428
	 D(7,3,5,9)       =         0.458792	      26.286852
	 D(7,3,5,10)      =         2.485527	     142.410189
	 D(9,5,8,11)      =         0.973023	      55.750115
	 D(9,5,8,12)      =        -1.138196	     -65.213800
	 D(9,5,8,13)      =         3.096242	     177.401597
	 D(10,5,8,11)     =        -1.021405	     -58.522200
	 D(10,5,8,12)     =        -3.132624	    -179.486115
	 D(10,5,8,13)     =         1.101814	      63.129281
	 D(12,8,11,14)    =         1.081118	      61.943518
	 D(12,8,11,15)    =        -1.017901	     -58.321435
	 D(12,8,11,16)    =        -3.109151	    -178.141248
	 D(13,8,11,14)    =         3.112657	     178.342095
	 D(13,8,11,15)    =         1.013637	      58.077143
	 D(13,8,11,16)    =        -1.077613	     -61.742671

	Current energy   :      -212.3930504462

	Energy change for the previous step:
		Projected    :        -0.0107847217
		Actual       :        -0.0006942741
	Energy ratio indicates iffy step: Trust radius decreased to 1.250e-01.


	Performing BFGS update.
	Previous computed or guess Hessian on step 1.
	Steps to be used in Hessian update: 1
	Taking RFO optimization step.
	Going to follow RFO solution 1.
	Using RFO vector 1.

	Determining step-restricting scale parameter for RS-RFO.
	Maximum step size allowed    0.12500

	 Iter      |step|        alpha        rfo_root  
	------------------------------------------------
	    0     0.13820       1.00000           1
	    1     0.12762       1.51251           1
	    2     0.12515       1.67015           1
	    3     0.12500       1.68008           1
	------------------------------------------------
	Norm of target step-size    0.12500
	Projected energy change by RFO approximation:        -0.0028284430

	Back-transformation to cartesian coordinates...
	Successfully converged to displaced geometry.

	Back-transformation to cartesian coordinates to adjust frozen coordinates...
	Successfully converged to displaced geometry.

	--- Internal Coordinate Step in ANG or DEG, aJ/ANG or AJ/DEG ---
	 ---------------------------------------------------------------------------
	   Coordinate                Previous        Force       Change         New 
	   ----------                --------       ------       ------       ------
	    1 R(1,2)          =      0.997887    -0.003652    -0.000295     0.997592
	    2 R(2,3)          =      1.457743    -0.000088     0.000067     1.457810
	    3 R(2,4)          =      0.995767     0.022127     0.001744     0.997511
	    4 R(3,5)          =      1.552296    -0.109975    -0.013381     1.538915
	    5 R(3,6)          =      1.083094     0.004998     0.000508     1.083602
	    6 R(3,7)          =      1.090309    -0.007717    -0.000879     1.089430
	    7 R(5,8)          =      1.529771    -0.006623    -0.000758     1.529014
	    8 R(5,9)          =      1.085698     0.006176     0.000692     1.086390
	    9 R(5,10)         =      1.085851    -0.007217    -0.000865     1.084986
	   10 R(8,11)         =      1.525046     0.000087     0.000009     1.525056
	   11 R(8,12)         =      1.088735    -0.003283    -0.000317     1.088418
	   12 R(8,13)         =      1.080122     0.023511     0.002451     1.082573
	   13 R(11,14)        =      1.085284    -0.001367    -0.000139     1.085145
	   14 R(11,15)        =      1.084018    -0.001073    -0.000116     1.083902
	   15 R(11,16)        =      1.084827     0.001687     0.000182     1.085009
	   16 B(1,2,3)        =    110.429273    -0.000123    -0.296718   110.132555
	   17 B(1,2,4)        =    106.675513     0.000051     0.264991   106.940505
	   18 B(2,3,5)        =    115.878916    -0.001163    -2.545549   113.333367
	   19 B(2,3,6)        =    103.646027     0.000560     1.598618   105.244645
	   20 B(2,3,7)        =    112.004135     0.000429     0.693313   112.697448
	   21 B(3,2,4)        =    111.410931     0.000084     0.324893   111.735824
	   22 B(3,5,8)        =    118.101629    -0.000951    -2.098221   116.003408
	   23 B(3,5,9)        =    107.356193     0.000130    -0.101266   107.254926
	   24 B(3,5,10)       =    110.025937     0.000210     0.008322   110.034259
	   25 B(5,3,6)        =    107.851854     0.000100    -0.108224   107.743631
	   26 B(5,3,7)        =    109.822711     0.000233    -0.157795   109.664916
	   27 B(5,8,11)       =    112.424921    -0.000147    -0.281341   112.143580
	   28 B(5,8,12)       =    109.803879     0.000003    -0.055824   109.748055
	   29 B(5,8,13)       =    109.655860     0.000065     0.152778   109.808638
	   30 B(6,3,7)        =    107.014125    -0.000086     0.788466   107.802591
	   31 B(8,5,9)        =    105.374450     0.000440     1.077319   106.451768
	   32 B(8,5,10)       =    108.357463     0.000331     0.623301   108.980765
	   33 B(8,11,14)      =    111.502340    -0.000036    -0.098793   111.403547
	   34 B(8,11,15)      =    111.184256    -0.000030    -0.101552   111.082704
	   35 B(8,11,16)      =    110.886896     0.000051     0.159940   111.046837
	   36 B(9,5,10)       =    107.019204    -0.000096     0.739419   107.758623
	   37 B(11,8,12)      =    108.555364     0.000105     0.318316   108.873680
	   38 B(11,8,13)      =    109.177063     0.000042     0.112735   109.289798
	   39 B(12,8,13)      =    107.072324    -0.000065    -0.243893   106.828432
	   40 B(14,11,15)     =    107.744830     0.000024     0.020736   107.765566
	   41 B(14,11,16)     =    107.628063    -0.000002     0.020072   107.648136
	   42 B(15,11,16)     =    107.719880    -0.000005     0.002586   107.722466
	   43 D(1,2,3,5)      =    172.179825     0.000008    -1.278709   170.901116
	   44 D(1,2,3,6)      =     54.249461     0.000034    -0.836571    53.412889
	   45 D(1,2,3,7)      =    -60.766598    -0.000060    -3.045033   -63.811630
	   46 D(2,3,5,8)      =     35.620884    -0.000034    -0.422662    35.198222
	   47 D(2,3,5,9)      =    154.423165    -0.000020    -0.443438   153.979727
	   48 D(2,3,5,10)     =    -89.453499    -0.000004     0.383257   -89.070242
	   49 D(3,5,8,11)     =    175.588639     0.000011    -0.261153   175.327486
	   50 D(3,5,8,12)     =     54.624724     0.000003    -0.439025    54.185699
	   51 D(3,5,8,13)     =    -62.759880     0.000011    -0.199888   -62.959768
	   52 D(4,2,3,5)      =    -69.463129     0.000016    -0.934361   -70.397490
	   53 D(4,2,3,6)      =    172.606507     0.000043    -0.492223   172.114284
	   54 D(4,2,3,7)      =     57.590449    -0.000051    -2.700684    54.889764
	   55 D(5,8,11,14)    =    -59.734100     0.000000    -0.178674   -59.912774
	   56 D(5,8,11,15)    =   -179.999053     0.000004    -0.069171  -180.068223
	   57 D(5,8,11,16)    =     60.181134     0.000002    -0.111482    60.069652
	   58 D(6,3,5,8)      =    151.197748    -0.000013     0.020776   151.218524
	   59 *D(6,3,5,9)     =    -89.999971    -0.000000     0.000000   -89.999971
	   60 D(6,3,5,10)     =     26.123365     0.000016     0.826695    26.950060
	   61 D(7,3,5,8)      =    -92.515428     0.000005     0.814273   -91.701155
	   62 D(7,3,5,9)      =     26.286852     0.000018     0.793497    27.080349
	   63 D(7,3,5,10)     =    142.410189     0.000034     1.620192   144.030380
	   64 D(9,5,8,11)     =     55.750115     0.000031     0.356947    56.107062
	   65 D(9,5,8,12)     =    -65.213800     0.000022     0.179075   -65.034725
	   66 D(9,5,8,13)     =    177.401597     0.000031     0.418211   177.819808
	   67 D(10,5,8,11)    =    -58.522200    -0.000028    -1.339607   -59.861807
	   68 D(10,5,8,12)    =   -179.486115    -0.000036    -1.517479  -181.003594
	   69 D(10,5,8,13)    =     63.129281    -0.000027    -1.278342    61.850939
	   70 D(12,8,11,14)   =     61.943518    -0.000004    -0.212412    61.731106
	   71 D(12,8,11,15)   =    -58.321435    -0.000000    -0.102909   -58.424344
	   72 D(12,8,11,16)   =   -178.141248    -0.000002    -0.145221  -178.286469
	   73 D(13,8,11,14)   =    178.342095    -0.000003    -0.264048   178.078047
	   74 D(13,8,11,15)   =     58.077143     0.000001    -0.154545    57.922598
	   75 D(13,8,11,16)   =    -61.742671    -0.000001    -0.196857   -61.939527
	 ---------------------------------------------------------------------------

  ==> Convergence Check <==

  Measures of convergence in internal coordinates in au.
  Criteria marked as inactive (o), active & met (*), and active & unmet ( ).
  ---------------------------------------------------------------------------------------------
   Step     Total Energy     Delta E     MAX Force     RMS Force      MAX Disp      RMS Disp   
  ---------------------------------------------------------------------------------------------
    Convergence Criteria    1.00e-06 *    3.00e-04 *             o    1.20e-03 *             o
  ---------------------------------------------------------------------------------------------
      2    -212.39305045   -6.94e-04      1.53e-02      3.31e-03 o    5.31e-02      1.44e-02 o  ~
  ---------------------------------------------------------------------------------------------

	Writing optimization data to binary file.
	Structure for next step:
	Cartesian Geometry (in Angstrom)
	    H     2.3804533042   1.7049245385   0.6883699953
	    N     1.4749827873   1.2930194909   0.6132257646
	    C     1.5464969027   0.0626232268  -0.1653761070
	    H     0.8828146121   1.9696209808   0.1812814852
	    C     0.2398136116  -0.7499754051  -0.1425309558
	    H     2.3144208810  -0.5333504965   0.3134783221
	    H     1.8531286226   0.2348616636  -1.1964762766
	    C    -1.0547760330   0.0630651798  -0.1127679102
	    H     0.2114846978  -1.3403300228  -1.0540800859
	    H     0.2442060381  -1.4373648309   0.6969158170
	    C    -2.2923947247  -0.8230862382  -0.2067367461
	    H    -1.0642169300   0.7699414547  -0.9403489481
	    H    -1.1008480361   0.6462860154   0.7981076140
	    H    -2.2977997699  -1.3995727185  -1.1260702398
	    H    -3.1993181137  -0.2299859182  -0.1829470513
	    H    -2.3339464501  -1.5234226645   0.6209386480
			--------------------------
			 OPTKING Finished Execution 
			--------------------------

    Structure for next step:
    Molecular point group: c1
    Full point group: C1

    Geometry (in Angstrom), charge = 0, multiplicity = 1:

    H            2.383219042888     1.710527581192     0.690451265572
    N            1.477748595128     1.298622565047     0.615307040544
    C            1.549262705080     0.068226394906    -0.163294771587
    H            0.885580465192     1.975224003265     0.183362794214
    C            0.242579513807    -0.744372174928    -0.140449622124
    H            2.317186624742    -0.527747282837     0.315559621007
    H            1.855894401560     0.240464818584    -1.194394862462
    C           -1.052010031960     0.068668347915    -0.110686578727
    H            0.214250602174    -1.334726747578    -1.051998682566
    H            0.246971939983    -1.431761548289     0.698997086570
    C           -2.289628629126    -0.817483002459    -0.204655407516
    H           -1.061450928245     0.775544568750    -0.938267553428
    H           -1.098082031534     0.651889138961     0.800188875851
    H           -2.295033673891    -1.393969438745    -1.123988831005
    H           -3.196551948917    -0.224382727720    -0.180865714506
    H           -2.331180351343    -1.517819375277     0.623019923378

gradient() will perform analytic gradient computation.

*** tstart() called on cx1-28-12-4
*** at Fri Sep  9 20:33:27 2016


         ---------------------------------------------------------
                                   SCF
            by Justin Turney, Rob Parrish, and Andy Simmonett
                              RHF Reference
                        4 Threads,   2000 MiB Core
         ---------------------------------------------------------

  ==> Geometry <==

    Molecular point group: c1
    Full point group: C1

    Geometry (in Angstrom), charge = 0, multiplicity = 1:

       Center              X                  Y                   Z               Mass       
    ------------   -----------------  -----------------  -----------------  -----------------
           H          2.383219042888     1.710527581192     0.690451265572     1.007825032070
           N          1.477748595128     1.298622565047     0.615307040544    14.003074004780
           C          1.549262705080     0.068226394906    -0.163294771587    12.000000000000
           H          0.885580465192     1.975224003265     0.183362794214     1.007825032070
           C          0.242579513807    -0.744372174928    -0.140449622124    12.000000000000
           H          2.317186624742    -0.527747282837     0.315559621007     1.007825032070
           H          1.855894401560     0.240464818584    -1.194394862462     1.007825032070
           C         -1.052010031960     0.068668347915    -0.110686578727    12.000000000000
           H          0.214250602174    -1.334726747578    -1.051998682566     1.007825032070
           H          0.246971939983    -1.431761548289     0.698997086570     1.007825032070
           C         -2.289628629126    -0.817483002459    -0.204655407516    12.000000000000
           H         -1.061450928245     0.775544568750    -0.938267553428     1.007825032070
           H         -1.098082031534     0.651889138961     0.800188875851     1.007825032070
           H         -2.295033673891    -1.393969438745    -1.123988831005     1.007825032070
           H         -3.196551948917    -0.224382727720    -0.180865714506     1.007825032070
           H         -2.331180351343    -1.517819375277     0.623019923378     1.007825032070

  Running in c1 symmetry.

  Rotational constants: A =      0.40129  B =      0.08056  C =      0.07154 [cm^-1]
  Rotational constants: A =  12030.48718  B =   2415.19359  C =   2144.56673 [MHz]
  Nuclear repulsion =  189.311548020575060

  Charge       = 0
  Multiplicity = 1
  Electrons    = 42
  Nalpha       = 21
  Nbeta        = 21

  ==> Algorithm <==

  SCF Algorithm Type is DF.
  DIIS enabled.
  MOM disabled.
  Fractional occupation disabled.
  Guess Type is READ.
  Energy threshold   = 1.00e-08
  Density threshold  = 1.00e-08
  Integral threshold = 0.00e+00

  ==> Primary Basis <==

  Basis Set: CC-PVTZ
    Number of shells: 116
    Number of basis function: 304
    Number of Cartesian functions: 340
    Spherical Harmonics?: true
    Max angular momentum: 3

  ==> Pre-Iterations <==

   -------------------------------------------------------
    Irrep   Nso     Nmo     Nalpha   Nbeta   Ndocc  Nsocc
   -------------------------------------------------------
     A        304     304       0       0       0       0
   -------------------------------------------------------
    Total     304     304      21      21      21       0
   -------------------------------------------------------

 OEINTS: Overlap, kinetic, potential, dipole, and quadrupole integrals
         stored in file 35.

  ==> Integral Setup <==

  ==> DFJK: Density-Fitted J/K Matrices <==

    J tasked:                  Yes
    K tasked:                  Yes
    wK tasked:                  No
    OpenMP threads:              4
    Integrals threads:           4
    Memory (MB):              1430
    Algorithm:                Core
    Integral Cache:           NONE
    Schwarz Cutoff:          1E-12
    Fitting Condition:       1E-12

   => Auxiliary Basis Set <=

  Basis Set: 
    Number of shells: 235
    Number of basis function: 725
    Number of Cartesian functions: 865
    Spherical Harmonics?: true
    Max angular momentum: 4

  Minimum eigenvalue in the overlap matrix is 3.9915751947E-04.
  Using Symmetric Orthogonalization.
  SCF Guess: Reading in previously saved MOs, projecting if necessary.

  Using orbitals from previous SCF, no projection.
  Recomputing DOCC and SOCC from number of alpha and beta electrons from previous calculation.
              A 
    DOCC [    21 ]

  ==> Iterations <==

                           Total Energy        Delta E     RMS |[F,P]|

   @DF-RHF iter   0:  -212.39393088007262   -2.12394e+02   2.63332e-04 
   @DF-RHF iter   1:  -212.39437873177678   -4.47852e-04   4.26289e-05 
   @DF-RHF iter   2:  -212.39451580768298   -1.37076e-04   1.56144e-05 DIIS
   @DF-RHF iter   3:  -212.39453374535799   -1.79377e-05   7.36256e-06 DIIS
   @DF-RHF iter   4:  -212.39453705697099   -3.31161e-06   1.05186e-06 DIIS
   @DF-RHF iter   5:  -212.39453720085066   -1.43880e-07   3.78359e-07 DIIS
   @DF-RHF iter   6:  -212.39453722022455   -1.93739e-08   1.24147e-07 DIIS
   @DF-RHF iter   7:  -212.39453722207088   -1.84633e-09   3.46652e-08 DIIS
   @DF-RHF iter   8:  -212.39453722221481   -1.43928e-10   7.37698e-09 DIIS

  ==> Post-Iterations <==

[...]
	---Fragment 1 Geometry and Gradient---
	 H           4.4443116423        3.2292855825        1.3746484350
	 N           2.7443454845        2.4390246690        1.1756645598
	 C           2.9273676923        0.1284184652       -0.3170735203
	 H           1.6357329659        3.7175962508        0.3451489576
	 C           0.4754507838       -1.4261543790       -0.2778928584
	 H           4.4027811599       -0.9700656198        0.5810977252
	 H           3.4890127196        0.4886961188       -2.2629610406
	 C          -1.9596367608        0.1316122143       -0.2246694421
	 H           0.4109809160       -2.5470492433       -1.9967712947
	 H           0.4818391590       -2.7064479773        1.3217200106
	 C          -4.3182484228       -1.5190748406       -0.3699041265
	 H          -1.9681199045        1.4491706206       -1.8039782986
	 H          -2.0232577399        1.2567571985        1.4828221579
	 H          -4.3528899978       -2.6214465997       -2.0985358701
	 H          -6.0221752383       -0.3829683518       -0.3193655383
	 H          -4.3961863613       -2.8299920444        1.2047279289
	            -0.0000017383       -0.0000088695       -0.0000035641
	            -0.0000022851       -0.0000255729       -0.0000108746
	             0.0012805590       -0.0021757150       -0.0079257225
	            -0.0000021606       -0.0000069499       -0.0000025120
	             0.0035122853       -0.0054376789        0.0051109224
	            -0.0016117110        0.0026914090        0.0059329694
	             0.0000037871        0.0000027826        0.0000000598
	             0.0000128014        0.0000067780        0.0000043139
	            -0.0031868961        0.0049623563       -0.0031095686
	            -0.0000047464        0.0000027120        0.0000003062
	            -0.0000071206       -0.0000110699        0.0000027206
	             0.0000079671       -0.0000018105        0.0000003909
	            -0.0000020150        0.0000019174        0.0000023332
	            -0.0000007732        0.0000003254       -0.0000012536
	             0.0000037682        0.0000010661       -0.0000000837
	            -0.0000017219       -0.0000016804       -0.0000004373

	---Fragment 1 Intrafragment Coordinates---
	 - Coordinate -           - BOHR/RAD -       - ANG/DEG -
	 R(1,2)           =         1.885203	       0.997607
	 R(2,3)           =         2.756930	       1.458905
	 R(2,4)           =         1.885079	       0.997541
	 R(3,5)           =         2.903468	       1.536449
	 R(3,6)           =         2.047004	       1.083228
	 R(3,7)           =         2.057115	       1.088579
	 R(5,8)           =         2.891214	       1.529965
	 R(5,9)           =         2.053072	       1.086439
	 R(5,10)          =         2.048891	       1.084226
	 R(8,11)          =         2.882518	       1.525363
	 R(8,12)          =         2.056757	       1.088389
	 R(8,13)          =         2.045856	       1.082620
	 R(11,14)         =         2.050510	       1.085083
	 R(11,15)         =         2.048575	       1.084059
	 R(11,16)         =         2.050377	       1.085013
	 B(1,2,3)         =         1.926889	     110.402606
	 B(1,2,4)         =         1.867632	     107.007413
	 B(2,3,5)         =         1.966406	     112.666775
	 B(2,3,6)         =         1.833849	     105.071819
	 B(2,3,7)         =         1.964395	     112.551542
	 B(3,2,4)         =         1.948673	     111.650745
	 B(3,5,8)         =         2.007571	     115.025352
	 B(3,5,9)         =         1.883400	     107.910897
	 B(3,5,10)        =         1.920342	     110.027467
	 B(5,3,6)         =         1.891706	     108.386743
	 B(5,3,7)         =         1.914632	     109.700344
	 B(5,8,11)        =         1.960255	     112.314355
	 B(5,8,12)        =         1.911860	     109.541490
	 B(5,8,13)        =         1.915451	     109.747266
	 B(6,3,7)         =         1.888352	     108.194596
	 B(8,5,9)         =         1.857846	     106.446741
	 B(8,5,10)        =         1.901735	     108.961367
	 B(8,11,14)       =         1.943530	     111.356088
	 B(8,11,15)       =         1.940950	     111.208252
	 B(8,11,16)       =         1.937498	     111.010436
	 B(9,5,10)        =         1.888705	     108.214828
	 B(11,8,12)       =         1.901574	     108.952191
	 B(11,8,13)       =         1.908737	     109.362572
	 B(12,8,13)       =         1.863385	     106.764111
	 B(14,11,15)      =         1.880624	     107.751827
	 B(14,11,16)      =         1.878693	     107.641207
	 B(15,11,16)      =         1.879699	     107.698798
	 D(1,2,3,5)       =         2.956963	     169.421503
	 D(1,2,3,6)       =         0.900866	      51.615844
	 D(1,2,3,7)       =        -1.150147	     -65.898553
	 D(2,3,5,8)       =         0.620091	      35.528615
	 D(2,3,5,9)       =         2.690695	     154.165488
	 D(2,3,5,10)      =        -1.535283	     -87.965231
	 D(3,5,8,11)      =         3.073224	     176.082775
	 D(3,5,8,12)      =         0.957683	      54.871216
	 D(3,5,8,13)      =        -1.082792	     -62.039398
	 D(4,2,3,5)       =        -1.250884	     -71.670349
	 D(4,2,3,6)       =         2.976205	     170.523992
	 D(4,2,3,7)       =         0.925192	      53.009595
	 D(5,8,11,14)     =        -1.049311	     -60.121067
	 D(5,8,11,15)     =         3.136145	     179.687859
	 D(5,8,11,16)     =         1.043643	      59.796319
	 D(6,3,5,8)       =         2.641785	     151.363156
	*D(6,3,5,9)       =        -1.570796	     -89.999971
	 D(6,3,5,10)      =         0.486411	      27.869310
	 D(7,3,5,8)       =        -1.582991	     -90.698685
	 D(7,3,5,9)       =         0.487613	      27.938188
	 D(7,3,5,10)      =         2.544820	     145.807470
	 D(9,5,8,11)      =         0.988394	      56.630781
	 D(9,5,8,12)      =        -1.127147	     -64.580778
	 D(9,5,8,13)      =         3.115563	     178.508608
	 D(10,5,8,11)     =        -1.044738	     -59.859089
	 D(10,5,8,12)     =         3.122906	     178.929352
	 D(10,5,8,13)     =         1.082431	      62.018738
	 D(12,8,11,14)    =         1.072118	      61.427839
	 D(12,8,11,15)    =        -1.025612	     -58.763235
	 D(12,8,11,16)    =        -3.118114	    -178.654775
	 D(13,8,11,14)    =         3.102887	     177.782324
	 D(13,8,11,15)    =         1.005157	      57.591250
	 D(13,8,11,16)    =        -1.087345	     -62.300290

	Current energy   :      -212.3946593950

	Energy change for the previous step:
		Projected    :        -0.0000019826
		Actual       :        -0.0000005762

	Performing BFGS update.
	Previous computed or guess Hessian on step 1.
	Steps to be used in Hessian update: 6 5
	Taking RFO optimization step.
	Going to follow RFO solution 1.
	Rejecting RFO root 1 because normalization gives large value.
	Rejecting RFO root 2 because normalization gives large value.
	Using RFO vector 3.
	Norm of target step-size    0.00115
	Projected energy change by RFO approximation:        -0.0000000186

	Back-transformation to cartesian coordinates...
	Successfully converged to displaced geometry.

	Back-transformation to cartesian coordinates to adjust frozen coordinates...
	Successfully converged to displaced geometry.

	--- Internal Coordinate Step in ANG or DEG, aJ/ANG or AJ/DEG ---
	 ---------------------------------------------------------------------------
	   Coordinate                Previous        Force       Change         New 
	   ----------                --------       ------       ------       ------
	    1 R(1,2)          =      0.997607     0.000047     0.000007     0.997613
	    2 R(2,3)          =      1.458905     0.000358     0.000059     1.458964
	    3 R(2,4)          =      0.997541     0.000019     0.000003     0.997544
	    4 R(3,5)          =      1.536449    -0.000007    -0.000002     1.536448
	    5 R(3,6)          =      1.083228     0.000022     0.000004     1.083232
	    6 R(3,7)          =      1.088579    -0.000012    -0.000003     1.088575
	    7 R(5,8)          =      1.529965     0.000108     0.000022     1.529987
	    8 R(5,9)          =      1.086439     0.000048     0.000010     1.086449
	    9 R(5,10)         =      1.084226     0.000012     0.000000     1.084227
	   10 R(8,11)         =      1.525363    -0.000093    -0.000020     1.525343
	   11 R(8,12)         =      1.088389     0.000012     0.000002     1.088391
	   12 R(8,13)         =      1.082620    -0.000025    -0.000005     1.082616
	   13 R(11,14)        =      1.085083    -0.000007    -0.000001     1.085082
	   14 R(11,15)        =      1.084059     0.000021     0.000004     1.084063
	   15 R(11,16)        =      1.085013    -0.000007    -0.000001     1.085011
	   16 B(1,2,3)        =    110.402606     0.000001     0.003765   110.406371
	   17 B(1,2,4)        =    107.007413    -0.000001    -0.001803   107.005610
	   18 B(2,3,5)        =    112.666775     0.000001     0.001996   112.668771
	   19 B(2,3,6)        =    105.071819    -0.000000     0.000553   105.072372
	   20 B(2,3,7)        =    112.551542    -0.000000    -0.002047   112.549495
	   21 B(3,2,4)        =    111.650745     0.000001     0.003013   111.653758
	   22 B(3,5,8)        =    115.025352     0.000000    -0.001738   115.023615
	   23 B(3,5,9)        =    107.910897     0.000000     0.001997   107.912893
	   24 B(3,5,10)       =    110.027467    -0.000000     0.003028   110.030495
	   25 B(5,3,6)        =    108.386743    -0.000000    -0.001292   108.385451
	   26 B(5,3,7)        =    109.700344    -0.000001     0.002449   109.702794
	   27 B(5,8,11)       =    112.314355     0.000000     0.000743   112.315098
	   28 B(5,8,12)       =    109.541490     0.000000     0.003027   109.544518
	   29 B(5,8,13)       =    109.747266    -0.000000    -0.001353   109.745913
	   30 B(6,3,7)        =    108.194596     0.000000    -0.001957   108.192639
	   31 B(8,5,9)        =    106.446741    -0.000001    -0.002647   106.444093
	   32 B(8,5,10)       =    108.961367     0.000000     0.000432   108.961799
	   33 B(8,11,14)      =    111.356088    -0.000000     0.000022   111.356110
	   34 B(8,11,15)      =    111.208252     0.000000     0.002168   111.210420
	   35 B(8,11,16)      =    111.010436    -0.000000    -0.001895   111.008540
	   36 B(9,5,10)       =    108.214828     0.000000    -0.001278   108.213551
	   37 B(11,8,12)      =    108.952191    -0.000000    -0.001770   108.950421
	   38 B(11,8,13)      =    109.362572     0.000000    -0.000462   109.362110
	   39 B(12,8,13)      =    106.764111     0.000000    -0.000239   106.763872
	   40 B(14,11,15)     =    107.751827    -0.000000     0.000244   107.752071
	   41 B(14,11,16)     =    107.641207     0.000000    -0.000294   107.640913
	   42 B(15,11,16)     =    107.698798    -0.000000    -0.000270   107.698528
	   43 D(1,2,3,5)      =    169.421503    -0.000000    -0.010797   169.410706
	   44 D(1,2,3,6)      =     51.615844    -0.000000    -0.010628    51.605216
	   45 D(1,2,3,7)      =    -65.898553    -0.000000    -0.007550   -65.906103
	   46 D(2,3,5,8)      =     35.528615     0.000000     0.002013    35.530627
	   47 D(2,3,5,9)      =    154.165488    -0.000000    -0.001011   154.164477
	   48 D(2,3,5,10)     =    -87.965231    -0.000000     0.000309   -87.964922
	   49 D(3,5,8,11)     =    176.082775     0.000000     0.013744   176.096519
	   50 D(3,5,8,12)     =     54.871216     0.000000     0.013392    54.884608
	   51 D(3,5,8,13)     =    -62.039398     0.000000     0.012702   -62.026696
	   52 D(4,2,3,5)      =    -71.670349     0.000000    -0.008636   -71.678985
	   53 D(4,2,3,6)      =    170.523992    -0.000000    -0.008467   170.515525
	   54 D(4,2,3,7)      =     53.009595     0.000000    -0.005389    53.004206
	   55 D(5,8,11,14)    =    -60.121067    -0.000000     0.013693   -60.107374
	   56 D(5,8,11,15)    =    179.687859    -0.000000     0.011899   179.699758
	   57 D(5,8,11,16)    =     59.796319    -0.000000     0.012062    59.808382
	   58 D(6,3,5,8)      =    151.363156     0.000000     0.003024   151.366179
	   59 *D(6,3,5,9)     =    -89.999971     0.000000    -0.000000   -89.999971
	   60 D(6,3,5,10)     =     27.869310     0.000000     0.001320    27.870630
	   61 D(7,3,5,8)      =    -90.698685    -0.000000     0.001303   -90.697382
	   62 D(7,3,5,9)      =     27.938188    -0.000000    -0.001720    27.936468
	   63 D(7,3,5,10)     =    145.807470    -0.000000    -0.000401   145.807069
	   64 D(9,5,8,11)     =     56.630781    -0.000000     0.014141    56.644922
	   65 D(9,5,8,12)     =    -64.580778    -0.000000     0.013789   -64.566989
	   66 D(9,5,8,13)     =    178.508608    -0.000000     0.013099   178.521707
	   67 D(10,5,8,11)    =    -59.859089     0.000000     0.016825   -59.842264
	   68 D(10,5,8,12)    =    178.929352     0.000000     0.016473   178.945825
	   69 D(10,5,8,13)    =     62.018738     0.000000     0.015783    62.034521
	   70 D(12,8,11,14)   =     61.427839     0.000000     0.016780    61.444619
	   71 D(12,8,11,15)   =    -58.763235     0.000000     0.014986   -58.748249
	   72 D(12,8,11,16)   =   -178.654775     0.000000     0.015150  -178.639626
	   73 D(13,8,11,14)   =    177.782324     0.000000     0.015241   177.797565
	   74 D(13,8,11,15)   =     57.591250    -0.000000     0.013447    57.604697
	   75 D(13,8,11,16)   =    -62.300290    -0.000000     0.013611   -62.286679
	 ---------------------------------------------------------------------------

  ==> Convergence Check <==

  Measures of convergence in internal coordinates in au.
  Criteria marked as inactive (o), active & met (*), and active & unmet ( ).
  ---------------------------------------------------------------------------------------------
   Step     Total Energy     Delta E     MAX Force     RMS Force      MAX Disp      RMS Disp   
  ---------------------------------------------------------------------------------------------
    Convergence Criteria    1.00e-06 *    3.00e-04 *             o    1.20e-03 *             o
  ---------------------------------------------------------------------------------------------
      7    -212.39465940   -5.76e-07 *    4.35e-05 *    6.79e-06 o    2.94e-04 *    1.33e-04 o  ~
  ---------------------------------------------------------------------------------------------


  **** Optimization is complete! (in 7 steps) ****

  ==> Optimization Summary <==

  Measures of convergence in internal coordinates in au.
  --------------------------------------------------------------------------------------------------------------- ~
   Step         Total Energy             Delta E       MAX Force       RMS Force        MAX Disp        RMS Disp  ~
  --------------------------------------------------------------------------------------------------------------- ~
      1    -212.392356172072   -212.392356172072      0.01933559      0.00456524      0.11935835      0.03721209  ~
      2    -212.393050446169     -0.000694274098      0.01528044      0.00331265      0.05314584      0.01443164  ~
      3    -212.394537222215     -0.001486776045      0.00368149      0.00075275      0.02893727      0.01168748  ~
      4    -212.394648591946     -0.000111369732      0.00110548      0.00025158      0.02715673      0.00930073  ~
      5    -212.394654694357     -0.000006102411      0.00024188      0.00006880      0.01837705      0.00637583  ~
      6    -212.394658818866     -0.000004124508      0.00014511      0.00004208      0.00460878      0.00154151  ~
      7    -212.394659395026     -0.000000576160      0.00004345      0.00000679      0.00029365      0.00013270  ~
  --------------------------------------------------------------------------------------------------------------- ~

	Writing optimization data to binary file.
	Final energy is   -212.3946593950257
	Final (previous) structure:
	Cartesian Geometry (in Angstrom)
	    H     2.3518286086   1.7088644608   0.7274326772
	    N     1.4522451938   1.2906763646   0.6221349375
	    C     1.5490963822   0.0679561301  -0.1677880932
	    H     0.8655926710   1.9672673569   0.1826449759
	    C     0.2515977378  -0.7546884509  -0.1470545783
	    H     2.3298516221  -0.5133366560   0.3075036956
	    H     1.8463061527   0.2586068677  -1.1975074981
	    C    -1.0369951901   0.0696461895  -0.1188899573
	    H     0.2174817505  -1.3478405116  -1.0566459406
	    H     0.2549783206  -1.4321906952   0.6994241591
	    C    -2.2851188209  -0.8038598452  -0.1957448480
	    H    -1.0414842768   0.7668681224  -0.9546242733
	    H    -1.0706619648   0.6650473169   0.7846757503
	    H    -2.3034503543  -1.3872099000  -1.1104974387
	    H    -3.1867981256  -0.2026581388  -0.1690009770
	    H    -2.3263618048  -1.4975674048   0.6375146112
	Saving final (previous) structure.
			--------------------------
			 OPTKING Finished Execution 
			--------------------------

    Final optimized geometry and variables:
    Molecular point group: c1
    Full point group: C1

    Geometry (in Angstrom), charge = 0, multiplicity = 1:

    H            2.351828428981     1.708864330262     0.727432621629
    N            1.452245082903     1.290676266029     0.622134889984
    C            1.549096263906     0.067956124932    -0.167788080385
    H            0.865592604916     1.967267206675     0.182644961913
    C            0.251597718616    -0.754688393304    -0.147054567115
    H            2.329851444208    -0.513336616814     0.307503672151
    H            1.846306011713     0.258606847970    -1.197507406627
    C           -1.036995110906     0.069646184200    -0.118889948200
    H            0.217481733924    -1.347840408707    -1.056645859930
    H            0.254978301130    -1.432190585796     0.699424105739
    C           -2.285118646387    -0.803859783813    -0.195744833101
    H           -1.041484197243     0.766868063794    -0.954624200387
    H           -1.070661883042     0.665047266155     0.784675690339
    H           -2.303450178358    -1.387209794113    -1.110497353863
    H           -3.186797882244    -0.202658123363    -0.169000964101
    H           -2.326361627122    -1.497567290394     0.637514562524

	Cleaning optimization helper files.


Properties will be evaluated at   0.000000,   0.000000,   0.000000 Bohr

Properties computed using the  density matrix

  Nuclear Dipole Moment: (a.u.)
     X:    -1.9380      Y:    -0.9545      Z:    -1.0790

  Electronic Dipole Moment: (a.u.)
     X:     2.1500      Y:     1.1186      Z:     0.6820

  Dipole Moment: (a.u.)
     X:     0.2121      Y:     0.1641      Z:    -0.3970     Total:     0.4791

  Dipole Moment: (Debye)
     X:     0.5390      Y:     0.4171      Z:    -1.0091     Total:     1.2177

  Quadrupole Moment: (Debye Ang)
    XX:   -32.3627     YY:   -32.5213     ZZ:   -36.0588
    XY:     0.7908     XZ:    -0.5524     YZ:    -1.3720

  Traceless Quadrupole Moment: (Debye Ang)
    XX:     1.2849     YY:     1.1263     ZZ:    -2.4112
    XY:     0.7908     XZ:    -0.5524     YZ:    -1.3720

  Mulliken Charges: (a.u.)
   Center  Symbol    Alpha    Beta     Spin     Total
       1     H     0.42933  0.42933  0.00000  0.14134
       2     N     3.69234  3.69234  0.00000 -0.38468
       3     C     3.03635  3.03635  0.00000 -0.07271
       4     H     0.42716  0.42716  0.00000  0.14568
       5     C     3.07565  3.07565  0.00000 -0.15131
       6     H     0.45504  0.45504  0.00000  0.08992
       7     H     0.46318  0.46318  0.00000  0.07364
       8     C     3.09398  3.09398  0.00000 -0.18796
       9     H     0.45776  0.45776  0.00000  0.08448
      10     H     0.45445  0.45445  0.00000  0.09110
      11     C     3.15107  3.15107  0.00000 -0.30214
      12     H     0.45804  0.45804  0.00000  0.08393
      13     H     0.44553  0.44553  0.00000  0.10894
      14     H     0.45660  0.45660  0.00000  0.08679
      15     H     0.44905  0.44905  0.00000  0.10189
      16     H     0.45446  0.45446  0.00000  0.09108

   Total alpha = 21.00000, Total beta = 21.00000, Total charge = -0.00000


*** PSI4 exiting successfully. Buy a developer a beer!
