    -----------------------------------------------------------------------
          Psi4: An Open-Source Ab Initio Electronic Structure Package
                              Psi4 1.0.54 Driver

                          Git: Rev {master} 8d4cec3 dirty

    J. M. Turney, A. C. Simmonett, R. M. Parrish, E. G. Hohenstein,
    F. A. Evangelista, J. T. Fermann, B. J. Mintz, L. A. Burns, J. J. Wilke,
    M. L. Abrams, N. J. Russ, M. L. Leininger, C. L. Janssen, E. T. Seidl,
    W. D. Allen, H. F. Schaefer, R. A. King, E. F. Valeev, C. D. Sherrill,
    and T. D. Crawford, WIREs Comput. Mol. Sci. 2, 556-565 (2012)
    (doi: 10.1002/wcms.93)

                         Additional Contributions by
    A. E. DePrince, U. Bozkaya, A. Yu. Sokolov, D. G. A. Smith, R. Di Remigio,
    R. M. Richard, J. F. Gonthier, H. R. McAlexander, M. Saitow, and
    B. P. Pritchard
    -----------------------------------------------------------------------


    Psi4 started on: Sat Sep 10 16:00:29 2016

    Process ID:  31700
    PSI4DATADIR: /export131/home/mjharvey/miniconda3/share/psi4
    Memory level set to 256.000 MB

  ==> Input File <==

--------------------------------------------------------------------------
set {
	reference rhf
	basis cc-pvtz
}


set_num_threads( 4 )
memory 2 gb

molecule MOL {
0 1

O	 0.843598	 1.893167	 0.457532
C	 0.037563	 1.837416	 1.322553
C	 -1.228176	 1.019986	 1.288245
O	 0.148721	 2.503678	 2.460145
C	 -1.413045	 0.229353	 0.001137
H	 -1.210245	 0.364654	 2.152941
H	 -2.055458	 1.702714	 1.452407
C	 -2.702562	 -0.586401	 0.000228
H	 -0.562552	 -0.427984	 -0.140674
H	 -1.409225	 0.911265	 -0.841790
C	 -3.953810	 0.284959	 -0.000782
H	 -2.717793	 -1.238567	 -0.869075
H	 -2.719108	 -1.238472	 0.869576
H	 -3.983727	 0.924403	 -0.876454
H	 -4.852989	 -0.320147	 -0.001515
H	 -3.985140	 0.924399	 0.874841
C	 1.293832	 3.314791	 2.627875
H	 2.193451	 2.719431	 2.578269
H	 1.199152	 3.765490	 3.602438
H	 1.334684	 4.079099	 1.866043

	symmetry c1
}
set optking {
	frozen_dihedral = ("
		9 5 8 12
	")
}

ee,wfn = optimize('scf', return_wfn=True)
oeprop( wfn, 'DIPOLE', 'QUADRUPOLE', 'MULLIKEN_CHARGES')
f=open( 'psi4out.xyz', 'w' )
f.write( "20  " )
f.write( str(ee) + "\n" )
f.write( MOL.save_string_xyz() )
f.close()
--------------------------------------------------------------------------

  Memory set to   2.000 GiB by Python script.
gradient() will perform analytic gradient computation.

*** tstart() called on cx1-27-2-2
*** at Sat Sep 10 16:00:30 2016


         ---------------------------------------------------------
                                   SCF
            by Justin Turney, Rob Parrish, and Andy Simmonett
                              RHF Reference
                        4 Threads,   2000 MiB Core
         ---------------------------------------------------------

  ==> Geometry <==

    Molecular point group: c1
    Full point group: C1

    Geometry (in Angstrom), charge = 0, multiplicity = 1:

       Center              X                  Y                   Z               Mass       
    ------------   -----------------  -----------------  -----------------  -----------------
           O          1.693313427604     0.551119363820    -0.578698861672    15.994914619560
           C          0.887278427604     0.495368363820     0.286322138328    12.000000000000
           C         -0.378460572396    -0.322061636180     0.252014138328    12.000000000000
           O          0.998436427604     1.161630363820     1.423914138328    15.994914619560
           C         -0.563329572396    -1.112694636180    -1.035093861672    12.000000000000
           H         -0.360529572396    -0.977393636180     1.116710138328     1.007825032070
           H         -1.205742572396     0.360666363820     0.416176138328     1.007825032070
           C         -1.852846572396    -1.928448636180    -1.036002861672    12.000000000000
           H          0.287163427604    -1.770031636180    -1.176904861672     1.007825032070
           H         -0.559509572396    -0.430782636180    -1.878020861672     1.007825032070
           C         -3.104094572396    -1.057088636180    -1.037012861672    12.000000000000
           H         -1.868077572396    -2.580614636180    -1.905305861672     1.007825032070
           H         -1.869392572396    -2.580519636180    -0.166654861672     1.007825032070
           H         -3.134011572396    -0.417644636180    -1.912684861672     1.007825032070
           H         -4.003273572396    -1.662194636180    -1.037745861672     1.007825032070
           H         -3.135424572396    -0.417648636180    -0.161389861672     1.007825032070
           C          2.143547427604     1.972743363820     1.591644138328    12.000000000000
           H          3.043166427604     1.377383363820     1.542038138328     1.007825032070
           H          2.048867427604     2.423442363820     2.566207138328     1.007825032070
           H          2.184399427604     2.737051363820     0.829812138328     1.007825032070

  Running in c1 symmetry.

  Rotational constants: A =      0.18998  B =      0.02797  C =      0.02584 [cm^-1]
  Rotational constants: A =   5695.52589  B =    838.46318  C =    774.79203 [MHz]
  Nuclear repulsion =  386.481337454378831

  Charge       = 0
  Multiplicity = 1
  Electrons    = 64
  Nalpha       = 32
  Nbeta        = 32

  ==> Algorithm <==

  SCF Algorithm Type is DF.
  DIIS enabled.
  MOM disabled.
  Fractional occupation disabled.
  Guess Type is SAD.
  Energy threshold   = 1.00e-08
  Density threshold  = 1.00e-08
  Integral threshold = 0.00e+00

  ==> Primary Basis <==

  Basis Set: CC-PVTZ
    Number of shells: 152
    Number of basis function: 408
    Number of Cartesian functions: 460
    Spherical Harmonics?: true
    Max angular momentum: 3

  ==> Pre-Iterations <==

   -------------------------------------------------------
    Irrep   Nso     Nmo     Nalpha   Nbeta   Ndocc  Nsocc
   -------------------------------------------------------
     A        408     408       0       0       0       0
   -------------------------------------------------------
    Total     408     408      32      32      32       0
   -------------------------------------------------------

  ==> Integral Setup <==

  ==> DFJK: Density-Fitted J/K Matrices <==

    J tasked:                  Yes
    K tasked:                  Yes
    wK tasked:                  No
    OpenMP threads:              4
    Integrals threads:           4
    Memory (MB):              1430
    Algorithm:                Core
    Integral Cache:           NONE
    Schwarz Cutoff:          1E-12
    Fitting Condition:       1E-12

   => Auxiliary Basis Set <=

  Basis Set: 
    Number of shells: 320
    Number of basis function: 992
    Number of Cartesian functions: 1188
    Spherical Harmonics?: true
    Max angular momentum: 4

  Minimum eigenvalue in the overlap matrix is 2.2600436203E-04.
  Using Symmetric Orthogonalization.
  SCF Guess: Superposition of Atomic Densities via on-the-fly atomic UHF.

  ==> Iterations <==

                           Total Energy        Delta E     RMS |[F,P]|

   @DF-RHF iter   0:  -387.60644582767702   -3.87606e+02   1.37627e-02 
   @DF-RHF iter   1:  -383.83318562773172    3.77326e+00   1.60780e-03 
   @DF-RHF iter   2:  -384.02145992530961   -1.88274e-01   9.13485e-04 DIIS
   @DF-RHF iter   3:  -384.07291163022478   -5.14517e-02   2.64140e-04 DIIS
   @DF-RHF iter   4:  -384.08003027097550   -7.11864e-03   8.36462e-05 DIIS
   @DF-RHF iter   5:  -384.08084275928547   -8.12488e-04   2.52313e-05 DIIS
   @DF-RHF iter   6:  -384.08097464563969   -1.31886e-04   1.12079e-05 DIIS
   @DF-RHF iter   7:  -384.08100172523893   -2.70796e-05   4.57864e-06 DIIS
   @DF-RHF iter   8:  -384.08100859609033   -6.87085e-06   1.72026e-06 DIIS
   @DF-RHF iter   9:  -384.08100979252629   -1.19644e-06   5.23781e-07 DIIS
   @DF-RHF iter  10:  -384.08100987927662   -8.67503e-08   1.65200e-07 DIIS
   @DF-RHF iter  11:  -384.08100988611648   -6.83985e-09   5.17835e-08 DIIS
   @DF-RHF iter  12:  -384.08100988681451   -6.98037e-10   1.75537e-08 DIIS
   @DF-RHF iter  13:  -384.08100988689057   -7.60565e-11   6.12498e-09 DIIS

  ==> Post-Iterations <==

    Orbital Energies (a.u.)
    -----------------------

    Doubly Occupied:                                                      

       1A    -20.596334     2A    -20.534030     3A    -11.364558  
       4A    -11.278496     5A    -11.233282     6A    -11.218438  
       7A    -11.217182     8A    -11.210400     9A     -1.472190  
      10A     -1.365732    11A     -1.092130    12A     -1.023416  
      13A     -0.968138    14A     -0.894997    15A     -0.800895  
      16A     -0.766570    17A     -0.704740    18A     -0.685940  
      19A     -0.676167    20A     -0.635461    21A     -0.613713  
      22A     -0.595879    23A     -0.570354    24A     -0.549735  
      25A     -0.535526    26A     -0.524231    27A     -0.509980  
      28A     -0.475516    29A     -0.473757    30A     -0.467656  
      31A     -0.459114    32A     -0.440960  

    Virtual:                                                              

      33A      0.137523    34A      0.153335    35A      0.165506  
      36A      0.171505    37A      0.185455    38A      0.194529  
      39A      0.212177    40A      0.221712    41A      0.224029  
      42A      0.227674    43A      0.240287    44A      0.246218  
      45A      0.262182    46A      0.273551    47A      0.329420  
      48A      0.342965    49A      0.358290    50A      0.373305  
      51A      0.381055    52A      0.382695    53A      0.394631  
      54A      0.401611    55A      0.428690    56A      0.443877  
      57A      0.447457    58A      0.470592    59A      0.481334  
      60A      0.518608    61A      0.543930    62A      0.549137  
      63A      0.566999    64A      0.569571    65A      0.582300  
      66A      0.594785    67A      0.609572    68A      0.616650  
      69A      0.624042    70A      0.626770    71A      0.628557  
      72A      0.633753    73A      0.642784    74A      0.646589  
      75A      0.660370    76A      0.670894    77A      0.671945  
      78A      0.680493    79A      0.698160    80A      0.707103  
      81A      0.714673    82A      0.740611    83A      0.747278  
      84A      0.760712    85A      0.783920    86A      0.815706  
      87A      0.826497    88A      0.830952    89A      0.863571  
      90A      0.871985    91A      0.887359    92A      0.898153  
      93A      0.930351    94A      0.941827    95A      0.961525  
      96A      0.962471    97A      0.999041    98A      1.005978  
      99A      1.034756   100A      1.045050   101A      1.066539  
     102A      1.082513   103A      1.098316   104A      1.108600  
     105A      1.122148   106A      1.132898   107A      1.151558  
     108A      1.171671   109A      1.177094   110A      1.195496  
     111A      1.225418   112A      1.229050   113A      1.239173  
     114A      1.256261   115A      1.260528   116A      1.270838  
     117A      1.291429   118A      1.308527   119A      1.311668  
     120A      1.333679   121A      1.338595   122A      1.350712  
     123A      1.359997   124A      1.371772   125A      1.384508  
     126A      1.395771   127A      1.412647   128A      1.432924  
     129A      1.440102   130A      1.454755   131A      1.465410  
     132A      1.474370   133A      1.488610   134A      1.500110  
     135A      1.510327   136A      1.514917   137A      1.525714  
     138A      1.534314   139A      1.539607   140A      1.567171  
     141A      1.570057   142A      1.586424   143A      1.607425  
     144A      1.618752   145A      1.629858   146A      1.661596  
     147A      1.671378   148A      1.702659   149A      1.724321  
     150A      1.738489   151A      1.768715   152A      1.772953  
     153A      1.811290   154A      1.828854   155A      1.833254  
     156A      1.840993   157A      1.855440   158A      1.867925  
     159A      1.911372   160A      1.951281   161A      1.958695  
     162A      2.013245   163A      2.059349   164A      2.078260  
     165A      2.154781   166A      2.254985   167A      2.306182  
     168A      2.327175   169A      2.341577   170A      2.445258  
     171A      2.470833   172A      2.493147   173A      2.508708  
     174A      2.549043   175A      2.586884   176A      2.602231  
     177A      2.624658   178A      2.663695   179A      2.680012  
     180A      2.696483   181A      2.709223   182A      2.738210  
     183A      2.763248   184A      2.786568   185A      2.804803  
     186A      2.819694   187A      2.842626   188A      2.853073  
     189A      2.872553   190A      2.912889   191A      2.934346  
     192A      2.941129   193A      2.948605   194A      2.960549  
     195A      2.972861   196A      2.993428   197A      3.005790  
     198A      3.027744   199A      3.032053   200A      3.048675  
     201A      3.061493   202A      3.091368   203A      3.115299  
     204A      3.119498   205A      3.132183   206A      3.137831  
     207A      3.148804   208A      3.154818   209A      3.179850  
     210A      3.226102   211A      3.235149   212A      3.255989  
     213A      3.272961   214A      3.283331   215A      3.287266  
     216A      3.291010   217A      3.306845   218A      3.326031  
     219A      3.336580   220A      3.356007   221A      3.359724  
     222A      3.373510   223A      3.387122   224A      3.415165  
     225A      3.421646   226A      3.427974   227A      3.443563  
     228A      3.456073   229A      3.468592   230A      3.472063  
     231A      3.480523   232A      3.488259   233A      3.501724  
     234A      3.508630   235A      3.515895   236A      3.523913  
     237A      3.537601   238A      3.564212   239A      3.602711  
     240A      3.623163   241A      3.626861   242A      3.633314  
     243A      3.645104   244A      3.658340   245A      3.679171  
     246A      3.693617   247A      3.714398   248A      3.732906  
     249A      3.746000   250A      3.749405   251A      3.757399  
     252A      3.766887   253A      3.782787   254A      3.800295  
     255A      3.802493   256A      3.842312   257A      3.845942  
     258A      3.864835   259A      3.866962   260A      3.890398  
     261A      3.908120   262A      3.922238   263A      3.944046  
     264A      3.965618   265A      3.974449   266A      3.989431  
     267A      4.009862   268A      4.031031   269A      4.062338  
     270A      4.085783   271A      4.091938   272A      4.096600  
     273A      4.116238   274A      4.133898   275A      4.144419  
     276A      4.155106   277A      4.161447   278A      4.172780  
     279A      4.188374   280A      4.194475   281A      4.205682  
     282A      4.220160   283A      4.230138   284A      4.242759  
     285A      4.247888   286A      4.279422   287A      4.302297  
     288A      4.310207   289A      4.356587   290A      4.364319  
     291A      4.380584   292A      4.389294   293A      4.398287  
     294A      4.399979   295A      4.414730   296A      4.432345  
     297A      4.442863   298A      4.466273   299A      4.481989  
     300A      4.496563   301A      4.503667   302A      4.505970  
     303A      4.537427   304A      4.550410   305A      4.577780  
     306A      4.606420   307A      4.621362   308A      4.633175  
     309A      4.637818   310A      4.644373   311A      4.668909  
     312A      4.679774   313A      4.693526   314A      4.738764  
     315A      4.745120   316A      4.772869   317A      4.783150  
     318A      4.802806   319A      4.832220   320A      4.895971  
     321A      4.907353   322A      4.940966   323A      4.967431  
     324A      4.994390   325A      5.025972   326A      5.042096  
     327A      5.078130   328A      5.082755   329A      5.093392  
     330A      5.116413   331A      5.131919   332A      5.171042  
     333A      5.220249   334A      5.236116   335A      5.236745  
     336A      5.259150   337A      5.270062   338A      5.316947  
     339A      5.328007   340A      5.346183   341A      5.371258  
     342A      5.382086   343A      5.385396   344A      5.438182  
     345A      5.449825   346A      5.467181   347A      5.495693  
     348A      5.527802   349A      5.556755   350A      5.560071  
     351A      5.570139   352A      5.600446   353A      5.612726  
     354A      5.619894   355A      5.665916   356A      5.666950  
     357A      5.693029   358A      5.740416   359A      5.747711  
     360A      5.758057   361A      5.777367   362A      5.801090  
     363A      5.831780   364A      5.851592   365A      5.869603  
     366A      5.881759   367A      5.905077   368A      5.918274  
     369A      5.923597   370A      5.975474   371A      5.995238  
     372A      6.041822   373A      6.050427   374A      6.106300  
     375A      6.181242   376A      6.187562   377A      6.244826  
     378A      6.296365   379A      6.328734   380A      6.343549  
     381A      6.391807   382A      6.426125   383A      6.465726  
     384A      6.598034   385A      6.611463   386A      6.692002  
     387A      6.845114   388A      6.869478   389A      6.898121  
     390A      6.914501   391A      7.048627   392A      7.249207  
     393A      7.262941   394A      7.374109   395A      7.485359  
     396A      7.501211   397A      7.579295   398A      7.690680  
     399A      7.897489   400A      7.985145   401A      9.985566  
     402A     12.103509   403A     13.221392   404A     13.600912  
     405A     13.980612   406A     14.138650   407A     14.257513  
     408A     14.690666  

    Final Occupation by Irrep:
              A 
    DOCC [    32 ]

  Energy converged.

  @DF-RHF Final Energy:  -384.08100988689057

   => Energetics <=

    Nuclear Repulsion Energy =            386.4813374543788314
    One-Electron Energy =               -1289.2136671611212932
    Two-Electron Energy =                 518.6513198198521195
    DFT Exchange-Correlation Energy =       0.0000000000000000
    Empirical Dispersion Energy =           0.0000000000000000
    PCM Polarization Energy =               0.0000000000000000
    EFP Energy =                            0.0000000000000000
    Total Energy =                       -384.0810098868903424


  Saving occupied orbitals to File 180.

*** tstop() called on cx1-27-2-2 at Sat Sep 10 16:00:44 2016
Module time:
	user time   =      49.11 seconds =       0.82 minutes
	system time =       1.15 seconds =       0.02 minutes
	total time  =         14 seconds =       0.23 minutes
Total time:
	user time   =      49.11 seconds =       0.82 minutes
	system time =       1.15 seconds =       0.02 minutes
	total time  =         14 seconds =       0.23 minutes


Properties will be evaluated at   0.000000,   0.000000,   0.000000 Bohr

Properties computed using the SCF density matrix

  Nuclear Dipole Moment: (a.u.)
     X:    -8.0234      Y:    -3.6838      Z:    -1.6532

  Electronic Dipole Moment: (a.u.)
     X:     7.6319      Y:     3.7352      Z:     2.2502

  Dipole Moment: (a.u.)
     X:    -0.3915      Y:     0.0514      Z:     0.5971     Total:     0.7158

  Dipole Moment: (Debye)
     X:    -0.9951      Y:     0.1306      Z:     1.5176     Total:     1.8194


*** tstart() called on cx1-27-2-2
*** at Sat Sep 10 16:00:44 2016


         ------------------------------------------------------------
                                   SCF GRAD                          
                          Rob Parrish, Justin Turney,                
                       Andy Simmonett, and Alex Sokolov              
         ------------------------------------------------------------

  ==> Geometry <==

    Molecular point group: c1
    Full point group: C1

    Geometry (in Angstrom), charge = 0, multiplicity = 1:

       Center              X                  Y                   Z               Mass       
    ------------   -----------------  -----------------  -----------------  -----------------
           O          1.693313427604     0.551119363820    -0.578698861672    15.994914619560
           C          0.887278427604     0.495368363820     0.286322138328    12.000000000000
           C         -0.378460572396    -0.322061636180     0.252014138328    12.000000000000
           O          0.998436427604     1.161630363820     1.423914138328    15.994914619560
           C         -0.563329572396    -1.112694636180    -1.035093861672    12.000000000000
           H         -0.360529572396    -0.977393636180     1.116710138328     1.007825032070
           H         -1.205742572396     0.360666363820     0.416176138328     1.007825032070
           C         -1.852846572396    -1.928448636180    -1.036002861672    12.000000000000
           H          0.287163427604    -1.770031636180    -1.176904861672     1.007825032070
           H         -0.559509572396    -0.430782636180    -1.878020861672     1.007825032070
           C         -3.104094572396    -1.057088636180    -1.037012861672    12.000000000000
           H         -1.868077572396    -2.580614636180    -1.905305861672     1.007825032070
           H         -1.869392572396    -2.580519636180    -0.166654861672     1.007825032070
           H         -3.134011572396    -0.417644636180    -1.912684861672     1.007825032070
           H         -4.003273572396    -1.662194636180    -1.037745861672     1.007825032070
           H         -3.135424572396    -0.417648636180    -0.161389861672     1.007825032070
           C          2.143547427604     1.972743363820     1.591644138328    12.000000000000
           H          3.043166427604     1.377383363820     1.542038138328     1.007825032070
           H          2.048867427604     2.423442363820     2.566207138328     1.007825032070
           H          2.184399427604     2.737051363820     0.829812138328     1.007825032070

  Nuclear repulsion =  386.481337454378775

  ==> Basis Set <==

  Basis Set: CC-PVTZ
    Number of shells: 152
    Number of basis function: 408
    Number of Cartesian functions: 460
    Spherical Harmonics?: true
    Max angular momentum: 3

  ==> DFJKGrad: Density-Fitted SCF Gradients <==

    Gradient:                    1
    J tasked:                  Yes
    K tasked:                  Yes
    wK tasked:                  No
    OpenMP threads:              4
    Integrals threads:           4
    Memory (MB):              1430
    Schwarz Cutoff:          0E+00
    Fitting Condition:       1E-12

   => Auxiliary Basis Set <=

  Basis Set: 
    Number of shells: 320
    Number of basis function: 992
    Number of Cartesian functions: 1188
    Spherical Harmonics?: true
    Max angular momentum: 4


  -Total Gradient:
     Atom            X                  Y                   Z
    ------   -----------------  -----------------  -----------------
       1       -0.000050387174    -0.000071234873    -0.000018021253
       2        0.000185630488     0.000210115429     0.000265534200
       3       -0.000142950649    -0.001859033159    -0.000424976782
       4       -0.000020734348    -0.000058525348    -0.000090124081
       5       -0.002254612011     0.001659248651     0.000769430261
       6       -0.000062590471     0.000296022725     0.000011159356
       7       -0.002892282194    -0.000027642479    -0.000579014319
       8        0.001340269772    -0.000061450272     0.000577518325
       9        0.000285880797    -0.000564607257    -0.000631008216
      10       -0.000106421543     0.000045329235     0.000140294938
      11        0.001980277712     0.000572449304    -0.000818098612
      12       -0.000679570135    -0.001454811949    -0.000762134726
      13       -0.000118682157     0.000424310009     0.000179173242
      14       -0.000154508768     0.000040964486     0.000290573194
      15        0.000070996585    -0.000307617346    -0.000165553596
      16        0.002598253003     0.001121611549     0.001256698049
      17        0.000026986863     0.000037963303     0.000003072067
      18       -0.000002753720     0.000000586022     0.000002192201
      19       -0.000003053124    -0.000004766039    -0.000006317903
      20        0.000000251074     0.000001088008    -0.000000396348


*** tstop() called on cx1-27-2-2 at Sat Sep 10 16:00:58 2016
Module time:
	user time   =      51.05 seconds =       0.85 minutes
	system time =       1.25 seconds =       0.02 minutes
	total time  =         14 seconds =       0.23 minutes
Total time:
	user time   =     100.33 seconds =       1.67 minutes
	system time =       2.40 seconds =       0.04 minutes
	total time  =         28 seconds =       0.47 minutes

			-----------------------------------------
			 OPTKING 2.0: for geometry optimizations 
			  - R.A. King,  Bethel University        
			-----------------------------------------

	Internal coordinates to be generated automatically.
	Detected frag 1 with atoms:  1 2 3 4 5 6 7 8 9 10 11 12 13 14 15 16 17 18 19 20
	---Fragment 1 Bond Connectivity---
	 1 : 2
	 2 : 1 3 4
	 3 : 2 5 6 7
	 4 : 2 17
	 5 : 3 8 9 10
	 6 : 3
	 7 : 3
	 8 : 5 11 12 13
	 9 : 5
	 10 : 5
	 11 : 8 14 15 16
	 12 : 8
	 13 : 8
	 14 : 11
	 15 : 11
	 16 : 11
	 17 : 4 18 19 20
	 18 : 17
	 19 : 17
	 20 : 17

	Assuming in current code that numbering for constraints corresponds to unified fragment.
	Frozen dihedral atom list: 
	     9     5     8    12
	---Fragment 1 Geometry and Gradient---
	 O           3.1998986353        1.0414646642       -1.0935823620
	 C           1.6767132318        0.9361105425        0.5410704272
	 C          -0.7151868339       -0.6086082903        0.4762377031
	 O           1.8867714093        2.1951632553        2.6908077582
	 C          -1.0645386144       -2.1026881319       -1.9560439204
	 H          -0.6813021546       -1.8470062964        2.1102763313
	 H          -2.2785232486        0.6815606530        0.7864589245
	 C          -3.5013725881       -3.6442397837       -1.9577616814
	 H           0.5426602336       -3.3448750389       -2.2240278730
	 H          -1.0573198606       -0.8140612052       -3.5489451004
	 C          -5.8658886324       -1.9976080206       -1.9596703048
	 H          -3.5301550068       -4.8766549169       -3.6005062779
	 H          -3.5326399967       -4.8764753929       -0.3149320473
	 H          -5.9224235691       -0.7892339832       -3.6144505671
	 H          -7.5650906868       -3.1410926419       -1.9610554741
	 H          -5.9250937521       -0.7892415422       -0.3049826392
	 C           4.0507175910        3.7279446881        3.0077715225
	 H           5.7507511250        2.6028773376        2.9140297679
	 H           3.8717983208        4.5796423665        4.8494286917
	 H           4.1279166830        5.1722774893        1.5681176832
	            -0.0000503872       -0.0000712349       -0.0000180213
	             0.0001856305        0.0002101154        0.0002655342
	            -0.0001429506       -0.0018590332       -0.0004249768
	            -0.0000207343       -0.0000585253       -0.0000901241
	            -0.0022546120        0.0016592487        0.0007694303
	            -0.0000625905        0.0002960227        0.0000111594
	            -0.0028922822       -0.0000276425       -0.0005790143
	             0.0013402698       -0.0000614503        0.0005775183
	             0.0002858808       -0.0005646073       -0.0006310082
	            -0.0001064215        0.0000453292        0.0001402949
	             0.0019802777        0.0005724493       -0.0008180986
	            -0.0006795701       -0.0014548119       -0.0007621347
	            -0.0001186822        0.0004243100        0.0001791732
	            -0.0001545088        0.0000409645        0.0002905732
	             0.0000709966       -0.0003076173       -0.0001655536
	             0.0025982530        0.0011216115        0.0012566980
	             0.0000269869        0.0000379633        0.0000030721
	            -0.0000027537        0.0000005860        0.0000021922
	            -0.0000030531       -0.0000047660       -0.0000063179
	             0.0000002511        0.0000010880       -0.0000003963

	Previous optimization step data not found.  Starting new optimization.

	---Fragment 1 Intrafragment Coordinates---
	 - Coordinate -           - BOHR/RAD -       - ANG/DEG -
	 R(1,2)           =         2.236802	       1.183665
	 R(2,3)           =         2.848078	       1.507138
	 R(2,4)           =         2.500142	       1.323018
	 R(3,5)           =         2.875816	       1.521816
	 R(3,6)           =         2.050576	       1.085118
	 R(3,7)           =         2.050559	       1.085109
	 R(4,17)          =         2.670683	       1.413265
	 R(5,8)           =         2.883495	       1.525880
	 R(5,9)           =         2.048886	       1.084224
	 R(5,10)          =         2.048889	       1.084225
	 R(8,11)          =         2.881377	       1.524759
	 R(8,12)          =         2.053846	       1.086849
	 R(8,13)          =         2.053843	       1.086847
	 R(11,14)         =         2.049796	       1.084705
	 R(11,15)         =         2.048132	       1.083825
	 R(11,16)         =         2.049792	       1.084703
	 R(17,18)         =         2.040754	       1.079921
	 R(17,19)         =         2.036935	       1.077899
	 R(17,20)         =         2.040750	       1.079918
	 B(1,2,3)         =         2.190514	     125.507215
	 B(1,2,4)         =         2.150100	     123.191679
	 B(2,3,5)         =         1.985649	     113.769292
	 B(2,3,6)         =         1.870813	     107.189681
	 B(2,3,7)         =         1.870868	     107.192849
	 B(2,4,17)        =         2.047836	     117.332387
	 B(3,2,4)         =         1.942571	     111.301107
	 B(3,5,8)         =         1.961581	     112.390312
	 B(3,5,9)         =         1.907429	     109.287623
	 B(3,5,10)        =         1.907480	     109.290575
	 B(4,17,18)       =         1.931702	     110.678364
	 B(4,17,19)       =         1.850539	     106.028098
	 B(4,17,20)       =         1.931702	     110.678378
	 B(5,3,6)         =         1.941440	     111.236337
	 B(5,3,7)         =         1.941442	     111.236430
	 B(5,8,11)        =         1.969243	     112.829321
	 B(5,8,12)        =         1.910401	     109.457942
	 B(5,8,13)        =         1.910426	     109.459360
	 B(6,3,7)         =         1.846289	     105.784579
	 B(8,5,9)         =         1.916349	     109.798701
	 B(8,5,10)        =         1.916388	     109.800919
	 B(8,11,14)       =         1.939126	     111.103718
	 B(8,11,15)       =         1.940949	     111.208210
	 B(8,11,16)       =         1.939124	     111.103601
	 B(9,5,10)        =         1.851321	     106.072892
	 B(11,8,12)       =         1.908037	     109.322453
	 B(11,8,13)       =         1.908055	     109.323507
	 B(12,8,13)       =         1.854123	     106.233406
	 B(14,11,15)      =         1.881469	     107.800208
	 B(14,11,16)      =         1.879019	     107.659881
	 B(15,11,16)      =         1.881479	     107.800792
	 B(18,17,19)      =         1.923266	     110.195036
	 B(18,17,20)      =         1.903143	     109.042075
	 B(19,17,20)      =         1.923267	     110.195084
	 D(1,2,3,5)       =        -0.000382	      -0.021887
	 D(1,2,3,6)       =         2.153422	     123.382013
	 D(1,2,3,7)       =        -2.154229	    -123.428223
	 D(1,2,4,17)      =         0.000066	       0.003781
	 D(2,3,5,8)       =         3.141159	     179.975154
	 D(2,3,5,9)       =         1.009060	      57.814886
	 D(2,3,5,10)      =        -1.009842	     -57.859666
	 D(2,4,17,18)     =        -1.055916	     -60.499522
	 D(2,4,17,19)     =        -3.141489	    -179.994071
	 D(2,4,17,20)     =         1.056122	      60.511314
	 D(3,2,4,17)      =         3.141571	     179.998766
	 D(3,5,8,11)      =         1.154706	      66.159799
	 D(3,5,8,12)      =        -2.999699	    -171.870092
	 D(3,5,8,13)      =        -0.974115	     -55.812675
	 D(4,2,3,5)       =         3.141301	     179.983268
	 D(4,2,3,6)       =        -0.988080	     -56.612832
	 D(4,2,3,7)       =         0.987454	      56.576932
	 D(5,8,11,14)     =         1.045662	      59.912022
	 D(5,8,11,15)     =         3.141492	     179.994219
	 D(5,8,11,16)     =        -1.045852	     -59.922924
	 D(6,3,5,8)       =         1.026318	      58.803718
	 D(6,3,5,9)       =        -1.105780	     -63.356550
	 D(6,3,5,10)      =        -3.124682	    -179.031102
	 D(7,3,5,8)       =        -1.027112	     -58.849194
	 D(7,3,5,9)       =         3.123974	     178.990538
	 D(7,3,5,10)      =         1.105072	      63.315986
	 D(9,5,8,11)      =        -3.001444	    -171.970089
	*D(9,5,8,12)      =        -0.872664	     -49.999980
	 D(9,5,8,13)      =         1.152920	      66.057437
	 D(10,5,8,11)     =        -0.972422	     -55.715658
	 D(10,5,8,12)     =         1.156358	      66.254451
	 D(10,5,8,13)     =        -3.101243	    -177.688132
	 D(12,8,11,14)    =        -1.084449	     -62.134378
	 D(12,8,11,15)    =         1.011380	      57.947819
	 D(12,8,11,16)    =         3.107221	     178.030676
	 D(13,8,11,14)    =        -3.107367	    -178.039010
	 D(13,8,11,15)    =        -1.011537	     -57.956813
	 D(13,8,11,16)    =         1.084304	      62.126044

	Current energy   :      -384.0810098869

	Generating empirical Hessian (Schlegel '84) for each fragment.
	Taking RFO optimization step.
	Going to follow RFO solution 1.
	Using RFO vector 1.
	Norm of target step-size    0.29781
	Projected energy change by RFO approximation:        -0.0011887940

	Back-transformation to cartesian coordinates...
	Could not converge backtransformation.
	Using first guess instead.

	Back-transformation to cartesian coordinates to adjust frozen coordinates...
	Successfully converged to displaced geometry.

	--- Internal Coordinate Step in ANG or DEG, aJ/ANG or AJ/DEG ---
	 ---------------------------------------------------------------------------
	   Coordinate                Previous        Force       Change         New 
	   ----------                --------       ------       ------       ------
	    1 R(1,2)          =      1.183665     0.000202     0.003227     1.186892
	    2 R(2,3)          =      1.507138    -0.001485     0.001626     1.508764
	    3 R(2,4)          =      1.323018     0.000746     0.001633     1.324651
	    4 R(3,5)          =      1.521816     0.015111     0.004706     1.526522
	    5 R(3,6)          =      1.085118     0.001408     0.002963     1.088081
	    6 R(3,7)          =      1.085109    -0.017302     0.000560     1.085669
	    7 R(4,17)         =      1.413265    -0.000307     0.001531     1.414796
	    8 R(5,8)          =      1.525880     0.036551     0.009780     1.535660
	    9 R(5,9)          =      1.084224    -0.005348     0.001755     1.085979
	   10 R(5,10)         =      1.084225     0.000667     0.002682     1.086908
	   11 R(8,11)         =      1.524759     0.023673     0.014459     1.539218
	   12 R(8,12)         =      1.086849    -0.012293     0.001113     1.087962
	   13 R(8,13)         =      1.086847     0.000902     0.002782     1.089629
	   14 R(11,14)        =      1.084705     0.001699     0.003527     1.088232
	   15 R(11,15)        =      1.083825    -0.000931     0.009317     1.093142
	   16 R(11,16)        =      1.084703    -0.013187     0.010335     1.095038
	   17 R(17,18)        =      1.079921     0.000022     0.003172     1.083093
	   18 R(17,19)        =      1.077899     0.000061     0.001725     1.079624
	   19 R(17,20)        =      1.079918    -0.000009     0.002906     1.082824
	   20 B(1,2,3)        =    125.507215     0.000010     0.094577   125.601792
	   21 B(1,2,4)        =    123.191679    -0.000004     0.030680   123.222358
	   22 B(2,3,5)        =    113.769292    -0.000064    -0.421389   113.347903
	   23 B(2,3,6)        =    107.189681     0.000030    -0.107044   107.082637
	   24 B(2,3,7)        =    107.192849    -0.000082    -0.526260   106.666590
	   25 B(2,4,17)       =    117.332387    -0.000001    -0.105262   117.227125
	   26 B(3,2,4)        =    111.301107    -0.000007    -0.125308   111.175799
	   27 B(3,5,8)        =    112.390312     0.000530     1.785206   114.175517
	   28 B(3,5,9)        =    109.287623    -0.000257    -1.638336   107.649287
	   29 B(3,5,10)       =    109.290575    -0.000126     0.243331   109.533906
	   30 B(4,17,18)      =    110.678364    -0.000000    -0.004429   110.673934
	   31 B(4,17,19)      =    106.028098     0.000001    -0.106722   105.921377
	   32 B(4,17,20)      =    110.678378    -0.000000     0.042701   110.721079
	   33 B(5,3,6)        =    111.236337    -0.000022    -0.193657   111.042680
	   34 B(5,3,7)        =    111.236430     0.000148     1.076107   112.312536
	   35 B(5,8,11)       =    112.829321     0.000706     2.519064   115.348385
	   36 B(5,8,12)       =    109.457942    -0.000282    -1.902182   107.555760
	   37 B(5,8,13)       =    109.459360    -0.000163     0.477224   109.936584
	   38 B(6,3,7)        =    105.784579    -0.000012     0.159217   105.943796
	   39 B(8,5,9)        =    109.798701    -0.000149    -0.875093   108.923608
	   40 B(8,5,10)       =    109.800919    -0.000132     0.314983   110.115902
	   41 B(8,11,14)      =    111.103718    -0.000060    -0.534386   110.569333
	   42 B(8,11,15)      =    111.208210    -0.000023    -0.227519   110.980692
	   43 B(8,11,16)      =    111.103601     0.000249     1.554996   112.658596
	   44 B(9,5,10)       =    106.072892     0.000108     0.026442   106.099334
	   45 B(11,8,12)      =    109.322453    -0.000256    -1.462796   107.859657
	   46 B(11,8,13)      =    109.323507    -0.000175     0.290571   109.614079
	   47 B(12,8,13)      =    106.233406     0.000136    -0.150940   106.082466
	   48 B(14,11,15)     =    107.800208     0.000006    -0.168247   107.631961
	   49 B(14,11,16)     =    107.659881    -0.000048     0.119346   107.779228
	   50 B(15,11,16)     =    107.800792    -0.000135    -0.798575   107.002217
	   51 B(18,17,19)     =    110.195036    -0.000000     0.069686   110.264723
	   52 B(18,17,20)     =    109.042075    -0.000000     0.006419   109.048494
	   53 B(19,17,20)     =    110.195084    -0.000000    -0.008993   110.186091
	   54 D(1,2,3,5)      =     -0.021887     0.000011     0.525923     0.504036
	   55 D(1,2,3,6)      =    123.382013    -0.000001    -0.072384   123.309629
	   56 D(1,2,3,7)      =   -123.428223    -0.000009    -0.184628  -123.612852
	   57 D(1,2,4,17)     =      0.003781    -0.000000    -0.024401    -0.020621
	   58 D(2,3,5,8)      =    179.975154    -0.000011    -4.122251   175.852903
	   59 D(2,3,5,9)      =     57.814886    -0.000008    -3.017609    54.797277
	   60 D(2,3,5,10)     =    -57.859666     0.000012    -2.282046   -60.141712
	   61 D(2,4,17,18)    =    -60.499522     0.000000     0.035029   -60.464493
	   62 D(2,4,17,19)    =   -179.994071     0.000000     0.017468  -179.976603
	   63 D(2,4,17,20)    =     60.511314    -0.000000     0.068672    60.579986
	   64 D(3,2,4,17)     =    179.998766    -0.000000    -0.097660   179.901106
	   65 D(3,5,8,11)     =     66.159799     0.000028     3.108556    69.268355
	   66 D(3,5,8,12)     =   -171.870092     0.000017     1.523703  -170.346389
	   67 D(3,5,8,13)     =    -55.812675    -0.000003     0.542837   -55.269838
	   68 D(4,2,3,5)      =    179.983268     0.000011     0.601300   180.584569
	   69 D(4,2,3,6)      =    -56.612832    -0.000000     0.002994   -56.609839
	   70 D(4,2,3,7)      =     56.576932    -0.000009    -0.109251    56.467681
	   71 D(5,8,11,14)    =     59.912022    -0.000012    -4.981911    54.930111
	   72 D(5,8,11,15)    =    179.994219    -0.000023    -5.696892   174.297327
	   73 D(5,8,11,16)    =    -59.922924    -0.000027    -5.816030   -65.738955
	   74 D(6,3,5,8)      =     58.803718    -0.000005    -3.539949    55.263769
	   75 D(6,3,5,9)      =    -63.356550    -0.000002    -2.435307   -65.791856
	   76 D(6,3,5,10)     =   -179.031102     0.000017    -1.699744  -180.730845
	   77 D(7,3,5,8)      =    -58.849194    -0.000021    -4.313151   -63.162345
	   78 D(7,3,5,9)      =    178.990538    -0.000017    -3.208508   175.782030
	   79 D(7,3,5,10)     =     63.315986     0.000002    -2.472945    60.843041
	   80 D(9,5,8,11)     =   -171.970089     0.000012     1.584854  -170.385235
	   81 *D(9,5,8,12)    =    -49.999980     0.000000     0.000000   -49.999980
	   82 D(9,5,8,13)     =     66.057437    -0.000020    -0.980866    65.076571
	   83 D(10,5,8,11)    =    -55.715658     0.000004     1.291473   -54.424185
	   84 D(10,5,8,12)    =     66.254451    -0.000007    -0.293381    65.961070
	   85 D(10,5,8,13)    =   -177.688132    -0.000028    -1.274247  -178.962379
	   86 D(12,8,11,14)   =    -62.134378     0.000003    -3.154733   -65.289110
	   87 D(12,8,11,15)   =     57.947819    -0.000008    -3.869714    54.078105
	   88 D(12,8,11,16)   =    178.030676    -0.000012    -3.988851   174.041824
	   89 D(13,8,11,14)   =   -178.039010     0.000021    -2.324742  -180.363751
	   90 D(13,8,11,15)   =    -57.956813     0.000010    -3.039723   -60.996536
	   91 D(13,8,11,16)   =     62.126044     0.000006    -3.158861    58.967183
	 ---------------------------------------------------------------------------
	Successfully symmetrized geometry.

  ==> Convergence Check <==

  Measures of convergence in internal coordinates in au.
  Criteria marked as inactive (o), active & met (*), and active & unmet ( ).
  --------------------------------------------------------------------------------------------- ~
   Step     Total Energy     Delta E     MAX Force     RMS Force      MAX Disp      RMS Disp    ~
  --------------------------------------------------------------------------------------------- ~
    Convergence Criteria    1.00e-06 *    3.00e-04 *             o    1.20e-03 *             o  ~
  --------------------------------------------------------------------------------------------- ~
      1    -384.08100989   -3.84e+02      9.28e-03      1.75e-03 o    1.02e-01      3.15e-02 o  ~
  ---------------------------------------------------------------------------------------------

	Writing optimization data to binary file.
	Structure for next step:
	Cartesian Geometry (in Angstrom)
	    O     1.6750060469   0.6312011808  -0.6106350538
	    C     0.8977549199   0.5488920952   0.2825713878
	    C    -0.3748702932  -0.2613978440   0.2676056007
	    O     1.0533525037   1.1741150575   1.4399766202
	    C    -0.5966452361  -1.0153897930  -1.0410510909
	    H    -0.3267545025  -0.9476796416   1.1105898379
	    H    -1.1847993674   0.4267922853   0.4891607463
	    C    -1.8338501768  -1.9251020592  -1.0408517351
	    H     0.2857172202  -1.6209161952  -1.2257770248
	    H    -0.6536520767  -0.3070231526  -1.8634471577
	    C    -3.1887108352  -1.1948852950  -1.0227546524
	    H    -1.7944094384  -2.5329068692  -1.9423383590
	    H    -1.7826212406  -2.6217790300  -0.2046052759
	    H    -3.2539699737  -0.4895623887  -1.8488967734
	    H    -4.0159223501  -1.9021411182  -1.1250750594
	    H    -3.3558567846  -0.6388030204  -0.0943458605
	    C     2.2112002449   1.9724544548   1.5938924370
	    H     3.1064408965   1.3717764292   1.4898711790
	    H     2.1537594313   2.3888904346   2.5883116757
	    H     2.2303105638   2.7657457460   0.8571213249
			--------------------------
			 OPTKING Finished Execution 
			--------------------------

    Structure for next step:
    Molecular point group: c1
    Full point group: C1

    Geometry (in Angstrom), charge = 0, multiplicity = 1:

    O            1.671909858077     0.611982388207    -0.610246664417
    C            0.894658731008     0.529673302600     0.282959777186
    C           -0.377966482017    -0.280616636630     0.267993990095
    O            1.050256314845     1.154896264907     1.440365009562
    C           -0.599741424954    -1.034608585633    -1.040662701509
    H           -0.329850691371    -0.966898434158     1.110978227275
    H           -1.187895556246     0.407573492671     0.489549135708
    C           -1.836946365663    -1.944320851763    -1.040463345746
    H            0.282621031328    -1.640134987850    -1.225388635415
    H           -0.656748265603    -0.326241945187    -1.863058768254
    C           -3.191807024043    -1.214104087633    -1.022366262952
    H           -1.797505627221    -2.552125661778    -1.941949969630
    H           -1.785717429468    -2.640997822637    -0.204216886492
    H           -3.257066162518    -0.508781181313    -1.848508384029
    H           -4.019018538956    -1.921359910797    -1.124686669960
    H           -3.358952973452    -0.658021812971    -0.093957471116
    C            2.208104056051     1.953235662146     1.594280826406
    H            3.103344707664     1.352557636640     1.490259568400
    H            2.150663242391     2.369671642015     2.588700065130
    H            2.227214374981     2.746526953433     0.857509714319

gradient() will perform analytic gradient computation.

*** tstart() called on cx1-27-2-2
*** at Sat Sep 10 16:00:59 2016


         ---------------------------------------------------------
                                   SCF
            by Justin Turney, Rob Parrish, and Andy Simmonett
                              RHF Reference
                        4 Threads,   2000 MiB Core
         ---------------------------------------------------------

  ==> Geometry <==

    Molecular point group: c1
    Full point group: C1

    Geometry (in Angstrom), charge = 0, multiplicity = 1:

       Center              X                  Y                   Z               Mass       
    ------------   -----------------  -----------------  -----------------  -----------------
           O          1.671909858077     0.611982388207    -0.610246664417    15.994914619560
           C          0.894658731008     0.529673302600     0.282959777186    12.000000000000
           C         -0.377966482017    -0.280616636630     0.267993990095    12.000000000000
           O          1.050256314845     1.154896264907     1.440365009562    15.994914619560
           C         -0.599741424954    -1.034608585633    -1.040662701509    12.000000000000
           H         -0.329850691371    -0.966898434158     1.110978227275     1.007825032070
           H         -1.187895556246     0.407573492671     0.489549135708     1.007825032070
           C         -1.836946365663    -1.944320851763    -1.040463345746    12.000000000000
           H          0.282621031328    -1.640134987850    -1.225388635415     1.007825032070
           H         -0.656748265603    -0.326241945187    -1.863058768254     1.007825032070
           C         -3.191807024043    -1.214104087633    -1.022366262952    12.000000000000
           H         -1.797505627221    -2.552125661778    -1.941949969630     1.007825032070
           H         -1.785717429468    -2.640997822637    -0.204216886492     1.007825032070
           H         -3.257066162518    -0.508781181313    -1.848508384029     1.007825032070
           H         -4.019018538956    -1.921359910797    -1.124686669960     1.007825032070
           H         -3.358952973452    -0.658021812971    -0.093957471116     1.007825032070
           C          2.208104056051     1.953235662146     1.594280826406    12.000000000000
           H          3.103344707664     1.352557636640     1.490259568400     1.007825032070
           H          2.150663242391     2.369671642015     2.588700065130     1.007825032070
           H          2.227214374981     2.746526953433     0.857509714319     1.007825032070

  Running in c1 symmetry.

  Rotational constants: A =      0.19591  B =      0.02706  C =      0.02508 [cm^-1]
  Rotational constants: A =   5873.16368  B =    811.19705  C =    751.84116 [MHz]
  Nuclear repulsion =  383.907238761983194

  Charge       = 0
  Multiplicity = 1
  Electrons    = 64
  Nalpha       = 32
  Nbeta        = 32

  ==> Algorithm <==

  SCF Algorithm Type is DF.
  DIIS enabled.
  MOM disabled.
  Fractional occupation disabled.
  Guess Type is READ.
  Energy threshold   = 1.00e-08
  Density threshold  = 1.00e-08
  Integral threshold = 0.00e+00

  ==> Primary Basis <==

  Basis Set: CC-PVTZ
    Number of shells: 152
    Number of basis function: 408
    Number of Cartesian functions: 460
    Spherical Harmonics?: true
    Max angular momentum: 3

  ==> Pre-Iterations <==

   -------------------------------------------------------
    Irrep   Nso     Nmo     Nalpha   Nbeta   Ndocc  Nsocc
   -------------------------------------------------------
     A        408     408       0       0       0       0
   -------------------------------------------------------
    Total     408     408      32      32      32       0
   -------------------------------------------------------

  ==> Integral Setup <==

  ==> DFJK: Density-Fitted J/K Matrices <==

    J tasked:                  Yes
    K tasked:                  Yes
    wK tasked:                  No
    OpenMP threads:              4
    Integrals threads:           4
    Memory (MB):              1430
    Algorithm:                Core
    Integral Cache:           NONE
    Schwarz Cutoff:          1E-12
    Fitting Condition:       1E-12

   => Auxiliary Basis Set <=

  Basis Set: 
    Number of shells: 320
    Number of basis function: 992
    Number of Cartesian functions: 1188
    Spherical Harmonics?: true
    Max angular momentum: 4

  Minimum eigenvalue in the overlap matrix is 2.3929815119E-04.
  Using Symmetric Orthogonalization.
  SCF Guess: Reading in previously saved MOs, projecting if necessary.

  Using orbitals from previous SCF, no projection.
  Recomputing DOCC and SOCC from number of alpha and beta electrons from previous calculation.
              A 
    DOCC [    32 ]

  ==> Iterations <==

                           Total Energy        Delta E     RMS |[F,P]|

   @DF-RHF iter   0:  -384.01805813063504   -3.84018e+02   5.07286e-04 
   @DF-RHF iter   1:  -384.07957794797824   -6.15198e-02   9.67894e-05 
   @DF-RHF iter   2:  -384.08089426424795   -1.31632e-03   3.54720e-05 DIIS
   @DF-RHF iter   3:  -384.08107201271253   -1.77748e-04   1.49726e-05 DIIS
   @DF-RHF iter   4:  -384.08110411841585   -3.21057e-05   2.63868e-06 DIIS
   @DF-RHF iter   5:  -384.08110584489111   -1.72648e-06   1.30281e-06 DIIS
   @DF-RHF iter   6:  -384.08110620095738   -3.56066e-07   5.61242e-07 DIIS
   @DF-RHF iter   7:  -384.08110628637644   -8.54191e-08   2.59712e-07 DIIS
   @DF-RHF iter   8:  -384.08110630350927   -1.71328e-08   8.38593e-08 DIIS
   @DF-RHF iter   9:  -384.08110630587805   -2.36878e-09   2.72386e-08 DIIS
   @DF-RHF iter  10:  -384.08110630608837   -2.10321e-10   1.10714e-08 DIIS
   @DF-RHF iter  11:  -384.08110630612259   -3.42197e-11   4.06844e-09 DIIS

  ==> Post-Iterations <==

    Orbital Energies (a.u.)
    -----------------------

    Doubly Occupied:                                                      

       1A    -20.596954     2A    -20.534623     3A    -11.365759  
       4A    -11.279666     5A    -11.234803     6A    -11.221493  
       7A    -11.219620     8A    -11.214762     9A     -1.470918  
      10A     -1.364522    11A     -1.086830    12A     -1.021675  
      13A     -0.967310    14A     -0.893644    15A     -0.799989  
      16A     -0.765769    17A     -0.702141    18A     -0.685129  
      19A     -0.675388    20A     -0.633546    21A     -0.609534  
      22A     -0.595098    23A     -0.569239    24A     -0.548083  
      25A     -0.533013    26A     -0.524436    27A     -0.509291  
      28A     -0.474858    29A     -0.473688    30A     -0.466942  
      31A     -0.458781    32A     -0.440849  

    Virtual:                                                              

      33A      0.135885    34A      0.152884    35A      0.165363  
      36A      0.171555    37A      0.184539    38A      0.193331  
      39A      0.211921    40A      0.220812    41A      0.223208  
      42A      0.228760    43A      0.236917    44A      0.245558  
      45A      0.260497    46A      0.268496    47A      0.323760  
      48A      0.340118    49A      0.361730    50A      0.373548  
      51A      0.381231    52A      0.384893    53A      0.388811  
      54A      0.399731    55A      0.429578    56A      0.445204  
      57A      0.448707    58A      0.466790    59A      0.478965  
      60A      0.516740    61A      0.539215    62A      0.548310  
      63A      0.564488    64A      0.571917    65A      0.586666  
      66A      0.595867    67A      0.612018    68A      0.614252  
      69A      0.622514    70A      0.626535    71A      0.627842  
      72A      0.632528    73A      0.639311    74A      0.642123  
      75A      0.658522    76A      0.665813    77A      0.669407  
      78A      0.680572    79A      0.691565    80A      0.705981  
      81A      0.711065    82A      0.736422    83A      0.741760  
      84A      0.756545    85A      0.777709    86A      0.812478  
      87A      0.820848    88A      0.833622    89A      0.862734  
      90A      0.871800    91A      0.885597    92A      0.897873  
      93A      0.922074    94A      0.938537    95A      0.953794  
      96A      0.959267    97A      1.000009    98A      1.011308  
      99A      1.025230   100A      1.043662   101A      1.062362  
     102A      1.077550   103A      1.091715   104A      1.101507  
     105A      1.116977   106A      1.129397   107A      1.150922  
     108A      1.164818   109A      1.175576   110A      1.201152  
     111A      1.221772   112A      1.228895   113A      1.235584  
     114A      1.251330   115A      1.263659   116A      1.268812  
     117A      1.288006   118A      1.305365   119A      1.310750  
     120A      1.320496   121A      1.334753   122A      1.340810  
     123A      1.368299   124A      1.372976   125A      1.383496  
     126A      1.390882   127A      1.405418   128A      1.422059  
     129A      1.438062   130A      1.446788   131A      1.462919  
     132A      1.470061   133A      1.490990   134A      1.498904  
     135A      1.507424   136A      1.515575   137A      1.525798  
     138A      1.532646   139A      1.535384   140A      1.556062  
     141A      1.571177   142A      1.583657   143A      1.600584  
     144A      1.613032   145A      1.626641   146A      1.656463  
     147A      1.671227   148A      1.698144   149A      1.719291  
     150A      1.726860   151A      1.738783   152A      1.765967  
     153A      1.809035   154A      1.811679   155A      1.827623  
     156A      1.836447   157A      1.852467   158A      1.860473  
     159A      1.906719   160A      1.936245   161A      1.954361  
     162A      2.005455   163A      2.050303   164A      2.074921  
     165A      2.149929   166A      2.252472   167A      2.300328  
     168A      2.325036   169A      2.337470   170A      2.445690  
     171A      2.470148   172A      2.493156   173A      2.512086  
     174A      2.540667   175A      2.581112   176A      2.603355  
     177A      2.620035   178A      2.652533   179A      2.672395  
     180A      2.694068   181A      2.709032   182A      2.739537  
     183A      2.761205   184A      2.785342   185A      2.796201  
     186A      2.817565   187A      2.828482   188A      2.843744  
     189A      2.867183   190A      2.900831   191A      2.929308  
     192A      2.939171   193A      2.949589   194A      2.963532  
     195A      2.968184   196A      2.992895   197A      2.997846  
     198A      3.027456   199A      3.028721   200A      3.041067  
     201A      3.051515   202A      3.091376   203A      3.112918  
     204A      3.113896   205A      3.127919   206A      3.137017  
     207A      3.144972   208A      3.148685   209A      3.179389  
     210A      3.220401   211A      3.232360   212A      3.248705  
     213A      3.274118   214A      3.276634   215A      3.279870  
     216A      3.284405   217A      3.299821   218A      3.320033  
     219A      3.333857   220A      3.354570   221A      3.356664  
     222A      3.366026   223A      3.373175   224A      3.404515  
     225A      3.416931   226A      3.418282   227A      3.442105  
     228A      3.455635   229A      3.464237   230A      3.470378  
     231A      3.475751   232A      3.486106   233A      3.489343  
     234A      3.495865   235A      3.511536   236A      3.525385  
     237A      3.536792   238A      3.553393   239A      3.596359  
     240A      3.614461   241A      3.620119   242A      3.624472  
     243A      3.635112   244A      3.656788   245A      3.673083  
     246A      3.674485   247A      3.712720   248A      3.734022  
     249A      3.739600   250A      3.742641   251A      3.753285  
     252A      3.761852   253A      3.772637   254A      3.790895  
     255A      3.795235   256A      3.832703   257A      3.835651  
     258A      3.855796   259A      3.862117   260A      3.877024  
     261A      3.893132   262A      3.917621   263A      3.925474  
     264A      3.948905   265A      3.968290   266A      3.974793  
     267A      3.999451   268A      4.019491   269A      4.043852  
     270A      4.069982   271A      4.089973   272A      4.094755  
     273A      4.104356   274A      4.124921   275A      4.129014  
     276A      4.147233   277A      4.156651   278A      4.164715  
     279A      4.180251   280A      4.190322   281A      4.198890  
     282A      4.222011   283A      4.223510   284A      4.227860  
     285A      4.233143   286A      4.281611   287A      4.282832  
     288A      4.294035   289A      4.335399   290A      4.361963  
     291A      4.367618   292A      4.374224   293A      4.389422  
     294A      4.393516   295A      4.406764   296A      4.419733  
     297A      4.433660   298A      4.449605   299A      4.458525  
     300A      4.486592   301A      4.490962   302A      4.500608  
     303A      4.523211   304A      4.533042   305A      4.560193  
     306A      4.598802   307A      4.603693   308A      4.620082  
     309A      4.624494   310A      4.630809   311A      4.659110  
     312A      4.664661   313A      4.687980   314A      4.702487  
     315A      4.729925   316A      4.749123   317A      4.758111  
     318A      4.788618   319A      4.807768   320A      4.885919  
     321A      4.895461   322A      4.912442   323A      4.936085  
     324A      4.981805   325A      5.003111   326A      5.028741  
     327A      5.070498   328A      5.080518   329A      5.083986  
     330A      5.097025   331A      5.127631   332A      5.149969  
     333A      5.203484   334A      5.208366   335A      5.222408  
     336A      5.252253   337A      5.257635   338A      5.305735  
     339A      5.317749   340A      5.332610   341A      5.352997  
     342A      5.358934   343A      5.378017   344A      5.410817  
     345A      5.439038   346A      5.459973   347A      5.490599  
     348A      5.507787   349A      5.531032   350A      5.550666  
     351A      5.563941   352A      5.586845   353A      5.599717  
     354A      5.608636   355A      5.654864   356A      5.660146  
     357A      5.671920   358A      5.713671   359A      5.720529  
     360A      5.735651   361A      5.741631   362A      5.790758  
     363A      5.816610   364A      5.835820   365A      5.850405  
     366A      5.869787   367A      5.892535   368A      5.903565  
     369A      5.914179   370A      5.955602   371A      5.980701  
     372A      6.035395   373A      6.040854   374A      6.089105  
     375A      6.174134   376A      6.183665   377A      6.238531  
     378A      6.286548   379A      6.314449   380A      6.329625  
     381A      6.373169   382A      6.411735   383A      6.459088  
     384A      6.592319   385A      6.602709   386A      6.686090  
     387A      6.836171   388A      6.860208   389A      6.887736  
     390A      6.912046   391A      7.045845   392A      7.246668  
     393A      7.258587   394A      7.372451   395A      7.482476  
     396A      7.493000   397A      7.576313   398A      7.684627  
     399A      7.889768   400A      7.981567   401A      9.960831  
     402A     12.070080   403A     13.109592   404A     13.506965  
     405A     13.842486   406A     14.061797   407A     14.084177  
     408A     14.615837  

    Final Occupation by Irrep:
              A 
    DOCC [    32 ]

  Energy converged.

  @DF-RHF Final Energy:  -384.08110630612259

   => Energetics <=

    Nuclear Repulsion Energy =            383.9072387619831943
    One-Electron Energy =               -1284.0999820304605237
    Two-Electron Energy =                 516.1116369623543960
    DFT Exchange-Correlation Energy =       0.0000000000000000
    Empirical Dispersion Energy =           0.0000000000000000
    PCM Polarization Energy =               0.0000000000000000
    EFP Energy =                            0.0000000000000000
    Total Energy =                       -384.0811063061229333


  Saving occupied orbitals to File 180.

*** tstop() called on cx1-27-2-2 at Sat Sep 10 16:01:11 2016
Module time:
	user time   =      42.38 seconds =       0.71 minutes
	system time =       0.83 seconds =       0.01 minutes
	total time  =         12 seconds =       0.20 minutes
Total time:
	user time   =     145.22 seconds =       2.42 minutes
	system time =       3.32 seconds =       0.06 minutes
	total time  =         41 seconds =       0.68 minutes


Properties will be evaluated at   0.000000,   0.000000,   0.000000 Bohr

Properties computed using the SCF density matrix

  Nuclear Dipole Moment: (a.u.)
     X:    -8.0763      Y:    -4.0585      Z:    -1.6504

  Electronic Dipole Moment: (a.u.)
     X:     7.7159      Y:     4.0872      Z:     2.2616

  Dipole Moment: (a.u.)
     X:    -0.3603      Y:     0.0287      Z:     0.6112     Total:     0.7100

  Dipole Moment: (Debye)
     X:    -0.9158      Y:     0.0729      Z:     1.5534     Total:     1.8047


*** tstart() called on cx1-27-2-2
*** at Sat Sep 10 16:01:11 2016


         ------------------------------------------------------------
                                   SCF GRAD                          
                          Rob Parrish, Justin Turney,                
                       Andy Simmonett, and Alex Sokolov              
         ------------------------------------------------------------

  ==> Geometry <==

    Molecular point group: c1
    Full point group: C1

    Geometry (in Angstrom), charge = 0, multiplicity = 1:

       Center              X                  Y                   Z               Mass       
    ------------   -----------------  -----------------  -----------------  -----------------
           O          1.671909858077     0.611982388207    -0.610246664417    15.994914619560
           C          0.894658731008     0.529673302600     0.282959777186    12.000000000000
           C         -0.377966482017    -0.280616636630     0.267993990095    12.000000000000
           O          1.050256314845     1.154896264907     1.440365009562    15.994914619560
           C         -0.599741424954    -1.034608585633    -1.040662701509    12.000000000000
           H         -0.329850691371    -0.966898434158     1.110978227275     1.007825032070
           H         -1.187895556246     0.407573492671     0.489549135708     1.007825032070
           C         -1.836946365663    -1.944320851763    -1.040463345746    12.000000000000
           H          0.282621031328    -1.640134987850    -1.225388635415     1.007825032070
           H         -0.656748265603    -0.326241945187    -1.863058768254     1.007825032070
           C         -3.191807024043    -1.214104087633    -1.022366262952    12.000000000000
           H         -1.797505627221    -2.552125661778    -1.941949969630     1.007825032070
           H         -1.785717429468    -2.640997822637    -0.204216886492     1.007825032070
           H         -3.257066162518    -0.508781181313    -1.848508384029     1.007825032070
           H         -4.019018538956    -1.921359910797    -1.124686669960     1.007825032070
           H         -3.358952973452    -0.658021812971    -0.093957471116     1.007825032070
           C          2.208104056051     1.953235662146     1.594280826406    12.000000000000
           H          3.103344707664     1.352557636640     1.490259568400     1.007825032070
           H          2.150663242391     2.369671642015     2.588700065130     1.007825032070
           H          2.227214374981     2.746526953433     0.857509714319     1.007825032070

  Nuclear repulsion =  383.907238761983194

  ==> Basis Set <==

  Basis Set: CC-PVTZ
    Number of shells: 152
    Number of basis function: 408
    Number of Cartesian functions: 460
    Spherical Harmonics?: true
    Max angular momentum: 3

  ==> DFJKGrad: Density-Fitted SCF Gradients <==

    Gradient:                    1
    J tasked:                  Yes
    K tasked:                  Yes
    wK tasked:                  No
    OpenMP threads:              4
    Integrals threads:           4
    Memory (MB):              1430
    Schwarz Cutoff:          0E+00
    Fitting Condition:       1E-12

   => Auxiliary Basis Set <=

  Basis Set: 
    Number of shells: 320
    Number of basis function: 992
    Number of Cartesian functions: 1188
    Spherical Harmonics?: true
    Max angular momentum: 4


  -Total Gradient:
     Atom            X                  Y                   Z
    ------   -----------------  -----------------  -----------------
       1        0.004234160071     0.000209978426    -0.005044533921
       2       -0.003287842443    -0.000286889389     0.002862355911
       3        0.001574148243    -0.000145886816    -0.000079636160
       4       -0.001191133410     0.000056830045     0.002175148892
       5       -0.000276033300     0.001603014392    -0.001997402653
       6        0.000222349085    -0.001212278214     0.001528136879
       7       -0.000424855033     0.001198718119     0.000395871376
       8        0.003637398027    -0.001813676509     0.002072415467
       9        0.002078762540    -0.000622143062     0.000935771687
      10        0.000465447242     0.001371663350    -0.001523998510
      11       -0.000082990024     0.000163074520    -0.004036852944
      12       -0.000060691051    -0.000669565483    -0.001882805444
      13       -0.000272583584    -0.001984655360     0.001236475686
      14        0.000154667090     0.001360110383    -0.001920000838
      15       -0.005504311470    -0.003430651918    -0.000548948644
      16       -0.002251951205     0.003628345445     0.006014185950
      17       -0.000770238950    -0.000237530997     0.000265645661
      18        0.001914832743    -0.001279557615    -0.000257821894
      19       -0.000274392053     0.000468114224     0.001166190043
      20        0.000115257485     0.001622986459    -0.001360196542


*** tstop() called on cx1-27-2-2 at Sat Sep 10 16:01:25 2016
Module time:
	user time   =      51.38 seconds =       0.86 minutes
	system time =       0.88 seconds =       0.01 minutes
	total time  =         14 seconds =       0.23 minutes
Total time:
	user time   =     196.71 seconds =       3.28 minutes
	system time =       4.20 seconds =       0.07 minutes
	total time  =         55 seconds =       0.92 minutes

			-----------------------------------------
			 OPTKING 2.0: for geometry optimizations 
			  - R.A. King,  Bethel University        
			-----------------------------------------

	Previous internal coordinate definitions found.
	---Fragment 1 Geometry and Gradient---
	 O           3.1594517506        1.1564791119       -1.1531990693
	 C           1.6906599840        1.0009374818        0.5347164855
	 C          -0.7142531384       -0.5302885916        0.5064352465
	 O           1.9846968044        2.1824376526        2.7218953995
	 C          -1.1333470437       -1.9551268816       -1.9665675026
	 H          -0.6233274714       -1.8271732389        2.0994445891
	 H          -2.2447972758        0.7702022802        0.9251137951
	 C          -3.4713255519       -3.6742339243       -1.9661907748
	 H           0.5340763486       -3.0994059480       -2.3156489273
	 H          -1.2410743602       -0.6165079295       -3.5206708415
	 C          -6.0316411445       -2.2943242224       -1.9319922445
	 H          -3.3967933578       -4.8228185575       -3.6697536064
	 H          -3.3745168924       -4.9907626023       -0.3859139872
	 H          -6.1549630438       -0.9614570942       -3.4931746002
	 H          -7.5948443616       -3.6308440341       -2.1253497915
	 H          -6.3475012131       -1.2434810160       -0.1775538885
	 C           4.1727119388        3.6910804744        3.0127541408
	 H           5.8644715934        2.5559635122        2.8161824512
	 H           4.0641645322        4.4780304283        4.8919341633
	 H           4.2088252079        5.1901837586        1.6204585164
	             0.0042341601        0.0002099784       -0.0050445339
	            -0.0032878424       -0.0002868894        0.0028623559
	             0.0015741482       -0.0001458868       -0.0000796362
	            -0.0011911334        0.0000568300        0.0021751489
	            -0.0002760333        0.0016030144       -0.0019974027
	             0.0002223491       -0.0012122782        0.0015281369
	            -0.0004248550        0.0011987181        0.0003958714
	             0.0036373980       -0.0018136765        0.0020724155
	             0.0020787625       -0.0006221431        0.0009357717
	             0.0004654472        0.0013716633       -0.0015239985
	            -0.0000829900        0.0001630745       -0.0040368529
	            -0.0000606911       -0.0006695655       -0.0018828054
	            -0.0002725836       -0.0019846554        0.0012364757
	             0.0001546671        0.0013601104       -0.0019200008
	            -0.0055043115       -0.0034306519       -0.0005489486
	            -0.0022519512        0.0036283454        0.0060141859
	            -0.0007702390       -0.0002375310        0.0002656457
	             0.0019148327       -0.0012795576       -0.0002578219
	            -0.0002743921        0.0004681142        0.0011661900
	             0.0001152575        0.0016229865       -0.0013601965

	---Fragment 1 Intrafragment Coordinates---
	 - Coordinate -           - BOHR/RAD -       - ANG/DEG -
	 R(1,2)           =         2.242900	       1.186892
	 R(2,3)           =         2.851151	       1.508764
	 R(2,4)           =         2.503228	       1.324651
	 R(3,5)           =         2.884709	       1.526522
	 R(3,6)           =         2.056175	       1.088081
	 R(3,7)           =         2.051617	       1.085669
	 R(4,17)          =         2.673577	       1.414796
	 R(5,8)           =         2.901977	       1.535660
	 R(5,9)           =         2.052202	       1.085979
	 R(5,10)          =         2.053958	       1.086908
	 R(8,11)          =         2.908700	       1.539218
	 R(8,12)          =         2.055949	       1.087962
	 R(8,13)          =         2.059100	       1.089629
	 R(11,14)         =         2.056461	       1.088232
	 R(11,15)         =         2.065739	       1.093142
	 R(11,16)         =         2.069322	       1.095038
	 R(17,18)         =         2.046749	       1.083093
	 R(17,19)         =         2.040194	       1.079624
	 R(17,20)         =         2.046241	       1.082824
	 B(1,2,3)         =         2.192165	     125.601792
	 B(1,2,4)         =         2.150636	     123.222358
	 B(2,3,5)         =         1.978294	     113.347903
	 B(2,3,6)         =         1.868945	     107.082637
	 B(2,3,7)         =         1.861683	     106.666590
	 B(2,4,17)        =         2.045999	     117.227125
	 B(3,2,4)         =         1.940384	     111.175799
	 B(3,5,8)         =         1.992739	     114.175517
	 B(3,5,9)         =         1.878834	     107.649287
	 B(3,5,10)        =         1.911727	     109.533906
	 B(4,17,18)       =         1.931625	     110.673934
	 B(4,17,19)       =         1.848677	     105.921377
	 B(4,17,20)       =         1.932447	     110.721079
	 B(5,3,6)         =         1.938060	     111.042680
	 B(5,3,7)         =         1.960224	     112.312536
	 B(5,8,11)        =         2.013209	     115.348385
	 B(5,8,12)        =         1.877202	     107.555760
	 B(5,8,13)        =         1.918755	     109.936584
	 B(6,3,7)         =         1.849068	     105.943796
	 B(8,5,9)         =         1.901076	     108.923608
	 B(8,5,10)        =         1.921885	     110.115902
	 B(8,11,14)       =         1.929799	     110.569333
	 B(8,11,15)       =         1.936978	     110.980692
	 B(8,11,16)       =         1.966263	     112.658596
	 B(9,5,10)        =         1.851783	     106.099334
	 B(11,8,12)       =         1.882506	     107.859657
	 B(11,8,13)       =         1.913127	     109.614079
	 B(12,8,13)       =         1.851488	     106.082466
	 B(14,11,15)      =         1.878532	     107.631961
	 B(14,11,16)      =         1.881102	     107.779228
	 B(15,11,16)      =         1.867541	     107.002217
	 B(18,17,19)      =         1.924482	     110.264723
	 B(18,17,20)      =         1.903255	     109.048494
	 B(19,17,20)      =         1.923110	     110.186091
	 D(1,2,3,5)       =         0.008797	       0.504036
	 D(1,2,3,6)       =         2.152159	     123.309629
	 D(1,2,3,7)       =        -2.157451	    -123.612852
	 D(1,2,4,17)      =        -0.000360	      -0.020621
	 D(2,3,5,8)       =         3.069212	     175.852903
	 D(2,3,5,9)       =         0.956393	      54.797277
	 D(2,3,5,10)      =        -1.049671	     -60.141712
	 D(2,4,17,18)     =        -1.055304	     -60.464493
	 D(2,4,17,19)     =        -3.141184	    -179.976603
	 D(2,4,17,20)     =         1.057320	      60.579986
	 D(3,2,4,17)      =         3.139867	     179.901106
	 D(3,5,8,11)      =         1.208961	      69.268355
	 D(3,5,8,12)      =        -2.973105	    -170.346389
	 D(3,5,8,13)      =        -0.964641	     -55.269838
	 D(4,2,3,5)       =        -3.131390	    -179.415431
	 D(4,2,3,6)       =        -0.988028	     -56.609839
	 D(4,2,3,7)       =         0.985547	      56.467681
	 D(5,8,11,14)     =         0.958711	      54.930111
	 D(5,8,11,15)     =         3.042062	     174.297327
	 D(5,8,11,16)     =        -1.147361	     -65.738955
	 D(6,3,5,8)       =         0.964535	      55.263769
	 D(6,3,5,9)       =        -1.148285	     -65.791856
	 D(6,3,5,10)      =         3.128837	     179.269155
	 D(7,3,5,8)       =        -1.102391	     -63.162345
	 D(7,3,5,9)       =         3.067975	     175.782030
	 D(7,3,5,10)      =         1.061911	      60.843041
	 D(9,5,8,11)      =        -2.973783	    -170.385235
	*D(9,5,8,12)      =        -0.872664	     -49.999980
	 D(9,5,8,13)      =         1.135800	      65.076571
	 D(10,5,8,11)     =        -0.949881	     -54.424185
	 D(10,5,8,12)     =         1.151238	      65.961070
	 D(10,5,8,13)     =        -3.123483	    -178.962379
	 D(12,8,11,14)    =        -1.139510	     -65.289110
	 D(12,8,11,15)    =         0.943841	      54.078105
	 D(12,8,11,16)    =         3.037603	     174.041824
	 D(13,8,11,14)    =         3.135244	     179.636249
	 D(13,8,11,15)    =        -1.064590	     -60.996536
	 D(13,8,11,16)    =         1.029171	      58.967183

	Current energy   :      -384.0811063061

	Energy change for the previous step:
		Projected    :        -0.0011887940
		Actual       :        -0.0000964192
	Energy ratio indicates iffy step: Trust radius decreased to 1.250e-01.


	Performing BFGS update.
	Previous computed or guess Hessian on step 1.
	Steps to be used in Hessian update: 1
	Taking RFO optimization step.
	Going to follow RFO solution 1.
	Using RFO vector 1.
	Norm of target step-size    0.07818
	Projected energy change by RFO approximation:        -0.0008741744

	Back-transformation to cartesian coordinates...
	Successfully converged to displaced geometry.

	Back-transformation to cartesian coordinates to adjust frozen coordinates...
	Successfully converged to displaced geometry.

	--- Internal Coordinate Step in ANG or DEG, aJ/ANG or AJ/DEG ---
	 ---------------------------------------------------------------------------
	   Coordinate                Previous        Force       Change         New 
	   ----------                --------       ------       ------       ------
	    1 R(1,2)          =      1.186892    -0.054241    -0.003297     1.183594
	    2 R(2,3)          =      1.508764    -0.007582    -0.001787     1.506977
	    3 R(2,4)          =      1.324651    -0.016572    -0.001740     1.322911
	    4 R(3,5)          =      1.526522    -0.015795    -0.002777     1.523745
	    5 R(3,6)          =      1.088081    -0.016134    -0.002977     1.085104
	    6 R(3,7)          =      1.085669    -0.009537    -0.002613     1.083056
	    7 R(4,17)         =      1.414796    -0.009146    -0.001525     1.413271
	    8 R(5,8)          =      1.535660    -0.042483    -0.006469     1.529191
	    9 R(5,9)          =      1.085979    -0.015462    -0.002848     1.083130
	   10 R(5,10)         =      1.086908    -0.016664    -0.002948     1.083960
	   11 R(8,11)         =      1.539218    -0.062407    -0.012346     1.526871
	   12 R(8,12)         =      1.087962    -0.015917    -0.003152     1.084810
	   13 R(8,13)         =      1.089629    -0.018167    -0.003146     1.086483
	   14 R(11,14)        =      1.088232    -0.019195    -0.003538     1.084694
	   15 R(11,15)        =      1.093142    -0.053027    -0.009994     1.083148
	   16 R(11,16)        =      1.095038    -0.060022    -0.012186     1.082852
	   17 R(17,18)        =      1.083093    -0.019090    -0.003456     1.079637
	   18 R(17,19)        =      1.079624    -0.010458    -0.001876     1.077748
	   19 R(17,20)        =      1.082824    -0.017438    -0.003163     1.079661
	   20 B(1,2,3)        =    125.601792    -0.000001    -0.031366   125.570426
	   21 B(1,2,4)        =    123.222358    -0.000042    -0.096395   123.125963
	   22 B(2,3,5)        =    113.347903     0.000014     0.124062   113.471965
	   23 B(2,3,6)        =    107.082637     0.000000     0.019411   107.102048
	   24 B(2,3,7)        =    106.666590     0.000028     0.140613   106.807203
	   25 B(2,4,17)       =    117.227125     0.000026     0.092208   117.319333
	   26 B(3,2,4)        =    111.175799     0.000043     0.125824   111.301622
	   27 B(3,5,8)        =    114.175517    -0.000188    -0.377374   113.798144
	   28 B(3,5,9)        =    107.649287     0.000143     0.877992   108.527278
	   29 B(3,5,10)       =    109.533906     0.000034    -0.191406   109.342500
	   30 B(4,17,18)      =    110.673934    -0.000003    -0.011405   110.662530
	   31 B(4,17,19)      =    105.921377     0.000026     0.133519   106.054896
	   32 B(4,17,20)      =    110.721079    -0.000017    -0.076564   110.644515
	   33 B(5,3,6)        =    111.042680    -0.000002    -0.002305   111.040375
	   34 B(5,3,7)        =    112.312536    -0.000039    -0.219598   112.092938
	   35 B(5,8,11)       =    115.348385    -0.000252    -0.602144   114.746241
	   36 B(5,8,12)       =    107.555760     0.000101     0.559278   108.115038
	   37 B(5,8,13)       =    109.936584     0.000033    -0.404864   109.531720
	   38 B(6,3,7)        =    105.943796     0.000000    -0.060503   105.883293
	   39 B(8,5,9)        =    108.923608     0.000018     0.174266   109.097874
	   40 B(8,5,10)       =    110.115902     0.000031    -0.365628   109.750274
	   41 B(8,11,14)      =    110.569333     0.000075     0.386448   110.955781
	   42 B(8,11,15)      =    110.980692    -0.000089    -0.243726   110.736965
	   43 B(8,11,16)      =    112.658596    -0.000108    -0.494215   112.164382
	   44 B(9,5,10)       =    106.099334    -0.000024    -0.073110   106.026224
	   45 B(11,8,12)      =    107.859657     0.000093     0.579429   108.439086
	   46 B(11,8,13)      =    109.614079     0.000068    -0.126871   109.487208
[...]
	 R(5,8)           =         2.889776	       1.529203
	 R(5,9)           =         2.046801	       1.083120
	 R(5,10)          =         2.049621	       1.084613
	 R(8,11)          =         2.885164	       1.526763
	 R(8,12)          =         2.050439	       1.085045
	 R(8,13)          =         2.054365	       1.087123
	 R(11,14)         =         2.050652	       1.085159
	 R(11,15)         =         2.048147	       1.083833
	 R(11,16)         =         2.048135	       1.083826
	 R(17,18)         =         2.040787	       1.079938
	 R(17,19)         =         2.036984	       1.077925
	 R(17,20)         =         2.040780	       1.079934
	 B(1,2,3)         =         2.191693	     125.574757
	 B(1,2,4)         =         2.149914	     123.181014
	 B(2,3,5)         =         1.980401	     113.468641
	 B(2,3,6)         =         1.870116	     107.149737
	 B(2,3,7)         =         1.864706	     106.839800
	 B(2,4,17)        =         2.047860	     117.333732
	 B(3,2,4)         =         1.941578	     111.244229
	 B(3,5,8)         =         1.984450	     113.700591
	 B(3,5,9)         =         1.896933	     108.686241
	 B(3,5,10)        =         1.907371	     109.284308
	 B(4,17,18)       =         1.931773	     110.682427
	 B(4,17,19)       =         1.850521	     106.027029
	 B(4,17,20)       =         1.931737	     110.680393
	 B(5,3,6)         =         1.939177	     111.106649
	 B(5,3,7)         =         1.954180	     111.966240
	 B(5,8,11)        =         2.002578	     114.739271
	 B(5,8,12)        =         1.886771	     108.104031
	 B(5,8,13)        =         1.910278	     109.450846
	 B(6,3,7)         =         1.847807	     105.871533
	 B(8,5,9)         =         1.905309	     109.166164
	 B(8,5,10)        =         1.915294	     109.738273
	 B(8,11,14)       =         1.937285	     110.998251
	 B(8,11,15)       =         1.932807	     110.741660
	 B(8,11,16)       =         1.956539	     112.101434
	 B(9,5,10)        =         1.849551	     105.971487
	 B(11,8,12)       =         1.897567	     108.722559
	 B(11,8,13)       =         1.909426	     109.402025
	 B(12,8,13)       =         1.851043	     106.056938
	 B(14,11,15)      =         1.879846	     107.707216
	 B(14,11,16)      =         1.880974	     107.771886
	 B(15,11,16)      =         1.873202	     107.326580
	 B(18,17,19)      =         1.923223	     110.192539
	 B(18,17,20)      =         1.903145	     109.042166
	 B(19,17,20)      =         1.923220	     110.192411
	 D(1,2,3,5)       =         0.004693	       0.268905
	 D(1,2,3,6)       =         2.151671	     123.281652
	 D(1,2,3,7)       =        -2.157443	    -123.612396
	 D(1,2,4,17)      =        -0.000253	      -0.014469
	 D(2,3,5,8)       =         3.086570	     176.847408
	 D(2,3,5,9)       =         0.960741	      55.046386
	 D(2,3,5,10)      =        -1.050204	     -60.172272
	 D(2,4,17,18)     =        -1.055656	     -60.484645
	 D(2,4,17,19)     =        -3.141205	    -179.977771
	 D(2,4,17,20)     =         1.056454	      60.530362
	 D(3,2,4,17)      =         3.141469	     179.992925
	 D(3,5,8,11)      =         1.168804	      66.967558
	 D(3,5,8,12)      =        -2.993837	    -171.534219
	 D(3,5,8,13)      =        -0.985108	     -56.442549
	 D(4,2,3,5)       =        -3.137032	    -179.738703
	 D(4,2,3,6)       =        -0.990055	     -56.725956
	 D(4,2,3,7)       =         0.984017	      56.379996
	 D(5,8,11,14)     =         0.984138	      56.386976
	 D(5,8,11,15)     =         3.071300	     175.972547
	 D(5,8,11,16)     =        -1.120375	     -64.192747
	 D(6,3,5,8)       =         0.978068	      56.039195
	 D(6,3,5,9)       =        -1.147760	     -65.761827
	 D(6,3,5,10)      =         3.124480	     179.019515
	 D(7,3,5,8)       =        -1.084042	     -62.111058
	 D(7,3,5,9)       =         3.073314	     176.087920
	 D(7,3,5,10)      =         1.062369	      60.869263
	 D(9,5,8,11)      =        -2.993208	    -171.498203
	*D(9,5,8,12)      =        -0.872664	     -49.999980
	 D(9,5,8,13)      =         1.136064	      65.091690
	 D(10,5,8,11)     =        -0.973260	     -55.763692
	 D(10,5,8,12)     =         1.147284	      65.734531
	 D(10,5,8,13)     =        -3.127173	    -179.173799
	 D(12,8,11,14)    =        -1.130501	     -64.772959
	 D(12,8,11,15)    =         0.956661	      54.812612
	 D(12,8,11,16)    =         3.048171	     174.647318
	 D(13,8,11,14)    =         3.138506	     179.823172
	 D(13,8,11,15)    =        -1.057517	     -60.591257
	 D(13,8,11,16)    =         1.033993	      59.243449

	Current energy   :      -384.0816115710

	Energy change for the previous step:
		Projected    :         0.0000015980
		Actual       :        -0.0000020647

	Performing BFGS update.
	Previous computed or guess Hessian on step 1.
	Steps to be used in Hessian update: 5 4
	Taking RFO optimization step.
	Going to follow RFO solution 1.
	Using RFO vector 1.
	Norm of target step-size    0.00189
	Projected energy change by RFO approximation:        -0.0000002236

	Back-transformation to cartesian coordinates...
	Could not converge backtransformation.
	Using first guess instead.

	Back-transformation to cartesian coordinates to adjust frozen coordinates...
	Successfully converged to displaced geometry.

	--- Internal Coordinate Step in ANG or DEG, aJ/ANG or AJ/DEG ---
	 ---------------------------------------------------------------------------
	   Coordinate                Previous        Force       Change         New 
	   ----------                --------       ------       ------       ------
	    1 R(1,2)          =      1.183644    -0.000513    -0.000027     1.183617
	    2 R(2,3)          =      1.507441    -0.000012    -0.000007     1.507434
	    3 R(2,4)          =      1.323195    -0.000158    -0.000017     1.323179
	    4 R(3,5)          =      1.523309     0.000259     0.000048     1.523357
	    5 R(3,6)          =      1.085448    -0.000161    -0.000026     1.085422
	    6 R(3,7)          =      1.083531    -0.000150    -0.000029     1.083502
	    7 R(4,17)         =      1.413203    -0.000040    -0.000006     1.413197
	    8 R(5,8)          =      1.529203     0.000154     0.000021     1.529225
	    9 R(5,9)          =      1.083120     0.000083     0.000013     1.083134
	   10 R(5,10)         =      1.084613    -0.000384    -0.000063     1.084549
	   11 R(8,11)         =      1.526763     0.000515     0.000077     1.526840
	   12 R(8,12)         =      1.085045    -0.000039    -0.000007     1.085038
	   13 R(8,13)         =      1.087123    -0.000384    -0.000062     1.087061
	   14 R(11,14)        =      1.085159    -0.000235    -0.000040     1.085119
	   15 R(11,15)        =      1.083833    -0.000223    -0.000040     1.083793
	   16 R(11,16)        =      1.083826    -0.000193    -0.000037     1.083790
	   17 R(17,18)        =      1.079938    -0.000059    -0.000011     1.079927
	   18 R(17,19)        =      1.077925    -0.000073    -0.000012     1.077913
	   19 R(17,20)        =      1.079934    -0.000064    -0.000012     1.079922
	   20 B(1,2,3)        =    125.574757     0.000002     0.003580   125.578336
	   21 B(1,2,4)        =    123.181014    -0.000005    -0.011638   123.169376
	   22 B(2,3,5)        =    113.468641     0.000001     0.003559   113.472199
	   23 B(2,3,6)        =    107.149737    -0.000001    -0.008756   107.140981
	   24 B(2,3,7)        =    106.839800    -0.000001    -0.002446   106.837354
	   25 B(2,4,17)       =    117.333732    -0.000001    -0.003032   117.330700
	   26 B(3,2,4)        =    111.244229     0.000003     0.008051   111.252280
	   27 B(3,5,8)        =    113.700591     0.000003     0.012383   113.712974
	   28 B(3,5,9)        =    108.686241    -0.000002     0.003864   108.690105
	   29 B(3,5,10)       =    109.284308    -0.000000    -0.004432   109.279876
	   30 B(4,17,18)      =    110.682427    -0.000001    -0.002241   110.680186
	   31 B(4,17,19)      =    106.027029     0.000001     0.005645   106.032674
	   32 B(4,17,20)      =    110.680393     0.000000    -0.001024   110.679369
	   33 B(5,3,6)        =    111.106649    -0.000001    -0.007633   111.099017
	   34 B(5,3,7)        =    111.966240     0.000001     0.013720   111.979960
	   35 B(5,8,11)       =    114.739271     0.000005     0.015997   114.755268
	   36 B(5,8,12)       =    108.104031    -0.000001     0.000552   108.104583
	   37 B(5,8,13)       =    109.450846    -0.000003    -0.016229   109.434617
	   38 B(6,3,7)        =    105.871533     0.000000     0.000713   105.872246
	   39 B(8,5,9)        =    109.166164     0.000000     0.006594   109.172759
	   40 B(8,5,10)       =    109.738273    -0.000003    -0.018287   109.719986
	   41 B(8,11,14)      =    110.998251    -0.000002    -0.005586   110.992665
	   42 B(8,11,15)      =    110.741660     0.000003     0.008550   110.750210
	   43 B(8,11,16)      =    112.101434     0.000003     0.014183   112.115617
	   44 B(9,5,10)       =    105.971487     0.000001    -0.000764   105.970723
	   45 B(11,8,12)      =    108.722559    -0.000001     0.002849   108.725409
	   46 B(11,8,13)      =    109.402025    -0.000001    -0.003464   109.398561
	   47 B(12,8,13)      =    106.056938     0.000001    -0.000682   106.056256
	   48 B(14,11,15)     =    107.707216    -0.000001    -0.004786   107.702430
	   49 B(14,11,16)     =    107.771886    -0.000001    -0.001656   107.770230
	   50 B(15,11,16)     =    107.326580    -0.000003    -0.011827   107.314753
	   51 B(18,17,19)     =    110.192539    -0.000000     0.000019   110.192558
	   52 B(18,17,20)     =    109.042166    -0.000000    -0.002747   109.039419
	   53 B(19,17,20)     =    110.192411    -0.000000     0.000552   110.192963
	   54 D(1,2,3,5)      =      0.268905     0.000000     0.005211     0.274116
	   55 D(1,2,3,6)      =    123.281652     0.000000    -0.008452   123.273200
	   56 D(1,2,3,7)      =   -123.612396     0.000000    -0.012807  -123.625203
	   57 D(1,2,4,17)     =     -0.014469    -0.000000    -0.014958    -0.029427
	   58 D(2,3,5,8)      =    176.847408     0.000000    -0.006969   176.840439
	   59 D(2,3,5,9)      =     55.046386    -0.000000    -0.026529    55.019857
	   60 D(2,3,5,10)     =    -60.172272    -0.000000    -0.025343   -60.197615
	   61 D(2,4,17,18)    =    -60.484645     0.000000     0.011058   -60.473588
	   62 D(2,4,17,19)    =   -179.977771     0.000000     0.008888  -179.968884
	   63 D(2,4,17,20)    =     60.530362    -0.000000     0.005417    60.535779
	   64 D(3,2,4,17)     =    179.992925     0.000000     0.007075   180.000000
	   65 D(3,5,8,11)     =     66.967558    -0.000000    -0.032890    66.934668
	   66 D(3,5,8,12)     =   -171.534219    -0.000000    -0.018160  -171.552379
	   67 D(3,5,8,13)     =    -56.442549    -0.000000    -0.027208   -56.469757
	   68 D(4,2,3,5)      =   -179.738703    -0.000000    -0.017965  -179.756668
	   69 D(4,2,3,6)      =    -56.725956    -0.000000    -0.031628   -56.757584
	   70 D(4,2,3,7)      =     56.379996    -0.000000    -0.035982    56.344014
	   71 D(5,8,11,14)    =     56.386976     0.000000     0.010341    56.397316
	   72 D(5,8,11,15)    =    175.972547     0.000000     0.006298   175.978845
	   73 D(5,8,11,16)    =    -64.192747     0.000000     0.006634   -64.186113
	   74 D(6,3,5,8)      =     56.039195     0.000000     0.007509    56.046703
	   75 D(6,3,5,9)      =    -65.761827    -0.000000    -0.012051   -65.773879
	   76 D(6,3,5,10)     =    179.019515    -0.000000    -0.010866   179.008649
	   77 D(7,3,5,8)      =    -62.111058     0.000000     0.002711   -62.108347
	   78 D(7,3,5,9)      =    176.087920    -0.000000    -0.016849   176.071071
	   79 D(7,3,5,10)     =     60.869263    -0.000000    -0.015664    60.853599
	   80 D(9,5,8,11)     =   -171.498203    -0.000000    -0.014730  -171.512933
	   81 *D(9,5,8,12)    =    -49.999980    -0.000000     0.000000   -49.999980
	   82 D(9,5,8,13)     =     65.091690    -0.000000    -0.009048    65.082642
	   83 D(10,5,8,11)    =    -55.763692    -0.000000    -0.022134   -55.785826
	   84 D(10,5,8,12)    =     65.734531    -0.000000    -0.007404    65.727127
	   85 D(10,5,8,13)    =   -179.173799    -0.000000    -0.016452  -179.190251
	   86 D(12,8,11,14)   =    -64.772959     0.000000    -0.003288   -64.776247
	   87 D(12,8,11,15)   =     54.812612    -0.000000    -0.007331    54.805282
	   88 D(12,8,11,16)   =    174.647318    -0.000000    -0.006994   174.640324
	   89 D(13,8,11,14)   =    179.823172    -0.000000    -0.002167   179.821005
	   90 D(13,8,11,15)   =    -60.591257    -0.000000    -0.006209   -60.597466
	   91 D(13,8,11,16)   =     59.243449    -0.000000    -0.005873    59.237576
	 ---------------------------------------------------------------------------
	Successfully symmetrized geometry.

  ==> Convergence Check <==

  Measures of convergence in internal coordinates in au.
  Criteria marked as inactive (o), active & met (*), and active & unmet ( ).
  ---------------------------------------------------------------------------------------------
   Step     Total Energy     Delta E     MAX Force     RMS Force      MAX Disp      RMS Disp   
  ---------------------------------------------------------------------------------------------
    Convergence Criteria    1.00e-06 *    3.00e-04 *             o    1.20e-03 *             o
  ---------------------------------------------------------------------------------------------
      6    -384.08161157   -2.06e-06      6.76e-05 *    2.19e-05 o    6.28e-04 *    1.98e-04 o  ~
  ---------------------------------------------------------------------------------------------


  **** Optimization is complete! (in 6 steps) ****

  ==> Optimization Summary <==

  Measures of convergence in internal coordinates in au.
  --------------------------------------------------------------------------------------------------------------- ~
   Step         Total Energy             Delta E       MAX Force       RMS Force        MAX Disp        RMS Disp  ~
  --------------------------------------------------------------------------------------------------------------- ~
      1    -384.081009886891   -384.081009886891      0.00927727      0.00175056      0.10150887      0.03145235  ~
      2    -384.081106306123     -0.000096419232      0.00757479      0.00184803      0.03073833      0.00819609  ~
      3    -384.081592241090     -0.000485934967      0.00076716      0.00020992      0.03307857      0.01093356  ~
      4    -384.081417922564      0.000174318525      0.00194201      0.00056276      0.02974083      0.00845414  ~
      5    -384.081609506298     -0.000191583734      0.00038393      0.00007383      0.00782360      0.00233792  ~
      6    -384.081611571026     -0.000002064728      0.00006762      0.00002187      0.00062801      0.00019839  ~
  --------------------------------------------------------------------------------------------------------------- ~

	Writing optimization data to binary file.
	Final energy is   -384.0816115710259
	Final (previous) structure:
	Cartesian Geometry (in Angstrom)
	    O     1.6658580035   0.6180689579  -0.6084006978
	    C     0.8859862908   0.5298651141   0.2776206885
	    C    -0.3739935949  -0.2974411709   0.2577940607
	    O     1.0249222017   1.1642514323   1.4304851263
	    C    -0.5812067772  -1.0559785413  -1.0468726363
	    H    -0.3233130437  -0.9780492207   1.1018325273
	    H    -1.1954652836   0.3766259826   0.4695881470
	    C    -1.8173213115  -1.9562449580  -1.0448140505
	    H     0.2974332137  -1.6588197962  -1.2410992717
	    H    -0.6447710445  -0.3483739004  -1.8664094323
	    C    -3.1493457092  -1.2124696326  -0.9855342717
	    H    -1.7957183337  -2.5606889341  -1.9456494304
	    H    -1.7558218593  -2.6536997642  -0.2131822669
	    H    -3.2367514174  -0.5055459472  -1.8041844659
	    H    -3.9794998865  -1.9054603940  -1.0583464510
	    H    -3.2683688821  -0.6623772042  -0.0592991243
	    C     2.1677223000   1.9804704988   1.5883983931
	    H     3.0704069896   1.3950172962   1.4952793463
	    H     2.0980003512   2.4018907515   2.5780786697
	    H     2.1799101830   2.7669054857   0.8483788327
	Saving final (previous) structure.
			--------------------------
			 OPTKING Finished Execution 
			--------------------------

    Final optimized geometry and variables:
    Molecular point group: c1
    Full point group: C1

    Geometry (in Angstrom), charge = 0, multiplicity = 1:

    O            1.665858003499     0.618068957945    -0.608400697785
    C            0.885986290835     0.529865114145     0.277620688491
    C           -0.373993594911    -0.297441170887     0.257794060673
    O            1.024922201669     1.164251432264     1.430485126325
    C           -0.581206777191    -1.055978541288    -1.046872636272
    H           -0.323313043723    -0.978049220712     1.101832527344
    H           -1.195465283614     0.376625982599     0.469588146973
    C           -1.817321311536    -1.956244958039    -1.044814050467
    H            0.297433213662    -1.658819796187    -1.241099271693
    H           -0.644771044504    -0.348373900409    -1.866409432350
    C           -3.149345709233    -1.212469632561    -0.985534271696
    H           -1.795718333702    -2.560688934060    -1.945649430444
    H           -1.755821859253    -2.653699764167    -0.213182266865
    H           -3.236751417416    -0.505545947191    -1.804184465936
    H           -3.979499886462    -1.905460394038    -1.058346450992
    H           -3.268368882087    -0.662377204202    -0.059299124345
    C            2.167722299976     1.980470498820     1.588398393054
    H            3.070406989601     1.395017296180     1.495279346341
    H            2.098000351178     2.401890751458     2.578078669740
    H            2.179910182976     2.766905485723     0.848378832724

	Cleaning optimization helper files.


Properties will be evaluated at   0.000000,   0.000000,   0.000000 Bohr

Properties computed using the  density matrix

  Nuclear Dipole Moment: (a.u.)
     X:    -8.0061      Y:    -4.0531      Z:    -1.5851

  Electronic Dipole Moment: (a.u.)
     X:     7.6367      Y:     4.0816      Z:     2.1928

  Dipole Moment: (a.u.)
     X:    -0.3694      Y:     0.0285      Z:     0.6078     Total:     0.7118

  Dipole Moment: (Debye)
     X:    -0.9390      Y:     0.0723      Z:     1.5448     Total:     1.8092

  Quadrupole Moment: (Debye Ang)
    XX:   -50.5372     YY:   -46.5725     ZZ:   -50.6788
    XY:     2.0555     XZ:     5.4225     YZ:     2.3109

  Traceless Quadrupole Moment: (Debye Ang)
    XX:    -1.2744     YY:     2.6903     ZZ:    -1.4160
    XY:     2.0555     XZ:     5.4225     YZ:     2.3109

  Mulliken Charges: (a.u.)
   Center  Symbol    Alpha    Beta     Spin     Total
       1     O     4.19680  4.19680  0.00000 -0.39360
       2     C     2.80481  2.80481  0.00000  0.39037
       3     C     3.10206  3.10206  0.00000 -0.20412
       4     O     4.14712  4.14712  0.00000 -0.29424
       5     C     3.08864  3.08864  0.00000 -0.17727
       6     H     0.44016  0.44016  0.00000  0.11969
       7     H     0.43933  0.43933  0.00000  0.12133
       8     C     3.09421  3.09421  0.00000 -0.18843
       9     H     0.44115  0.44115  0.00000  0.11770
      10     H     0.44662  0.44662  0.00000  0.10676
      11     C     3.15266  3.15266  0.00000 -0.30532
      12     H     0.44570  0.44570  0.00000  0.10861
      13     H     0.45512  0.45512  0.00000  0.08975
      14     H     0.45318  0.45318  0.00000  0.09364
      15     H     0.44556  0.44556  0.00000  0.10887
      16     H     0.45513  0.45513  0.00000  0.08974
      17     C     3.03789  3.03789  0.00000 -0.07578
      18     H     0.45426  0.45426  0.00000  0.09149
      19     H     0.44526  0.44526  0.00000  0.10949
      20     H     0.45433  0.45433  0.00000  0.09133

   Total alpha = 32.00000, Total beta = 32.00000, Total charge = -0.00000


*** Psi4 exiting successfully. Buy a developer a beer!
