    -----------------------------------------------------------------------
          Psi4: An Open-Source Ab Initio Electronic Structure Package
                              Psi4 (no tag) Driver

                          Git: Rev {detached?}  

    J. M. Turney, A. C. Simmonett, R. M. Parrish, E. G. Hohenstein,
    F. A. Evangelista, J. T. Fermann, B. J. Mintz, L. A. Burns, J. J. Wilke,
    M. L. Abrams, N. J. Russ, M. L. Leininger, C. L. Janssen, E. T. Seidl,
    W. D. Allen, H. F. Schaefer, R. A. King, E. F. Valeev, C. D. Sherrill,
    and T. D. Crawford, WIREs Comput. Mol. Sci. 2, 556-565 (2012)
    (doi: 10.1002/wcms.93)

                         Additional Contributions by
    A. E. DePrince, M. Saitow, U. Bozkaya, A. Yu. Sokolov
    -----------------------------------------------------------------------


    Psi4 started on: Thu Sep  1 22:43:30 2016

    Process ID:  18767
    PSI4DATADIR: /export131/home/mjharvey/miniconda3/share
    Memory level set to 256.000 MB

  ==> Input File <==

--------------------------------------------------------------------------
set {
	reference rhf
	basis 6-31G*
}


set_num_threads( 1 )
memory 2 gb

molecule MOL {
0 1

O	 -2.636300	 -1.007097	 0.908471
C	 -2.005762	 -1.847989	 0.343001
C	 -0.817749	 -1.476880	 -0.527176
C	 -2.333144	 -3.317451	 0.487493
C	 0.422704	 -1.187241	 0.333363
H	 -1.085367	 -0.587433	 -1.087149
H	 -0.600623	 -2.270574	 -1.236353
C	 1.631333	 -0.777471	 -0.511575
H	 0.168645	 -0.405761	 1.040560
H	 0.677174	 -2.069863	 0.918146
C	 2.915987	 -0.544314	 0.291766
H	 1.388322	 0.124600	 -1.070090
H	 1.821020	 -1.552425	 -1.251382
C	 3.373361	 0.914346	 0.347591
H	 3.708709	 -1.142521	 -0.150311
H	 2.780642	 -0.921148	 1.303579
H	 3.506512	 1.320010	 -0.651625
H	 4.322697	 0.999599	 0.867103
H	 2.660624	 1.545032	 0.868198
H	 -2.675413	 -3.710909	 -0.466082
H	 -3.106860	 -3.453116	 1.230287
H	 -1.448961	 -3.882530	 0.768048

	symmetry c1
}
set optking {
	frozen_dihedral = ("
		6 3 2 1,
		6 3 5 8,
		3 5 8 12
	")
}

ee = energy('scf')
oeprop('DIPOLE', 'QUADRUPOLE', 'MULLIKEN_CHARGES')
f=open( 'psi4out.xyz', 'w' )
f.write( "22  " )
f.write( str(ee) + "\n" )
f.write( MOL.save_string_xyz() )
f.close()
--------------------------------------------------------------------------

  Memory set to   2.000 GiB by Python script.

*** tstart() called on cx1-3-6-4.cx1.hpc.ic.ac.uk
*** at Thu Sep  1 22:43:31 2016


         ---------------------------------------------------------
                                   SCF
            by Justin Turney, Rob Parrish, and Andy Simmonett
                              RHF Reference
                        1 Threads,   2000 MiB Core
         ---------------------------------------------------------

  ==> Geometry <==

    Molecular point group: c1
    Full point group: C1

    Geometry (in Angstrom), charge = 0, multiplicity = 1:

       Center              X                  Y                   Z               Mass       
    ------------   -----------------  -----------------  -----------------  -----------------
           O         -2.708911570843     0.141716283016     0.691162457178    15.994914619560
           C         -2.078373570843    -0.699175716984     0.125692457178    12.000000000000
           C         -0.890360570843    -0.328066716984    -0.744484542822    12.000000000000
           C         -2.405755570843    -2.168637716984     0.270184457178    12.000000000000
           C          0.350092429157    -0.038427716984     0.116054457178    12.000000000000
           H         -1.157978570843     0.561380283016    -1.304457542822     1.007825032070
           H         -0.673234570843    -1.121760716984    -1.453661542822     1.007825032070
           C          1.558721429157     0.371342283016    -0.728883542822    12.000000000000
           H          0.096033429157     0.743052283016     0.823251457178     1.007825032070
           H          0.604562429157    -0.921049716984     0.700837457178     1.007825032070
           C          2.843375429157     0.604499283016     0.074457457178    12.000000000000
           H          1.315710429157     1.273413283016    -1.287398542822     1.007825032070
           H          1.748408429157    -0.403611716984    -1.468690542822     1.007825032070
           C          3.300749429157     2.063159283016     0.130282457178    12.000000000000
           H          3.636097429157     0.006292283016    -0.367619542822     1.007825032070
           H          2.708030429157     0.227665283016     1.086270457178     1.007825032070
           H          3.433900429157     2.468823283016    -0.868933542822     1.007825032070
           H          4.250085429157     2.148412283016     0.649794457178     1.007825032070
           H          2.588012429157     2.693845283016     0.650889457178     1.007825032070
           H         -2.748024570843    -2.562095716984    -0.683390542822     1.007825032070
           H         -3.179471570843    -2.304302716984     1.012978457178     1.007825032070
           H         -1.521572570843    -2.733716716984     0.550739457178     1.007825032070

  Running in c1 symmetry.

  Rotational constants: A =      0.17543  B =      0.02329  C =      0.02215 [cm^-1]
  Rotational constants: A =   5259.24731  B =    698.06797  C =    664.07793 [MHz]
  Nuclear repulsion =  369.915107544961472

  Charge       = 0
  Multiplicity = 1
  Electrons    = 64
  Nalpha       = 32
  Nbeta        = 32

  ==> Algorithm <==

  SCF Algorithm Type is DF.
  DIIS enabled.
  MOM disabled.
  Fractional occupation disabled.
  Guess Type is CORE.
  Energy threshold   = 1.00e-06
  Density threshold  = 1.00e-06
  Integral threshold = 0.00e+00

  ==> Primary Basis <==

  Basis Set: 6-31G*
    Number of shells: 76
    Number of basis function: 148
    Number of Cartesian functions: 148
    Spherical Harmonics?: false
    Max angular momentum: 2

  ==> Pre-Iterations <==

   -------------------------------------------------------
    Irrep   Nso     Nmo     Nalpha   Nbeta   Ndocc  Nsocc
   -------------------------------------------------------
     A        148     148       0       0       0       0
   -------------------------------------------------------
    Total     148     148      32      32      32       0
   -------------------------------------------------------

 OEINTS: Overlap, kinetic, potential, dipole, and quadrupole integrals
         stored in file 35.

  ==> Integral Setup <==

  ==> DFJK: Density-Fitted J/K Matrices <==

    J tasked:                  Yes
    K tasked:                  Yes
    wK tasked:                  No
    OpenMP threads:              1
    Integrals threads:           1
    Memory (MB):              1430
    Algorithm:                Core
    Integral Cache:           NONE
    Schwarz Cutoff:          1E-12
    Fitting Condition:       1E-12

   => Auxiliary Basis Set <=

  Basis Set: 
    Number of shells: 318
    Number of basis function: 998
    Number of Cartesian functions: 998
    Spherical Harmonics?: false
    Max angular momentum: 3

  Minimum eigenvalue in the overlap matrix is 3.1058665824E-03.
  Using Symmetric Orthogonalization.
  SCF Guess: Core (One-Electron) Hamiltonian.

  ==> Iterations <==

                           Total Energy        Delta E     RMS |[F,P]|

   @DF-RHF iter   1:  -262.25267186768275   -2.62253e+02   6.38042e-02 
   @DF-RHF iter   2:  -161.92044548165114    1.00332e+02   7.50017e-02 DIIS
   @DF-RHF iter   3:  -286.03613699456656   -1.24116e+02   3.57452e-02 DIIS
   @DF-RHF iter   4:  -164.47726967540081    1.21559e+02   7.37312e-02 DIIS
   @DF-RHF iter   5:  -241.32027710813776   -7.68430e+01   5.80401e-02 DIIS
   @DF-RHF iter   6:  -291.58481970123677   -5.02645e+01   4.30179e-02 DIIS
   @DF-RHF iter   7:  -333.62781843852378   -4.20430e+01   2.17203e-02 DIIS
   @DF-RHF iter   8:  -347.44268368138052   -1.38149e+01   7.66238e-03 DIIS
   @DF-RHF iter   9:  -348.02329177301323   -5.80608e-01   2.71759e-03 DIIS
   @DF-RHF iter  10:  -348.08591336942419   -6.26216e-02   7.26758e-04 DIIS
   @DF-RHF iter  11:  -348.09235304799978   -6.43968e-03   3.02334e-04 DIIS
   @DF-RHF iter  12:  -348.09380095092735   -1.44790e-03   9.40553e-05 DIIS
   @DF-RHF iter  13:  -348.09397044042117   -1.69489e-04   2.70095e-05 DIIS
   @DF-RHF iter  14:  -348.09398471767628   -1.42773e-05   1.06446e-05 DIIS
   @DF-RHF iter  15:  -348.09398697464104   -2.25696e-06   2.94631e-06 DIIS
   @DF-RHF iter  16:  -348.09398715581784   -1.81177e-07   8.19076e-07 DIIS

  ==> Post-Iterations <==

    Orbital Energies (a.u.)
    -----------------------

    Doubly Occupied:                                                      

       1A    -20.547271     2A    -11.324468     3A    -11.230206  
       4A    -11.228880     5A    -11.228205     6A    -11.220968  
       7A    -11.219246     8A    -11.211930     9A     -1.393038  
      10A     -1.094984    11A     -1.044594    12A     -1.000423  
      13A     -0.938361    14A     -0.850473    15A     -0.794531  
      16A     -0.732494    17A     -0.662085    18A     -0.644397  
      19A     -0.627424    20A     -0.614324    21A     -0.599095  
      22A     -0.581494    23A     -0.561169    24A     -0.550188  
      25A     -0.531360    26A     -0.510056    27A     -0.505233  
      28A     -0.487276    29A     -0.473178    30A     -0.461648  
      31A     -0.457326    32A     -0.396094  

    Virtual:                                                              

      33A      0.168781    34A      0.221279    35A      0.234639  
      36A      0.263865    37A      0.271319    38A      0.276167  
      39A      0.304208    40A      0.308804    41A      0.310787  
      42A      0.315169    43A      0.326516    44A      0.331765  
      45A      0.341728    46A      0.347385    47A      0.365414  
      48A      0.382529    49A      0.413628    50A      0.441233  
      51A      0.458197    52A      0.472930    53A      0.511187  
      54A      0.522309    55A      0.710436    56A      0.718408  
      57A      0.729410    58A      0.746152    59A      0.761905  
      60A      0.764053    61A      0.793634    62A      0.813129  
      63A      0.830191    64A      0.838547    65A      0.890340  
      66A      0.921334    67A      0.941685    68A      0.951686  
      69A      0.975625    70A      0.988998    71A      1.001824  
      72A      1.039172    73A      1.081810    74A      1.103901  
      75A      1.118316    76A      1.126112    77A      1.133249  
      78A      1.141685    79A      1.152414    80A      1.155676  
      81A      1.177968    82A      1.188476    83A      1.194178  
      84A      1.207074    85A      1.209468    86A      1.226250  
      87A      1.243539    88A      1.250862    89A      1.257434  
      90A      1.265179    91A      1.342315    92A      1.356490  
      93A      1.380479    94A      1.454738    95A      1.500544  
      96A      1.509439    97A      1.674533    98A      1.698626  
      99A      1.734126   100A      1.774388   101A      1.816559  
     102A      1.861830   103A      1.911766   104A      1.962979  
     105A      2.008591   106A      2.058240   107A      2.089228  
     108A      2.106372   109A      2.138723   110A      2.182112  
     111A      2.191387   112A      2.201926   113A      2.238648  
     114A      2.260457   115A      2.279406   116A      2.289479  
     117A      2.320743   118A      2.366472   119A      2.381270  
     120A      2.447361   121A      2.468116   122A      2.517236  
     123A      2.564161   124A      2.606897   125A      2.642237  
     126A      2.663985   127A      2.704376   128A      2.720661  
     129A      2.735628   130A      2.784815   131A      2.792304  
     132A      2.841598   133A      2.922802   134A      2.987744  
     135A      2.996187   136A      3.056991   137A      3.108306  
     138A      3.165506   139A      3.375874   140A      3.378369  
     141A      4.459555   142A      4.526815   143A      4.578871  
     144A      4.660635   145A      4.781930   146A      4.860569  
     147A      4.936575   148A      5.017977  

    Final Occupation by Irrep:
              A 
    DOCC [    32 ]

  Energy converged.

  @DF-RHF Final Energy:  -348.09398715581784

   => Energetics <=

    Nuclear Repulsion Energy =            369.9151075449614723
    One-Electron Energy =               -1204.5735442652198799
    Two-Electron Energy =                 486.5644495644396557
    DFT Exchange-Correlation Energy =       0.0000000000000000
    Empirical Dispersion Energy =           0.0000000000000000
    PCM Polarization Energy =               0.0000000000000000
    EFP Energy =                            0.0000000000000000
    Total Energy =                       -348.0939871558186951

    Alert: EFP and PCM quantities not currently incorporated into SCF psivars.

Properties will be evaluated at   0.000000,   0.000000,   0.000000 Bohr
  ==> Properties <==


Properties computed using the SCF density matrix

  Nuclear Dipole Moment: (a.u.)
     X:    10.3934      Y:     0.0723      Z:    -1.8335

  Electronic Dipole Moment: (a.u.)
     X:    -9.6294      Y:    -0.8539      Z:     1.2866

  Dipole Moment: (a.u.)
     X:     0.7640      Y:    -0.7817      Z:    -0.5469     Total:     1.2223

  Dipole Moment: (Debye)
     X:     1.9420      Y:    -1.9868      Z:    -1.3902     Total:     3.1067


  Saving occupied orbitals to File 180.

*** tstop() called on cx1-3-6-4.cx1.hpc.ic.ac.uk at Thu Sep  1 22:43:47 2016
Module time:
	user time   =      15.24 seconds =       0.25 minutes
	system time =       0.15 seconds =       0.00 minutes
	total time  =         16 seconds =       0.27 minutes
Total time:
	user time   =      15.24 seconds =       0.25 minutes
	system time =       0.15 seconds =       0.00 minutes
	total time  =         16 seconds =       0.27 minutes


Properties will be evaluated at   0.000000,   0.000000,   0.000000 Bohr

Properties computed using the  density matrix

  Nuclear Dipole Moment: (a.u.)
     X:    10.3934      Y:     0.0723      Z:    -1.8335

  Electronic Dipole Moment: (a.u.)
     X:    -9.6294      Y:    -0.8539      Z:     1.2866

  Dipole Moment: (a.u.)
     X:     0.7640      Y:    -0.7817      Z:    -0.5469     Total:     1.2223

  Dipole Moment: (Debye)
     X:     1.9420      Y:    -1.9868      Z:    -1.3902     Total:     3.1067

  Quadrupole Moment: (Debye Ang)
    XX:   -58.8526     YY:   -49.5813     ZZ:   -52.1912
    XY:     4.7237     XZ:     3.9134     YZ:    -0.6561

  Traceless Quadrupole Moment: (Debye Ang)
    XX:    -5.3109     YY:     3.9604     ZZ:     1.3504
    XY:     4.7237     XZ:     3.9134     YZ:    -0.6561

  Mulliken Charges: (a.u.)
   Center  Symbol    Alpha    Beta     Spin     Total
       1     O     4.26246  4.26246  0.00000 -0.52491
       2     C     2.73720  2.73720  0.00000  0.52560
       3     C     3.20070  3.20070  0.00000 -0.40139
       4     C     3.28955  3.28955  0.00000 -0.57910
       5     C     3.16367  3.16367  0.00000 -0.32735
       6     H     0.40108  0.40108  0.00000  0.19783
       7     H     0.41692  0.41692  0.00000  0.16617
       8     C     3.15452  3.15452  0.00000 -0.30904
       9     H     0.40523  0.40523  0.00000  0.18953
      10     H     0.42049  0.42049  0.00000  0.15902
      11     C     3.15593  3.15593  0.00000 -0.31185
      12     H     0.41777  0.41777  0.00000  0.16446
      13     H     0.42122  0.42122  0.00000  0.15756
      14     C     3.24041  3.24041  0.00000 -0.48082
      15     H     0.41977  0.41977  0.00000  0.16046
      16     H     0.41949  0.41949  0.00000  0.16103
      17     H     0.42112  0.42112  0.00000  0.15777
      18     H     0.41934  0.41934  0.00000  0.16133
      19     H     0.41942  0.41942  0.00000  0.16117
      20     H     0.40692  0.40692  0.00000  0.18617
      21     H     0.39708  0.39708  0.00000  0.20584
      22     H     0.40973  0.40973  0.00000  0.18054

   Total alpha = 32.00000, Total beta = 32.00000, Total charge =  0.00000


*** PSI4 exiting successfully. Buy a developer a beer!
