    -----------------------------------------------------------------------
          Psi4: An Open-Source Ab Initio Electronic Structure Package
                              Psi4 1.0.54 Driver

                          Git: Rev {master} 8d4cec3 dirty

    J. M. Turney, A. C. Simmonett, R. M. Parrish, E. G. Hohenstein,
    F. A. Evangelista, J. T. Fermann, B. J. Mintz, L. A. Burns, J. J. Wilke,
    M. L. Abrams, N. J. Russ, M. L. Leininger, C. L. Janssen, E. T. Seidl,
    W. D. Allen, H. F. Schaefer, R. A. King, E. F. Valeev, C. D. Sherrill,
    and T. D. Crawford, WIREs Comput. Mol. Sci. 2, 556-565 (2012)
    (doi: 10.1002/wcms.93)

                         Additional Contributions by
    A. E. DePrince, U. Bozkaya, A. Yu. Sokolov, D. G. A. Smith, R. Di Remigio,
    R. M. Richard, J. F. Gonthier, H. R. McAlexander, M. Saitow, and
    B. P. Pritchard
    -----------------------------------------------------------------------


    Psi4 started on: Sat Sep 10 15:12:41 2016

    Process ID:  34439
    PSI4DATADIR: /export131/home/mjharvey/miniconda3/share/psi4
    Memory level set to 256.000 MB

  ==> Input File <==

--------------------------------------------------------------------------
set {
	reference rhf
	basis cc-pvtz
}


set_num_threads( 4 )
memory 2 gb

molecule MOL {
0 1

H	 -0.988015	 -0.318454	 -0.997794
N	 -0.712187	 0.000026	 -0.093397
C	 0.734067	 -0.000020	 0.038424
H	 -1.131302	 -0.611699	 0.574120
H	 1.140372	 -0.872115	 -0.458226
H	 1.140363	 0.872301	 -0.457869
H	 1.095085	 -0.000244	 1.065614

	symmetry c1
}
set optking {
	frozen_dihedral = ("
		1 2 3 7
	")
}

ee,wfn = optimize('scf', return_wfn=True)
oeprop( wfn, 'DIPOLE', 'QUADRUPOLE', 'MULLIKEN_CHARGES')
f=open( 'psi4out.xyz', 'w' )
f.write( "7  " )
f.write( str(ee) + "\n" )
f.write( MOL.save_string_xyz() )
f.close()
--------------------------------------------------------------------------

  Memory set to   2.000 GiB by Python script.
gradient() will perform analytic gradient computation.

*** tstart() called on cx1-27-1-1
*** at Sat Sep 10 15:12:41 2016


         ---------------------------------------------------------
                                   SCF
            by Justin Turney, Rob Parrish, and Andy Simmonett
                              RHF Reference
                        4 Threads,   2000 MiB Core
         ---------------------------------------------------------

  ==> Geometry <==

    Molecular point group: c1
    Full point group: C1

    Geometry (in Angstrom), charge = 0, multiplicity = 1:

       Center              X                  Y                   Z               Mass       
    ------------   -----------------  -----------------  -----------------  -----------------
           H         -0.991311541894    -0.288257497297    -0.961615591102     1.007825032070
           N         -0.715483541894     0.030222502703    -0.057218591102    14.003074004780
           C          0.730770458106     0.030176502703     0.074602408898    12.000000000000
           H         -1.134598541894    -0.581502497297     0.610298408898     1.007825032070
           H          1.137075458106    -0.841918497297    -0.422047591102     1.007825032070
           H          1.137066458106     0.902497502703    -0.421690591102     1.007825032070
           H          1.091788458106     0.029952502703     1.101792408898     1.007825032070

  Running in c1 symmetry.

  Rotational constants: A =      3.54795  B =      0.77316  C =      0.74060 [cm^-1]
  Rotational constants: A = 106364.91372  B =  23178.81411  C =  22202.71647 [MHz]
  Nuclear repulsion =   42.396613720051676

  Charge       = 0
  Multiplicity = 1
  Electrons    = 18
  Nalpha       = 9
  Nbeta        = 9

  ==> Algorithm <==

  SCF Algorithm Type is DF.
  DIIS enabled.
  MOM disabled.
  Fractional occupation disabled.
  Guess Type is SAD.
  Energy threshold   = 1.00e-08
  Density threshold  = 1.00e-08
  Integral threshold = 0.00e+00

  ==> Primary Basis <==

  Basis Set: CC-PVTZ
    Number of shells: 50
    Number of basis function: 130
    Number of Cartesian functions: 145
    Spherical Harmonics?: true
    Max angular momentum: 3

  ==> Pre-Iterations <==

   -------------------------------------------------------
    Irrep   Nso     Nmo     Nalpha   Nbeta   Ndocc  Nsocc
   -------------------------------------------------------
     A        130     130       0       0       0       0
   -------------------------------------------------------
    Total     130     130       9       9       9       0
   -------------------------------------------------------

  ==> Integral Setup <==

  ==> DFJK: Density-Fitted J/K Matrices <==

    J tasked:                  Yes
    K tasked:                  Yes
    wK tasked:                  No
    OpenMP threads:              4
    Integrals threads:           4
    Memory (MB):              1430
    Algorithm:                Core
    Integral Cache:           NONE
    Schwarz Cutoff:          1E-12
    Fitting Condition:       1E-12

   => Auxiliary Basis Set <=

  Basis Set: 
    Number of shells: 100
    Number of basis function: 308
    Number of Cartesian functions: 367
    Spherical Harmonics?: true
    Max angular momentum: 4

  Minimum eigenvalue in the overlap matrix is 1.3144530686E-03.
  Using Symmetric Orthogonalization.
  SCF Guess: Superposition of Atomic Densities via on-the-fly atomic UHF.

  ==> Iterations <==

                           Total Energy        Delta E     RMS |[F,P]|

   @DF-RHF iter   0:   -95.79917463458497   -9.57992e+01   2.14591e-02 
   @DF-RHF iter   1:   -95.21611123638687    5.83063e-01   1.74214e-03 
   @DF-RHF iter   2:   -95.24810892134326   -3.19977e-02   4.74658e-04 DIIS
   @DF-RHF iter   3:   -95.25076784154976   -2.65892e-03   1.81394e-04 DIIS
   @DF-RHF iter   4:   -95.25116902450759   -4.01183e-04   5.60782e-05 DIIS
   @DF-RHF iter   5:   -95.25121172984703   -4.27053e-05   1.37032e-05 DIIS
   @DF-RHF iter   6:   -95.25121591177697   -4.18193e-06   2.86537e-06 DIIS
   @DF-RHF iter   7:   -95.25121615517116   -2.43394e-07   7.03744e-07 DIIS
   @DF-RHF iter   8:   -95.25121616972862   -1.45575e-08   2.09210e-07 DIIS
   @DF-RHF iter   9:   -95.25121617087228   -1.14366e-09   6.73223e-08 DIIS
   @DF-RHF iter  10:   -95.25121617097625   -1.03967e-10   1.50699e-08 DIIS
   @DF-RHF iter  11:   -95.25121617098256   -6.30962e-12   3.23160e-09 DIIS

  ==> Post-Iterations <==

    Orbital Energies (a.u.)
    -----------------------

    Doubly Occupied:                                                      

       1A    -15.526980     2A    -11.235617     3A     -1.171870  
       4A     -0.896697     5A     -0.664925     6A     -0.600443  
       7A     -0.563927     8A     -0.518346     9A     -0.382931  

    Virtual:                                                              

      10A      0.140162    11A      0.178986    12A      0.196413  
      13A      0.227639    14A      0.246525    15A      0.313603  
      16A      0.395134    17A      0.411971    18A      0.509218  
      19A      0.524819    20A      0.596387    21A      0.622675  
      22A      0.632385    23A      0.650186    24A      0.664276  
      25A      0.717455    26A      0.734051    27A      0.762441  
      28A      0.769251    29A      0.778358    30A      0.910915  
      31A      1.028928    32A      1.069525    33A      1.078046  
      34A      1.170487    35A      1.189735    36A      1.218413  
      37A      1.222260    38A      1.326060    39A      1.359134  
      40A      1.369091    41A      1.436196    42A      1.450034  
      43A      1.475790    44A      1.539052    45A      1.554534  
      46A      1.616821    47A      1.650571    48A      1.770309  
      49A      1.803512    50A      1.886647    51A      1.923327  
      52A      2.011821    53A      2.047052    54A      2.435503  
      55A      2.481129    56A      2.597010    57A      2.796032  
      58A      2.833064    59A      2.859843    60A      3.049946  
      61A      3.085833    62A      3.130865    63A      3.164961  
      64A      3.177015    65A      3.193447    66A      3.292031  
      67A      3.296739    68A      3.327586    69A      3.341870  
      70A      3.396252    71A      3.520828    72A      3.576148  
      73A      3.624474    74A      3.646890    75A      3.653851  
      76A      3.707241    77A      3.743866    78A      3.755875  
      79A      3.773957    80A      3.802939    81A      3.843100  
      82A      3.884243    83A      3.891707    84A      3.978120  
      85A      3.994077    86A      4.060459    87A      4.135831  
      88A      4.161078    89A      4.223473    90A      4.241278  
      91A      4.274573    92A      4.285093    93A      4.317987  
      94A      4.351889    95A      4.458933    96A      4.496583  
      97A      4.554373    98A      4.559222    99A      4.593977  
     100A      4.701634   101A      4.710257   102A      4.770164  
     103A      4.841576   104A      4.971065   105A      5.018418  
     106A      5.156652   107A      5.208381   108A      5.286776  
     109A      5.385661   110A      5.415053   111A      5.440763  
     112A      5.545532   113A      5.577068   114A      5.632006  
     115A      5.663557   116A      5.727712   117A      5.782570  
     118A      5.839710   119A      6.013574   120A      6.126200  
     121A      6.168992   122A      6.201727   123A      6.337323  
     124A      6.365711   125A      6.483398   126A      6.577457  
     127A      6.651390   128A      7.323854   129A     13.034975  
     130A     14.150181  

    Final Occupation by Irrep:
              A 
    DOCC [     9 ]

  Energy converged.

  @DF-RHF Final Energy:   -95.25121617098256

   => Energetics <=

    Nuclear Repulsion Energy =             42.3966137200516755
    One-Electron Energy =                -212.1721896382031787
    Two-Electron Energy =                  74.5243597471689867
    DFT Exchange-Correlation Energy =       0.0000000000000000
    Empirical Dispersion Energy =           0.0000000000000000
    PCM Polarization Energy =               0.0000000000000000
    EFP Energy =                            0.0000000000000000
    Total Energy =                        -95.2512161709825165


  Saving occupied orbitals to File 180.

*** tstop() called on cx1-27-1-1 at Sat Sep 10 15:12:42 2016
Module time:
	user time   =       3.57 seconds =       0.06 minutes
	system time =       0.12 seconds =       0.00 minutes
	total time  =          1 seconds =       0.02 minutes
Total time:
	user time   =       3.57 seconds =       0.06 minutes
	system time =       0.12 seconds =       0.00 minutes
	total time  =          1 seconds =       0.02 minutes


Properties will be evaluated at   0.000000,   0.000000,   0.000000 Bohr

Properties computed using the SCF density matrix

  Nuclear Dipole Moment: (a.u.)
     X:     1.1646      Y:    -0.7306      Z:    -0.0873

  Electronic Dipole Moment: (a.u.)
     X:    -1.0146      Y:     0.2167      Z:     0.0135

  Dipole Moment: (a.u.)
     X:     0.1499      Y:    -0.5139      Z:    -0.0738     Total:     0.5404

  Dipole Moment: (Debye)
     X:     0.3811      Y:    -1.3063      Z:    -0.1875     Total:     1.3736


*** tstart() called on cx1-27-1-1
*** at Sat Sep 10 15:12:42 2016


         ------------------------------------------------------------
                                   SCF GRAD                          
                          Rob Parrish, Justin Turney,                
                       Andy Simmonett, and Alex Sokolov              
         ------------------------------------------------------------

  ==> Geometry <==

    Molecular point group: c1
    Full point group: C1

    Geometry (in Angstrom), charge = 0, multiplicity = 1:

       Center              X                  Y                   Z               Mass       
    ------------   -----------------  -----------------  -----------------  -----------------
           H         -0.991311541894    -0.288257497297    -0.961615591102     1.007825032070
           N         -0.715483541894     0.030222502703    -0.057218591102    14.003074004780
           C          0.730770458106     0.030176502703     0.074602408898    12.000000000000
           H         -1.134598541894    -0.581502497297     0.610298408898     1.007825032070
           H          1.137075458106    -0.841918497297    -0.422047591102     1.007825032070
           H          1.137066458106     0.902497502703    -0.421690591102     1.007825032070
           H          1.091788458106     0.029952502703     1.101792408898     1.007825032070

  Nuclear repulsion =   42.396613720051676

  ==> Basis Set <==

  Basis Set: CC-PVTZ
    Number of shells: 50
    Number of basis function: 130
    Number of Cartesian functions: 145
    Spherical Harmonics?: true
    Max angular momentum: 3

  ==> DFJKGrad: Density-Fitted SCF Gradients <==

    Gradient:                    1
    J tasked:                  Yes
    K tasked:                  Yes
    wK tasked:                  No
    OpenMP threads:              4
    Integrals threads:           4
    Memory (MB):              1430
    Schwarz Cutoff:          0E+00
    Fitting Condition:       1E-12

   => Auxiliary Basis Set <=

  Basis Set: 
    Number of shells: 100
    Number of basis function: 308
    Number of Cartesian functions: 367
    Spherical Harmonics?: true
    Max angular momentum: 4


  -Total Gradient:
     Atom            X                  Y                   Z
    ------   -----------------  -----------------  -----------------
       1       -0.001363691615    -0.001241103772    -0.000465696806
       2        0.005113332523    -0.004390790700    -0.012053930712
       3       -0.002614050187     0.005519351007     0.012623321848
       4        0.000330582754     0.000338927589     0.000979540489
       5       -0.009748099113     0.002296951529    -0.002172983835
       6       -0.001037542229    -0.001130595508    -0.001612801086
       7        0.009319467867    -0.001392740145     0.002702550101


*** tstop() called on cx1-27-1-1 at Sat Sep 10 15:12:43 2016
Module time:
	user time   =       3.82 seconds =       0.06 minutes
	system time =       0.21 seconds =       0.00 minutes
	total time  =          1 seconds =       0.02 minutes
Total time:
	user time   =       7.43 seconds =       0.12 minutes
	system time =       0.33 seconds =       0.01 minutes
	total time  =          2 seconds =       0.03 minutes

			-----------------------------------------
			 OPTKING 2.0: for geometry optimizations 
			  - R.A. King,  Bethel University        
			-----------------------------------------

	Internal coordinates to be generated automatically.
	Detected frag 1 with atoms:  1 2 3 4 5 6 7
	---Fragment 1 Bond Connectivity---
	 1 : 2
	 2 : 1 3 4
	 3 : 2 5 6 7
	 4 : 2
	 5 : 3
	 6 : 3
	 7 : 3

	Assuming in current code that numbering for constraints corresponds to unified fragment.
	Frozen dihedral atom list: 
	     1     2     3     7
	---Fragment 1 Geometry and Gradient---
	 H          -1.8733073265       -0.5447277256       -1.8171901123
	 N          -1.3520679468        0.0571122532       -0.1081274669
	 C           1.3809560318        0.0570253258        0.1409781217
	 H          -2.1440805150       -1.0988804655        1.1532968522
	 H           2.1487612082       -1.5909953861       -0.7975543622
	 H           2.1487442007        1.7054731157       -0.7968797300
	 H           2.0631811809        0.0566020271        2.0820859081
	            -0.0013636916       -0.0012411038       -0.0004656968
	             0.0051133325       -0.0043907907       -0.0120539307
	            -0.0026140502        0.0055193510        0.0126233218
	             0.0003305828        0.0003389276        0.0009795405
	            -0.0097480991        0.0022969515       -0.0021729838
	            -0.0010375422       -0.0011305955       -0.0016128011
	             0.0093194679       -0.0013927401        0.0027025501

	Previous optimization step data not found.  Starting new optimization.

	---Fragment 1 Intrafragment Coordinates---
	 - Coordinate -           - BOHR/RAD -       - ANG/DEG -
	 R(1,2)           =         1.885417	       0.997720
	 R(2,3)           =         2.744353	       1.452249
	 R(2,4)           =         1.885416	       0.997719
	 R(3,5)           =         2.046055	       1.082726
	 R(3,6)           =         2.046083	       1.082741
	 R(3,7)           =         2.057506	       1.088785
	 B(1,2,3)         =         1.936479	     110.952080
	 B(1,2,4)         =         1.869851	     107.134558
	 B(2,3,5)         =         1.909327	     109.396350
	 B(2,3,6)         =         1.909290	     109.394287
	 B(2,3,7)         =         1.999668	     114.572544
	 B(3,2,4)         =         1.936483	     110.952284
	 B(5,3,6)         =         1.873245	     107.329025
	 B(5,3,7)         =         1.884054	     107.948327
	 B(6,3,7)         =         1.884074	     107.949464
	 D(1,2,3,5)       =        -0.674613	     -38.652493
	 D(1,2,3,6)       =         1.372745	      78.652476
	*D(1,2,3,7)       =        -2.792528	    -160.000043
	 D(4,2,3,5)       =         1.401895	      80.322666
	 D(4,2,3,6)       =        -2.833932	    -162.372365
	 D(4,2,3,7)       =        -0.716019	     -41.024885

	Current energy   :       -95.2512161710

	Generating empirical Hessian (Schlegel '84) for each fragment.
	Taking RFO optimization step.
	Going to follow RFO solution 1.
	Using RFO vector 1.
	Norm of target step-size    0.18810
	Projected energy change by RFO approximation:        -0.0091284072

	Back-transformation to cartesian coordinates...
	Could not converge backtransformation.
	Using first guess instead.

	Back-transformation to cartesian coordinates to adjust frozen coordinates...
	Successfully converged to displaced geometry.

	--- Internal Coordinate Step in ANG or DEG, aJ/ANG or AJ/DEG ---
	 ---------------------------------------------------------------------------
	   Coordinate                Previous        Force       Change         New 
	   ----------                --------       ------       ------       ------
	    1 R(1,2)          =      0.997720    -0.009848     3.921915     4.919635
	    2 R(2,3)          =      1.452249     0.024848     7.836045     9.288294
	    3 R(2,4)          =      0.997719    -0.002543     3.008601     4.006321
	    4 R(3,5)          =      1.082726     0.037168     2.094536     3.177262
	    5 R(3,6)          =      1.082741     0.004622     2.569149     3.651889
	    6 R(3,7)          =      1.088785    -0.046467     4.138100     5.226885
	    7 B(1,2,3)        =    110.952080    -0.000166    21.570826   132.522906
	    8 B(1,2,4)        =    107.134558    -0.000033     5.806561   112.941120
	    9 B(2,3,5)        =    109.396350     0.001186    12.825768   122.222119
	   10 B(2,3,6)        =    109.394287     0.000192     6.986789   116.381076
	   11 B(2,3,7)        =    114.572544    -0.001196     9.951051   124.523596
	   12 B(3,2,4)        =    110.952284     0.000064     1.300189   112.252472
	   13 B(5,3,6)        =    107.329025    -0.000227   -72.865172    34.463853
	   14 B(5,3,7)        =    107.948327    -0.000161     2.299728   110.248055
	   15 B(6,3,7)        =    107.949464     0.000236     8.899278   116.848743
	   16 D(1,2,3,5)      =    -38.652493    -0.000034    37.101322    -1.551171
	   17 D(1,2,3,6)      =     78.652476     0.000086   -41.032544    37.619933
	   18 *D(1,2,3,7)     =   -160.000043    -0.000000     0.000000  -160.000043
	   19 D(4,2,3,5)      =     80.322666    -0.000058    79.328346   159.651012
	   20 D(4,2,3,6)      =   -162.372365     0.000062     1.194480  -161.177885
	   21 D(4,2,3,7)      =    -41.024885    -0.000025    42.227024     1.202139
	 ---------------------------------------------------------------------------
	Successfully symmetrized geometry.
	The BAD_STEP_EXCEPTion handler:
	Step is far too large.

	Dynamic level is 0.
	Consecutive backsteps is 0.
This exception should not be called when neither dynamic nor backsteps are allowed.
