    -----------------------------------------------------------------------
          Psi4: An Open-Source Ab Initio Electronic Structure Package
                              Psi4 (no tag) Driver

                          Git: Rev {detached?}  

    J. M. Turney, A. C. Simmonett, R. M. Parrish, E. G. Hohenstein,
    F. A. Evangelista, J. T. Fermann, B. J. Mintz, L. A. Burns, J. J. Wilke,
    M. L. Abrams, N. J. Russ, M. L. Leininger, C. L. Janssen, E. T. Seidl,
    W. D. Allen, H. F. Schaefer, R. A. King, E. F. Valeev, C. D. Sherrill,
    and T. D. Crawford, WIREs Comput. Mol. Sci. 2, 556-565 (2012)
    (doi: 10.1002/wcms.93)

                         Additional Contributions by
    A. E. DePrince, M. Saitow, U. Bozkaya, A. Yu. Sokolov
    -----------------------------------------------------------------------


    Psi4 started on: Fri Sep  9 20:41:44 2016

    Process ID:   4370
    PSI4DATADIR: /export131/home/mjharvey/miniconda3/share
    Memory level set to 256.000 MB

  ==> Input File <==

--------------------------------------------------------------------------
set {
	reference rhf
	basis cc-pvtz
}


set_num_threads( 4 )
memory 2 gb

molecule MOL {
0 1

H	 -3.034039	 -0.667848	 0.004703
O	 -2.240597	 -1.171748	 0.000934
C	 -1.159675	 -0.364500	 0.000370
C	 -0.802487	 0.395006	 1.095806
C	 -0.402104	 -0.318893	 -1.159829
H	 -1.389456	 0.362687	 1.995518
C	 0.319932	 1.201354	 1.017026
H	 -0.708254	 -0.919842	 -1.994136
C	 0.718196	 0.483932	 -1.235832
H	 0.599300	 1.796010	 1.866207
C	 1.076304	 1.251548	 -0.131969
C	 1.555634	 0.515495	 -2.489365
H	 1.942369	 1.884274	 -0.177250
H	 1.841506	 1.529427	 -2.740447
H	 1.021234	 0.096346	 -3.331075
H	 2.466733	 -0.057545	 -2.354582

	symmetry c1
}
set optking {
	frozen_dihedral = ("
		5 3 2 1
	")
}

ee = optimize('scf')
oeprop('DIPOLE', 'QUADRUPOLE', 'MULLIKEN_CHARGES')
f=open( 'psi4out.xyz', 'w' )
f.write( "16  " )
f.write( str(ee) + "\n" )
f.write( MOL.save_string_xyz() )
f.close()
--------------------------------------------------------------------------

  Memory set to   2.000 GiB by Python script.
gradient() will perform analytic gradient computation.

*** tstart() called on cx1-28-12-4
*** at Fri Sep  9 20:41:45 2016


         ---------------------------------------------------------
                                   SCF
            by Justin Turney, Rob Parrish, and Andy Simmonett
                              RHF Reference
                        4 Threads,   2000 MiB Core
         ---------------------------------------------------------

  ==> Geometry <==

    Molecular point group: c1
    Full point group: C1

    Geometry (in Angstrom), charge = 0, multiplicity = 1:

       Center              X                  Y                   Z               Mass       
    ------------   -----------------  -----------------  -----------------  -----------------
           H         -2.872942116607    -0.883291487646     0.389815590952     1.007825032070
           O         -2.079500116607    -1.387191487646     0.386046590952    15.994914619560
           C         -0.998578116607    -0.579943487646     0.385482590952    12.000000000000
           C         -0.641390116607     0.179562512354     1.480918590952    12.000000000000
           C         -0.241007116607    -0.534336487646    -0.774716409048    12.000000000000
           H         -1.228359116607     0.147243512354     2.380630590952     1.007825032070
           C          0.481028883393     0.985910512354     1.402138590952    12.000000000000
           H         -0.547157116607    -1.135285487646    -1.609023409048     1.007825032070
           C          0.879292883393     0.268488512354    -0.850719409048    12.000000000000
           H          0.760396883393     1.580566512354     2.251319590952     1.007825032070
           C          1.237400883393     1.036104512354     0.253143590952    12.000000000000
           C          1.716730883393     0.300051512354    -2.104252409048    12.000000000000
           H          2.103465883393     1.668830512354     0.207862590952     1.007825032070
           H          2.002602883393     1.313983512354    -2.355334409048     1.007825032070
           H          1.182330883393    -0.119097487646    -2.945962409048     1.007825032070
           H          2.627829883393    -0.272988487646    -1.969469409048     1.007825032070

  Running in c1 symmetry.

  Rotational constants: A =      0.12354  B =      0.06108  C =      0.04131 [cm^-1]
  Rotational constants: A =   3703.55304  B =   1831.00455  C =   1238.43535 [MHz]
  Nuclear repulsion =  346.395216757338346

  Charge       = 0
  Multiplicity = 1
  Electrons    = 58
  Nalpha       = 29
  Nbeta        = 29

  ==> Algorithm <==

  SCF Algorithm Type is DF.
  DIIS enabled.
  MOM disabled.
  Fractional occupation disabled.
  Guess Type is CORE.
  Energy threshold   = 1.00e-08
  Density threshold  = 1.00e-08
  Integral threshold = 0.00e+00

  ==> Primary Basis <==

  Basis Set: CC-PVTZ
    Number of shells: 128
    Number of basis function: 352
    Number of Cartesian functions: 400
    Spherical Harmonics?: true
    Max angular momentum: 3

  ==> Pre-Iterations <==

   -------------------------------------------------------
    Irrep   Nso     Nmo     Nalpha   Nbeta   Ndocc  Nsocc
   -------------------------------------------------------
     A        352     352       0       0       0       0
   -------------------------------------------------------
    Total     352     352      29      29      29       0
   -------------------------------------------------------

 OEINTS: Overlap, kinetic, potential, dipole, and quadrupole integrals
         stored in file 35.

  ==> Integral Setup <==

  ==> DFJK: Density-Fitted J/K Matrices <==

    J tasked:                  Yes
    K tasked:                  Yes
    wK tasked:                  No
    OpenMP threads:              4
    Integrals threads:           4
    Memory (MB):              1430
    Algorithm:                Core
    Integral Cache:           NONE
    Schwarz Cutoff:          1E-12
    Fitting Condition:       1E-12

   => Auxiliary Basis Set <=

  Basis Set: 
    Number of shells: 280
    Number of basis function: 872
    Number of Cartesian functions: 1048
    Spherical Harmonics?: true
    Max angular momentum: 4

  Minimum eigenvalue in the overlap matrix is 3.2883032918E-05.
  Using Symmetric Orthogonalization.
  SCF Guess: Core (One-Electron) Hamiltonian.

  ==> Iterations <==

                           Total Energy        Delta E     RMS |[F,P]|

   @DF-RHF iter   1:  -246.47282713599162   -2.46473e+02   4.04580e-02 
   @DF-RHF iter   2:  -190.84375868794297    5.56291e+01   3.23171e-02 DIIS
   @DF-RHF iter   3:  -265.61567460926318   -7.47719e+01   2.50052e-02 DIIS
   @DF-RHF iter   4:  -263.38027281917613    2.23540e+00   2.98051e-02 DIIS
   @DF-RHF iter   5:  -334.60890927030465   -7.12286e+01   1.07595e-02 DIIS
   @DF-RHF iter   6:  -339.31930410407978   -4.71039e+00   7.88224e-03 DIIS
   @DF-RHF iter   7:  -344.36763804766730   -5.04833e+00   2.56386e-03 DIIS
   @DF-RHF iter   8:  -344.62757167658646   -2.59934e-01   1.03017e-03 DIIS
   @DF-RHF iter   9:  -344.69906300485269   -7.14913e-02   4.54466e-04 DIIS
   @DF-RHF iter  10:  -344.71497351842896   -1.59105e-02   8.27285e-05 DIIS
   @DF-RHF iter  11:  -344.71586233693785   -8.88819e-04   3.78181e-05 DIIS
   @DF-RHF iter  12:  -344.71603748857962   -1.75152e-04   1.60130e-05 DIIS
   @DF-RHF iter  13:  -344.71609679589932   -5.93073e-05   7.50217e-06 DIIS
   @DF-RHF iter  14:  -344.71611238285578   -1.55870e-05   3.09757e-06 DIIS
   @DF-RHF iter  15:  -344.71611610703843   -3.72418e-06   1.21026e-06 DIIS
   @DF-RHF iter  16:  -344.71611661131641   -5.04278e-07   4.12543e-07 DIIS
   @DF-RHF iter  17:  -344.71611663781101   -2.64946e-08   1.10180e-07 DIIS
   @DF-RHF iter  18:  -344.71611664000346   -2.19245e-09   3.50820e-08 DIIS
   @DF-RHF iter  19:  -344.71611664028222   -2.78760e-10   1.43631e-08 DIIS
   @DF-RHF iter  20:  -344.71611664034577   -6.35509e-11   8.00915e-09 DIIS

  ==> Post-Iterations <==

    Orbital Energies (a.u.)
    -----------------------

    Doubly Occupied:                                                      

       1A    -20.571028     2A    -11.287055     3A    -11.239121  
       4A    -11.230839     5A    -11.219589     6A    -11.219379  
       7A    -11.217511     8A    -11.215676     9A     -1.405365  
      10A     -1.153886    11A     -1.046033    12A     -1.006901  
      13A     -0.938095    14A     -0.829767    15A     -0.816471  
      16A     -0.721559    17A     -0.680195    18A     -0.660866  
      19A     -0.624273    20A     -0.594891    21A     -0.576968  
      22A     -0.569747    23A     -0.552832    24A     -0.516552  
      25A     -0.506786    26A     -0.483977    27A     -0.465816  
      28A     -0.332958    29A     -0.320097  

    Virtual:                                                              

      30A      0.131610    31A      0.135287    32A      0.143442  
      33A      0.154529    34A      0.163751    35A      0.188125  
      36A      0.200000    37A      0.218054    38A      0.228447  
      39A      0.248875    40A      0.300364    41A      0.343491  
      42A      0.351415    43A      0.361136    44A      0.375559  
      45A      0.387611    46A      0.431685    47A      0.441223  
      48A      0.454178    49A      0.464393    50A      0.482061  
      51A      0.486081    52A      0.496733    53A      0.502794  
      54A      0.525646    55A      0.540830    56A      0.551624  
      57A      0.557509    58A      0.564805    59A      0.590648  
      60A      0.600904    61A      0.601778    62A      0.605413  
      63A      0.613593    64A      0.619731    65A      0.641253  
      66A      0.643148    67A      0.648215    68A      0.670016  
      69A      0.677511    70A      0.682084    71A      0.700320  
      72A      0.715886    73A      0.733792    74A      0.739021  
      75A      0.764983    76A      0.772759    77A      0.798392  
      78A      0.805430    79A      0.820965    80A      0.847162  
      81A      0.867918    82A      0.891591    83A      0.904764  
      84A      0.929100    85A      0.944199    86A      0.946638  
      87A      0.968973    88A      0.979061    89A      0.999452  
      90A      1.008086    91A      1.018782    92A      1.043942  
      93A      1.054774    94A      1.081320    95A      1.094311  
      96A      1.109970    97A      1.130742    98A      1.134654  
      99A      1.150080   100A      1.163242   101A      1.205705  
     102A      1.224972   103A      1.235150   104A      1.243577  
     105A      1.261560   106A      1.271326   107A      1.281367  
     108A      1.302632   109A      1.321698   110A      1.339740  
     111A      1.368484   112A      1.392580   113A      1.414375  
     114A      1.416508   115A      1.443584   116A      1.463364  
     117A      1.467517   118A      1.491226   119A      1.508258  
     120A      1.530957   121A      1.541057   122A      1.544685  
     123A      1.552762   124A      1.575268   125A      1.579597  
     126A      1.590424   127A      1.596924   128A      1.615381  
     129A      1.634849   130A      1.642591   131A      1.681812  
     132A      1.684622   133A      1.707511   134A      1.730840  
     135A      1.762120   136A      1.767767   137A      1.835606  
     138A      1.846702   139A      1.855741   140A      1.925208  
     141A      2.007492   142A      2.039941   143A      2.087886  
     144A      2.124297   145A      2.186745   146A      2.233028  
     147A      2.239651   148A      2.256377   149A      2.333929  
     150A      2.367152   151A      2.399394   152A      2.421913  
     153A      2.443247   154A      2.460912   155A      2.519551  
     156A      2.526512   157A      2.551775   158A      2.569073  
     159A      2.589834   160A      2.606817   161A      2.642293  
     162A      2.687921   163A      2.703355   164A      2.730512  
     165A      2.743243   166A      2.770169   167A      2.779307  
     168A      2.783570   169A      2.817296   170A      2.837097  
     171A      2.849058   172A      2.870884   173A      2.881739  
     174A      2.934343   175A      2.968908   176A      2.975308  
     177A      2.986121   178A      3.002743   179A      3.015278  
     180A      3.033936   181A      3.044004   182A      3.054217  
     183A      3.074255   184A      3.086234   185A      3.113664  
     186A      3.125455   187A      3.149593   188A      3.152565  
     189A      3.176180   190A      3.192218   191A      3.218497  
     192A      3.228504   193A      3.234741   194A      3.260304  
     195A      3.275896   196A      3.286803   197A      3.303480  
     198A      3.316946   199A      3.329816   200A      3.340687  
     201A      3.357017   202A      3.364380   203A      3.374363  
     204A      3.398836   205A      3.409280   206A      3.432011  
     207A      3.434098   208A      3.443946   209A      3.463446  
     210A      3.467497   211A      3.483833   212A      3.498491  
     213A      3.507883   214A      3.515818   215A      3.543350  
     216A      3.562515   217A      3.577196   218A      3.611859  
     219A      3.628732   220A      3.634791   221A      3.653110  
     222A      3.660761   223A      3.674125   224A      3.687368  
     225A      3.707413   226A      3.720218   227A      3.731315  
     228A      3.754141   229A      3.763371   230A      3.765605  
     231A      3.775271   232A      3.790246   233A      3.810154  
     234A      3.843913   235A      3.863676   236A      3.895176  
     237A      3.920611   238A      3.945080   239A      3.961965  
     240A      4.000185   241A      4.032828   242A      4.055620  
     243A      4.061235   244A      4.078915   245A      4.083979  
     246A      4.109600   247A      4.115449   248A      4.122550  
     249A      4.131964   250A      4.148282   251A      4.152525  
     252A      4.175740   253A      4.191281   254A      4.201795  
     255A      4.208386   256A      4.224328   257A      4.249116  
     258A      4.269870   259A      4.286811   260A      4.312289  
     261A      4.328757   262A      4.337047   263A      4.346681  
     264A      4.371969   265A      4.396496   266A      4.414473  
     267A      4.434871   268A      4.448880   269A      4.456534  
     270A      4.470489   271A      4.473070   272A      4.506875  
     273A      4.542893   274A      4.557788   275A      4.560480  
     276A      4.579446   277A      4.609056   278A      4.649935  
     279A      4.663592   280A      4.685723   281A      4.693614  
     282A      4.709990   283A      4.715759   284A      4.734452  
     285A      4.748078   286A      4.760278   287A      4.797490  
     288A      4.823872   289A      4.837386   290A      4.858772  
     291A      4.924264   292A      4.924958   293A      5.055008  
     294A      5.061124   295A      5.098969   296A      5.110274  
     297A      5.137669   298A      5.148407   299A      5.160780  
     300A      5.196402   301A      5.222688   302A      5.252212  
     303A      5.269181   304A      5.308502   305A      5.348312  
     306A      5.354573   307A      5.366334   308A      5.399591  
     309A      5.455921   310A      5.484972   311A      5.506299  
     312A      5.542340   313A      5.564129   314A      5.593002  
     315A      5.652130   316A      5.675093   317A      5.711314  
     318A      5.730567   319A      5.755167   320A      5.815026  
     321A      5.850833   322A      5.901786   323A      5.946579  
     324A      6.086504   325A      6.113122   326A      6.133321  
     327A      6.213881   328A      6.267383   329A      6.302039  
     330A      6.305307   331A      6.467826   332A      6.511709  
     333A      6.593355   334A      6.741894   335A      6.996706  
     336A      7.039970   337A      7.148443   338A      7.221650  
     339A      7.265751   340A      7.385437   341A      7.508199  
     342A      7.576521   343A      7.711306   344A      8.133066  
     345A      9.272525   346A     12.808566   347A     13.462171  
     348A     13.575771   349A     13.858123   350A     14.217730  
     351A     14.712111   352A     16.515752  

    Final Occupation by Irrep:
              A 
    DOCC [    29 ]

  Energy converged.

  @DF-RHF Final Energy:  -344.71611664034577

   => Energetics <=

    Nuclear Repulsion Energy =            346.3952167573383463
    One-Electron Energy =               -1154.2142051642995284
    Two-Electron Energy =                 463.1028717666151806
    DFT Exchange-Correlation Energy =       0.0000000000000000
    Empirical Dispersion Energy =           0.0000000000000000
    PCM Polarization Energy =               0.0000000000000000
    EFP Energy =                            0.0000000000000000
    Total Energy =                       -344.7161166403459447

    Alert: EFP and PCM quantities not currently incorporated into SCF psivars.

Properties will be evaluated at   0.000000,   0.000000,   0.000000 Bohr
  ==> Properties <==


Properties computed using the SCF density matrix

  Nuclear Dipole Moment: (a.u.)
     X:     3.7663      Y:     2.1495      Z:    -3.4201

  Electronic Dipole Moment: (a.u.)
     X:    -3.8989      Y:    -1.6051      Z:     3.2914

  Dipole Moment: (a.u.)
     X:    -0.1326      Y:     0.5443      Z:    -0.1286     Total:     0.5748

  Dipole Moment: (Debye)
     X:    -0.3370      Y:     1.3836      Z:    -0.3269     Total:     1.4611


  Saving occupied orbitals to File 180.

*** tstop() called on cx1-28-12-4 at Fri Sep  9 20:42:03 2016
Module time:
	user time   =      61.48 seconds =       1.02 minutes
	system time =       0.88 seconds =       0.01 minutes
	total time  =         18 seconds =       0.30 minutes
Total time:
	user time   =      61.48 seconds =       1.02 minutes
	system time =       0.88 seconds =       0.01 minutes
	total time  =         18 seconds =       0.30 minutes

*** tstart() called on cx1-28-12-4
*** at Fri Sep  9 20:42:03 2016


         ------------------------------------------------------------
                                   SCF GRAD                          
                          Rob Parrish, Justin Turney,                
                       Andy Simmonett, and Alex Sokolov              
         ------------------------------------------------------------

  ==> Geometry <==

    Molecular point group: c1
    Full point group: C1

    Geometry (in Angstrom), charge = 0, multiplicity = 1:

       Center              X                  Y                   Z               Mass       
    ------------   -----------------  -----------------  -----------------  -----------------
           H         -2.872942116607    -0.883291487646     0.389815590952     1.007825032070
           O         -2.079500116607    -1.387191487646     0.386046590952    15.994914619560
           C         -0.998578116607    -0.579943487646     0.385482590952    12.000000000000
           C         -0.641390116607     0.179562512354     1.480918590952    12.000000000000
           C         -0.241007116607    -0.534336487646    -0.774716409048    12.000000000000
           H         -1.228359116607     0.147243512354     2.380630590952     1.007825032070
           C          0.481028883393     0.985910512354     1.402138590952    12.000000000000
           H         -0.547157116607    -1.135285487646    -1.609023409048     1.007825032070
           C          0.879292883393     0.268488512354    -0.850719409048    12.000000000000
           H          0.760396883393     1.580566512354     2.251319590952     1.007825032070
           C          1.237400883393     1.036104512354     0.253143590952    12.000000000000
           C          1.716730883393     0.300051512354    -2.104252409048    12.000000000000
           H          2.103465883393     1.668830512354     0.207862590952     1.007825032070
           H          2.002602883393     1.313983512354    -2.355334409048     1.007825032070
           H          1.182330883393    -0.119097487646    -2.945962409048     1.007825032070
           H          2.627829883393    -0.272988487646    -1.969469409048     1.007825032070

  Nuclear repulsion =  346.395216757338346

  ==> Basis Set <==

  Basis Set: CC-PVTZ
    Number of shells: 128
    Number of basis function: 352
    Number of Cartesian functions: 400
    Spherical Harmonics?: true
    Max angular momentum: 3

  ==> DFJKGrad: Density-Fitted SCF Gradients <==

    Gradient:                    1
    J tasked:                  Yes
    K tasked:                  Yes
    wK tasked:                  No
    OpenMP threads:              4
    Integrals threads:           4
    Memory (MB):              1430
    Schwarz Cutoff:          0E+00
    Fitting Condition:       1E-12

   => Auxiliary Basis Set <=

  Basis Set: 
    Number of shells: 280
    Number of basis function: 872
    Number of Cartesian functions: 1048
    Spherical Harmonics?: true
    Max angular momentum: 4


  -Total Gradient:
     Atom            X                  Y                   Z
    ------   -----------------  -----------------  -----------------
       1        0.001094342053    -0.000226090340    -0.002219784961
       2        0.011093996845     0.008817242571    -0.003321325745
       3       -0.009928288996    -0.009486449975     0.006846809818
       4        0.002080075836     0.001119590151    -0.000591700693
       5       -0.001713025650    -0.001569818690    -0.004068434334
       6       -0.000106415133     0.001132362133     0.001340374401
       7        0.000237287820    -0.000561946847    -0.001255842131
       8        0.000083941550    -0.000013485238    -0.000068243862
       9       -0.003615959034    -0.000693695181     0.001123600675
      10       -0.000093274493    -0.000039430838     0.000009815451
      11        0.001635441348     0.001880488289     0.001724103406
      12       -0.000435785082    -0.000362954621    -0.000153603113
      13       -0.000151593868    -0.000013145748     0.000094522855
      14       -0.000112404811    -0.000030338801     0.000242057144
      15       -0.000005643450     0.000012459011     0.000083057122
      16       -0.000062694940     0.000035214121     0.000214593965


*** tstop() called on cx1-28-12-4 at Fri Sep  9 20:42:31 2016
Module time:
	user time   =     106.47 seconds =       1.77 minutes
	system time =       0.73 seconds =       0.01 minutes
	total time  =         28 seconds =       0.47 minutes
Total time:
	user time   =     167.96 seconds =       2.80 minutes
	system time =       1.61 seconds =       0.03 minutes
	total time  =         46 seconds =       0.77 minutes
CURRENT ENERGY: -344.7161166403

			-----------------------------------------
			 OPTKING 2.0: for geometry optimizations 
			  - R.A. King,  Bethel University        
			-----------------------------------------

	Internal coordinates to be generated automatically.
	Detected frag with atoms:  1 2 3 4 5 6 7 8 9 10 11 12 13 14 15 16
	---Fragment 1 Bond Connectivity---
	 1 : 2
	 2 : 1 3
	 3 : 2 4 5
	 4 : 3 6 7
	 5 : 3 8 9
	 6 : 4
	 7 : 4 10 11
	 8 : 5
	 9 : 5 11 12
	 10 : 7
	 11 : 7 9 13
	 12 : 9 14 15 16
	 13 : 11
	 14 : 12
	 15 : 12
	 16 : 12

	Assuming in current code that numbering for constraints corresponds to unified fragment.
	Frozen dihedral atom list: 
	     5     3     2     1
	---Fragment 1 Geometry and Gradient---
	 H          -5.4290737960       -1.6691790072        0.7366447092
	 O          -3.9296857137       -2.6214120055        0.7295223314
	 C          -1.8870391627       -1.0959343642        0.7284565259
	 C          -1.2120516647        0.3393239721        2.7985305620
	 C          -0.4554374465       -1.0097496245       -1.4640018438
	 H          -2.3212623232        0.2782499132        4.4987398405
	 C           0.9090128516        1.8631008599        2.6496579372
	 H          -1.0339771020       -2.1453786543       -3.0406135845
	 C           1.6616227402        0.5073697582       -1.6076266990
	 H           1.4369418619        2.9868378432        4.2543774645
	 C           2.3383487862        1.9579537734        0.4783720592
	 C           3.2441512135        0.5670151841       -3.9764607676
	 H           3.9749744495        3.1536326306        0.3928033702
	 H           3.7843710025        2.4830689815       -4.4509369845
	 H           2.2342815681       -0.2250616348       -5.5670621509
	 H           4.9658788034       -0.5158734791       -3.7217578102
	             0.0010943421       -0.0002260903       -0.0022197850
	             0.0110939968        0.0088172426       -0.0033213257
	            -0.0099282890       -0.0094864500        0.0068468098
	             0.0020800758        0.0011195902       -0.0005917007
	            -0.0017130257       -0.0015698187       -0.0040684343
	            -0.0001064151        0.0011323621        0.0013403744
	             0.0002372878       -0.0005619468       -0.0012558421
	             0.0000839416       -0.0000134852       -0.0000682439
	            -0.0036159590       -0.0006936952        0.0011236007
	            -0.0000932745       -0.0000394308        0.0000098155
	             0.0016354413        0.0018804883        0.0017241034
	            -0.0004357851       -0.0003629546       -0.0001536031
	            -0.0001515939       -0.0000131457        0.0000945229
	            -0.0001124048       -0.0000303388        0.0002420571
	            -0.0000056435        0.0000124590        0.0000830571
	            -0.0000626949        0.0000352141        0.0002145940

	Previous optimization step data not found.  Starting new optimization.

	---Fragment 1 Intrafragment Coordinates---
	 - Coordinate -           - BOHR/RAD -       - ANG/DEG -
	 R(1,2)           =         1.776222	       0.939936
	 R(2,3)           =         2.549409	       1.349089
	 R(3,4)           =         2.607831	       1.380005
	 R(3,5)           =         2.619883	       1.386382
	 R(4,6)           =         2.030958	       1.074737
	 R(4,7)           =         2.615908	       1.384279
	 R(5,8)           =         2.027330	       1.072817
	 R(5,9)           =         2.608491	       1.380354
	 R(7,10)          =         2.028945	       1.073672
	 R(7,11)          =         2.601246	       1.376520
	 R(9,11)          =         2.629362	       1.391398
	 R(9,12)          =         2.849444	       1.507861
	 R(11,13)         =         2.028673	       1.073528
	 R(12,14)         =         2.046516	       1.082970
	 R(12,15)         =         2.043829	       1.081548
	 R(12,16)         =         2.049846	       1.084732
	 B(1,2,3)         =         1.934316	     110.828167
	 B(2,3,4)         =         2.136925	     122.436785
	 B(2,3,5)         =         2.046374	     117.248609
	 B(3,4,6)         =         2.102043	     120.438190
	 B(3,4,7)         =         2.077484	     119.031043
	 B(3,5,8)         =         2.067397	     118.453102
	 B(3,5,9)         =         2.104472	     120.577336
	 B(4,3,5)         =         2.099886	     120.314586
	 B(4,7,10)        =         2.081267	     119.247816
	 B(4,7,11)        =         2.110967	     120.949475
	 B(5,9,11)        =         2.078381	     119.082468
	 B(5,9,12)        =         2.104468	     120.577119
	 B(6,4,7)         =         2.103654	     120.530496
	 B(7,11,9)        =         2.095177	     120.044800
	 B(7,11,13)       =         2.094386	     119.999461
	 B(8,5,9)         =         2.111316	     120.969501
	 B(9,11,13)       =         2.093622	     119.955685
	 B(9,12,14)       =         1.937932	     111.035306
	 B(9,12,15)       =         1.943839	     111.373792
	 B(9,12,16)       =         1.930639	     110.617457
	 B(10,7,11)       =         2.090949	     119.802568
	 B(11,9,12)       =         2.100233	     120.334506
	 B(14,12,15)      =         1.888975	     108.230269
	 B(14,12,16)      =         1.877264	     107.559280
	 B(15,12,16)      =         1.882819	     107.877575
	 D(1,2,3,4)       =         1.220837	      69.948835
	*D(1,2,3,5)       =        -1.919862	    -109.999997
	 D(2,3,4,6)       =        -0.001247	      -0.071434
	 D(2,3,4,7)       =        -3.139552	    -179.883076
	 D(2,3,5,8)       =         0.001548	       0.088682
	 D(2,3,5,9)       =         3.141593	     180.000000
	 D(3,4,7,10)      =         3.138353	     179.814374
	 D(3,4,7,11)      =        -0.000845	      -0.048392
	 D(3,5,9,11)      =        -0.003119	      -0.178685
	 D(3,5,9,12)      =         3.123095	     178.940134
	 D(4,3,5,8)       =        -3.139172	    -179.861293
	 D(4,3,5,9)       =         0.000877	       0.050272
	 D(4,7,11,9)      =        -0.001421	      -0.081415
	 D(4,7,11,13)     =         3.138706	     179.834623
	 D(5,3,4,6)       =         3.139426	     179.875870
	 D(5,3,4,7)       =         0.001121	       0.064229
	 D(5,9,11,7)      =         0.003382	       0.193773
	 D(5,9,11,13)     =        -3.136746	    -179.722302
	 D(5,9,12,14)     =         2.393381	     137.130644
	 D(5,9,12,15)     =         0.286892	      16.437725
	 D(5,9,12,16)     =        -1.806876	    -103.526386
	 D(6,4,7,10)      =         0.000051	       0.002911
	 D(6,4,7,11)      =        -3.139147	    -179.859855
	 D(7,11,9,12)     =        -3.122869	    -178.927237
	 D(8,5,9,11)      =         3.136891	     179.730635
	 D(8,5,9,12)      =        -0.020081	      -1.150545
	 D(9,11,7,10)     =        -3.140605	    -179.943426
	 D(10,7,11,13)    =        -0.000478	      -0.027388
	 D(11,9,12,14)    =        -0.763784	     -43.761594
	 D(11,9,12,15)    =        -2.870273	    -164.454514
	 D(11,9,12,16)    =         1.319144	      75.581376
	 D(12,9,11,13)    =         0.020188	       1.156688

	Current energy   :      -344.7161166403

	Generating empirical Hessian (Schlegel '84) for each fragment.
	Taking RFO optimization step.
	Going to follow RFO solution 1.
	Using RFO vector 1.
	Norm of target step-size    0.09377
	Projected energy change by RFO approximation:        -0.0006572089

	Back-transformation to cartesian coordinates...
	Successfully converged to displaced geometry.

	Back-transformation to cartesian coordinates to adjust frozen coordinates...
	Successfully converged to displaced geometry.

	--- Internal Coordinate Step in ANG or DEG, aJ/ANG or AJ/DEG ---
	 ---------------------------------------------------------------------------
	   Coordinate                Previous        Force       Change         New 
	   ----------                --------       ------       ------       ------
	    1 R(1,2)          =      0.939936     0.008683     0.000927     0.940864
	    2 R(2,3)          =      1.349089     0.122827     0.014261     1.363350
	    3 R(3,4)          =      1.380005    -0.018883    -0.002502     1.377502
	    4 R(3,5)          =      1.386382     0.003538     0.000447     1.386830
	    5 R(4,6)          =      1.074737    -0.009443    -0.001651     1.073086
	    6 R(4,7)          =      1.384279     0.002178     0.000276     1.384555
	    7 R(5,8)          =      1.072817    -0.000302    -0.000052     1.072764
	    8 R(5,9)          =      1.380354     0.015095     0.001986     1.382340
	    9 R(7,10)         =      1.073672     0.000316     0.000055     1.073727
	   10 R(7,11)         =      1.376520     0.010773     0.001412     1.377932
	   11 R(9,11)         =      1.391398    -0.013378    -0.001782     1.389616
	   12 R(9,12)         =      1.507861     0.005525     0.001120     1.508981
	   13 R(11,13)        =      1.073528     0.001104     0.000192     1.073720
	   14 R(12,14)        =      1.082970     0.000941     0.000169     1.083139
	   15 R(12,15)        =      1.081548     0.000549     0.000098     1.081646
	   16 R(12,16)        =      1.084732     0.000367     0.000066     1.084798
	   17 B(1,2,3)        =    110.828167     0.000053     0.248594   111.076761
	   18 B(2,3,4)        =    122.436785    -0.000533    -1.590839   120.845946
	   19 B(2,3,5)        =    117.248609     0.000586     1.763683   119.012292
	   20 B(3,4,6)        =    120.438190    -0.000111    -0.488701   119.949489
	   21 B(3,4,7)        =    119.031043     0.000029     0.069912   119.100954
	   22 B(3,5,8)        =    118.453102    -0.000072    -0.245957   118.207145
	   23 B(3,5,9)        =    120.577336     0.000129     0.417782   120.995118
	   24 B(4,3,5)        =    120.314586    -0.000053    -0.196914   120.117672
	   25 B(4,7,10)       =    119.247816     0.000017     0.070306   119.318122
	   26 B(4,7,11)       =    120.949475    -0.000019    -0.075807   120.873668
	   27 B(5,9,11)       =    119.082468    -0.000165    -0.494955   118.587512
	   28 B(5,9,12)       =    120.577119     0.000114     0.344504   120.921623
	   29 B(6,4,7)        =    120.530496     0.000082     0.416582   120.947078
	   30 B(7,11,9)       =    120.044800     0.000079     0.273020   120.317820
	   31 B(7,11,13)      =    119.999461    -0.000031    -0.096763   119.902699
	   32 B(8,5,9)        =    120.969501    -0.000057    -0.176281   120.793220
	   33 B(9,11,13)      =    119.955685    -0.000048    -0.176492   119.779194
	   34 B(9,12,14)      =    111.035306     0.000023     0.119018   111.154324
	   35 B(9,12,15)      =    111.373792    -0.000005    -0.042725   111.331067
	   36 B(9,12,16)      =    110.617457     0.000019     0.096417   110.713874
	   37 B(10,7,11)      =    119.802568     0.000002     0.004050   119.806618
	   38 B(11,9,12)      =    120.334506     0.000051     0.154752   120.489258
	   39 B(14,12,15)     =    108.230269    -0.000013    -0.073496   108.156773
	   40 B(14,12,16)     =    107.559280    -0.000014    -0.030204   107.529075
	   41 B(15,12,16)     =    107.877575    -0.000012    -0.077555   107.800021
	   42 D(1,2,3,4)      =     69.948835     0.000011     1.834472    71.783307
	   43 *D(1,2,3,5)     =   -109.999997     0.000000    -0.000000  -109.999997
	   44 D(2,3,4,6)      =     -0.071434    -0.000005    -0.836865    -0.908299
	   45 D(2,3,4,7)      =   -179.883076    -0.000010    -1.592417  -181.475493
	   46 D(2,3,5,8)      =      0.088682     0.000008     1.344300     1.432982
	   47 D(2,3,5,9)      =    180.000000     0.000013     2.200172   182.200172
	   48 D(3,4,7,10)     =    179.814374     0.000001     0.079875   179.894249
	   49 D(3,4,7,11)     =     -0.048392    -0.000003    -0.517363    -0.565756
	   50 D(3,5,9,11)     =     -0.178685    -0.000005    -0.757984    -0.936669
	   51 D(3,5,9,12)     =    178.940134    -0.000003    -0.335702   178.604433
	   52 D(4,3,5,8)      =   -179.861293    -0.000003    -0.475731  -180.337024
	   53 D(4,3,5,9)      =      0.050272     0.000003     0.379893     0.430165
	   54 D(4,7,11,9)     =     -0.081415     0.000001     0.130725     0.049310
	   55 D(4,7,11,13)    =    179.834623     0.000003     0.410288   180.244911
	   56 D(5,3,4,6)      =    179.875870     0.000006     1.018765   180.894635
	   57 D(5,3,4,7)      =      0.064229     0.000001     0.263212     0.327441
	   58 D(5,9,11,7)     =      0.193773     0.000003     0.502151     0.695924
	   59 D(5,9,11,13)    =   -179.722302     0.000001     0.222867  -179.499435
	   60 D(5,9,12,14)    =    137.130644    -0.000002    -0.139420   136.991224
	   61 D(5,9,12,15)    =     16.437725    -0.000001    -0.098256    16.339468
	   62 D(5,9,12,16)    =   -103.526386     0.000001    -0.036719  -103.563105
	   63 D(6,4,7,10)     =      0.002911    -0.000004    -0.681691    -0.678781
	   64 D(6,4,7,11)     =   -179.859855    -0.000008    -1.278930  -181.138785
	   65 D(7,11,9,12)    =   -178.927237     0.000001     0.080008  -178.847229
	   66 D(8,5,9,11)     =    179.730635     0.000001     0.119735   179.850370
	   67 D(8,5,9,12)     =     -1.150545     0.000003     0.542017    -0.608528
	   68 D(9,11,7,10)    =   -179.943426    -0.000003    -0.469498  -180.412924
	   69 D(10,7,11,13)   =     -0.027388    -0.000001    -0.189935    -0.217323
	   70 D(11,9,12,14)   =    -43.761594    -0.000000     0.285206   -43.476389
	   71 D(11,9,12,15)   =   -164.454514     0.000001     0.326369  -164.128144
	   72 D(11,9,12,16)   =     75.581376     0.000002     0.387906    75.969282
	   73 D(12,9,11,13)   =      1.156688    -0.000001    -0.199276     0.957411
	 ---------------------------------------------------------------------------

  ==> Convergence Check <==

  Measures of convergence in internal coordinates in au.
  Criteria marked as inactive (o), active & met (*), and active & unmet ( ).
  --------------------------------------------------------------------------------------------- ~
   Step     Total Energy     Delta E     MAX Force     RMS Force      MAX Disp      RMS Disp    ~
  --------------------------------------------------------------------------------------------- ~
    Convergence Criteria    1.00e-06 *    3.00e-04 *             o    1.20e-03 *             o  ~
  --------------------------------------------------------------------------------------------- ~
      1    -344.71611664   -3.45e+02      1.49e-02      2.24e-03 o    3.84e-02      1.10e-02 o  ~
  ---------------------------------------------------------------------------------------------

	Writing optimization data to binary file.
	Structure for next step:
	Cartesian Geometry (in Angstrom)
	    H    -2.8917457551  -0.9060146776   0.4252638274
	    O    -2.0892659623  -1.3971684233   0.4209793746
	    C    -1.0075403545  -0.5685801248   0.3758759757
	    C    -0.6479123232   0.1837281229   1.4723304709
	    C    -0.2460280270  -0.5190693241  -0.7821153140
	    H    -1.2308790431   0.1324107994   2.3717914422
	    C     0.4751858447   0.9899159447   1.3967969778
	    H    -0.5509371836  -1.1216297847  -1.6156467081
	    C     0.8849037790   0.2722808218  -0.8570943341
	    H     0.7577158924   1.5790955925   2.2488140322
	    C     1.2359385784   1.0369103742   0.2488668030
	    C     1.7297327427   0.3009877577  -2.1070799672
	    H     2.1061285475   1.6646301473   0.2087243469
	    H     2.0252497924   1.3128698564  -2.3559850693
	    H     1.1958525035  -0.1118176236  -2.9523735718
	    H     2.6357474373  -0.2799420651  -1.9712680962
			--------------------------
			 OPTKING Finished Execution 
			--------------------------

    Structure for next step:
    Molecular point group: c1
    Full point group: C1

    Geometry (in Angstrom), charge = 0, multiplicity = 1:

    H           -2.889455395921    -0.908734041291     0.424936855527
    O           -2.086975664491    -1.399887749525     0.420652402992
    C           -1.005250139263    -0.571299514246     0.375549007581
    C           -0.645622135451     0.181008675926     1.472003419001
    C           -0.243737869885    -0.521788717338    -0.782442193688
    H           -1.228588810812     0.129691356355     2.371464321695
    C            0.477475946720     0.987196436229     1.396469931659
    H           -0.548647003213    -1.124349131928    -1.615973524178
    C            0.887193849749     0.269561368104    -0.857421208034
    H            0.760005972842     1.576376039001     2.248486921075
    C            1.238228622378     1.034190862095     0.248539844556
    C            1.732022748913     0.298268301801    -2.107406745736
    H            2.108418524960     1.661910587252     0.208397391578
    H            2.027539776025     1.310150323182    -2.356311828846
    H            1.198142550448    -0.114537047945    -2.952700285759
    H            2.638037374333    -0.282661476642    -1.971594885046

gradient() will perform analytic gradient computation.

*** tstart() called on cx1-28-12-4
*** at Fri Sep  9 20:42:32 2016


         ---------------------------------------------------------
                                   SCF
            by Justin Turney, Rob Parrish, and Andy Simmonett
                              RHF Reference
                        4 Threads,   2000 MiB Core
         ---------------------------------------------------------

  ==> Geometry <==

    Molecular point group: c1
    Full point group: C1

    Geometry (in Angstrom), charge = 0, multiplicity = 1:

       Center              X                  Y                   Z               Mass       
    ------------   -----------------  -----------------  -----------------  -----------------
           H         -2.889455395921    -0.908734041291     0.424936855527     1.007825032070
           O         -2.086975664491    -1.399887749525     0.420652402992    15.994914619560
           C         -1.005250139263    -0.571299514246     0.375549007581    12.000000000000
           C         -0.645622135451     0.181008675926     1.472003419001    12.000000000000
           C         -0.243737869885    -0.521788717338    -0.782442193688    12.000000000000
           H         -1.228588810812     0.129691356355     2.371464321695     1.007825032070
           C          0.477475946720     0.987196436229     1.396469931659    12.000000000000
           H         -0.548647003213    -1.124349131928    -1.615973524178     1.007825032070
           C          0.887193849749     0.269561368104    -0.857421208034    12.000000000000
           H          0.760005972842     1.576376039001     2.248486921075     1.007825032070
           C          1.238228622378     1.034190862095     0.248539844556    12.000000000000
           C          1.732022748913     0.298268301801    -2.107406745736    12.000000000000
           H          2.108418524960     1.661910587252     0.208397391578     1.007825032070
           H          2.027539776025     1.310150323182    -2.356311828846     1.007825032070
           H          1.198142550448    -0.114537047945    -2.952700285759     1.007825032070
           H          2.638037374333    -0.282661476642    -1.971594885046     1.007825032070

  Running in c1 symmetry.

  Rotational constants: A =      0.12463  B =      0.06029  C =      0.04107 [cm^-1]
  Rotational constants: A =   3736.45382  B =   1807.58210  C =   1231.17039 [MHz]
  Nuclear repulsion =  345.794386362795819

  Charge       = 0
  Multiplicity = 1
  Electrons    = 58
  Nalpha       = 29
  Nbeta        = 29

  ==> Algorithm <==

  SCF Algorithm Type is DF.
  DIIS enabled.
  MOM disabled.
  Fractional occupation disabled.
  Guess Type is READ.
  Energy threshold   = 1.00e-08
  Density threshold  = 1.00e-08
  Integral threshold = 0.00e+00

  ==> Primary Basis <==

  Basis Set: CC-PVTZ
    Number of shells: 128
    Number of basis function: 352
    Number of Cartesian functions: 400
    Spherical Harmonics?: true
    Max angular momentum: 3

  ==> Pre-Iterations <==

   -------------------------------------------------------
    Irrep   Nso     Nmo     Nalpha   Nbeta   Ndocc  Nsocc
   -------------------------------------------------------
     A        352     352       0       0       0       0
   -------------------------------------------------------
    Total     352     352      29      29      29       0
   -------------------------------------------------------

 OEINTS: Overlap, kinetic, potential, dipole, and quadrupole integrals
         stored in file 35.

  ==> Integral Setup <==

  ==> DFJK: Density-Fitted J/K Matrices <==

    J tasked:                  Yes
    K tasked:                  Yes
    wK tasked:                  No
    OpenMP threads:              4
    Integrals threads:           4
    Memory (MB):              1430
    Algorithm:                Core
    Integral Cache:           NONE
    Schwarz Cutoff:          1E-12
    Fitting Condition:       1E-12

   => Auxiliary Basis Set <=

  Basis Set: 
    Number of shells: 280
    Number of basis function: 872
    Number of Cartesian functions: 1048
    Spherical Harmonics?: true
    Max angular momentum: 4

  Minimum eigenvalue in the overlap matrix is 3.2600351684E-05.
  Using Symmetric Orthogonalization.
  SCF Guess: Reading in previously saved MOs, projecting if necessary.

  Using orbitals from previous SCF, no projection.
  Recomputing DOCC and SOCC from number of alpha and beta electrons from previous calculation.
              A 
    DOCC [    29 ]

  ==> Iterations <==

                           Total Energy        Delta E     RMS |[F,P]|

   @DF-RHF iter   0:  -344.70585637553251   -3.44706e+02   2.09993e-04 
   @DF-RHF iter   1:  -344.71648931299802   -1.06329e-02   3.35879e-05 
   @DF-RHF iter   2:  -344.71657839787923   -8.90849e-05   1.71979e-05 DIIS
   @DF-RHF iter   3:  -344.71659734153872   -1.89437e-05   6.63385e-06 DIIS
   @DF-RHF iter   4:  -344.71660258206845   -5.24053e-06   1.57917e-06 DIIS
   @DF-RHF iter   5:  -344.71660292860912   -3.46541e-07   6.58492e-07 DIIS
   @DF-RHF iter   6:  -344.71660300672494   -7.81158e-08   3.16720e-07 DIIS
   @DF-RHF iter   7:  -344.71660303079767   -2.40727e-08   1.29148e-07 DIIS
   @DF-RHF iter   8:  -344.71660303611696   -5.31929e-09   5.61046e-08 DIIS
   @DF-RHF iter   9:  -344.71660303728351   -1.16654e-09   2.08585e-08 DIIS
   @DF-RHF iter  10:  -344.71660303741038   -1.26875e-10   5.72604e-09 DIIS

  ==> Post-Iterations <==

    Orbital Energies (a.u.)
    -----------------------

    Doubly Occupied:                                                      

       1A    -20.570579     2A    -11.287522     3A    -11.240102  
       4A    -11.231091     5A    -11.220422     6A    -11.219476  
       7A    -11.218378     8A    -11.217800     9A     -1.398397  
      10A     -1.154514    11A     -1.046425    12A     -1.007224  
      13A     -0.938841    14A     -0.829803    15A     -0.814555  
      16A     -0.720271    17A     -0.680242    18A     -0.659757  
      19A     -0.622034    20A     -0.593285    21A     -0.577324  
      22A     -0.570364    23A     -0.552931    24A     -0.515560  
      25A     -0.506885    26A     -0.484795    27A     -0.466914  
      28A     -0.333173    29A     -0.321586  

    Virtual:                                                              

      30A      0.131357    31A      0.135285    32A      0.143072  
      33A      0.154115    34A      0.163663    35A      0.187923  
      36A      0.199987    37A      0.218052    38A      0.227871  
      39A      0.248253    40A      0.299290    41A      0.342892  
      42A      0.352107    43A      0.361468    44A      0.374835  
      45A      0.387661    46A      0.431969    47A      0.441060  
      48A      0.452605    49A      0.464540    50A      0.481213  
      51A      0.487073    52A      0.495200    53A      0.502896  
      54A      0.523881    55A      0.541426    56A      0.550531  
      57A      0.556117    58A      0.566922    59A      0.590467  
      60A      0.599338    61A      0.601596    62A      0.603820  
      63A      0.613405    64A      0.618757    65A      0.639553  
      66A      0.642656    67A      0.647316    68A      0.668366  
      69A      0.677464    70A      0.682536    71A      0.700594  
      72A      0.711395    73A      0.733889    74A      0.737795  
      75A      0.767778    76A      0.775348    77A      0.802050  
      78A      0.806295    79A      0.821244    80A      0.846200  
      81A      0.866966    82A      0.890551    83A      0.904927  
      84A      0.930065    85A      0.944349    86A      0.946382  
      87A      0.968349    88A      0.977365    89A      0.999155  
      90A      1.010674    91A      1.015000    92A      1.042014  
      93A      1.052763    94A      1.079956    95A      1.088367  
      96A      1.109642    97A      1.132289    98A      1.135572  
      99A      1.147713   100A      1.163974   101A      1.203645  
     102A      1.225222   103A      1.235977   104A      1.243476  
     105A      1.259916   106A      1.270640   107A      1.279637  
     108A      1.302412   109A      1.319799   110A      1.339794  
     111A      1.368824   112A      1.391243   113A      1.412863  
     114A      1.417673   115A      1.444668   116A      1.460131  
     117A      1.465081   118A      1.490636   119A      1.505833  
     120A      1.531643   121A      1.539859   122A      1.544308  
     123A      1.552941   124A      1.574610   125A      1.579829  
     126A      1.589160   127A      1.595182   128A      1.616386  
     129A      1.639516   130A      1.642346   131A      1.678828  
     132A      1.683348   133A      1.708135   134A      1.731181  
     135A      1.761611   136A      1.765973   137A      1.834244  
     138A      1.845467   139A      1.857099   140A      1.932317  
     141A      1.999377   142A      2.032090   143A      2.091498  
     144A      2.121060   145A      2.187655   146A      2.236643  
     147A      2.242413   148A      2.258879   149A      2.333541  
     150A      2.366104   151A      2.401378   152A      2.420958  
     153A      2.441003   154A      2.459107   155A      2.518502  
     156A      2.527311   157A      2.547583   158A      2.567729  
     159A      2.592782   160A      2.605948   161A      2.641625  
     162A      2.684133   163A      2.704435   164A      2.730546  
     165A      2.740118   166A      2.768087   167A      2.779744  
     168A      2.784596   169A      2.816389   170A      2.831046  
     171A      2.849233   172A      2.871620   173A      2.879459  
     174A      2.934024   175A      2.967313   176A      2.977808  
     177A      2.985310   178A      3.001697   179A      3.010972  
     180A      3.032390   181A      3.037655   182A      3.054324  
     183A      3.074186   184A      3.084023   185A      3.114298  
     186A      3.125873   187A      3.149463   188A      3.151893  
     189A      3.172387   190A      3.193206   191A      3.220829  
     192A      3.228522   193A      3.236405   194A      3.258985  
     195A      3.274293   196A      3.282395   197A      3.301149  
     198A      3.313172   199A      3.327474   200A      3.338810  
     201A      3.357471   202A      3.362939   203A      3.373678  
     204A      3.397227   205A      3.408208   206A      3.431240  
     207A      3.436191   208A      3.444987   209A      3.462345  
     210A      3.469250   211A      3.481567   212A      3.496990  
     213A      3.504223   214A      3.510697   215A      3.539519  
     216A      3.557587   217A      3.575158   218A      3.608278  
     219A      3.628549   220A      3.632396   221A      3.651285  
     222A      3.661445   223A      3.674260   224A      3.687641  
     225A      3.706195   226A      3.720555   227A      3.727818  
     228A      3.752706   229A      3.759714   230A      3.766522  
     231A      3.772194   232A      3.792088   233A      3.806012  
     234A      3.843847   235A      3.860188   236A      3.890976  
     237A      3.918910   238A      3.943813   239A      3.957048  
     240A      4.001028   241A      4.028360   242A      4.053668  
     243A      4.062534   244A      4.076513   245A      4.085073  
     246A      4.107379   247A      4.112236   248A      4.121133  
     249A      4.133246   250A      4.148632   251A      4.154105  
     252A      4.174586   253A      4.190946   254A      4.202993  
     255A      4.206148   256A      4.219471   257A      4.246056  
     258A      4.267667   259A      4.285593   260A      4.308740  
     261A      4.325793   262A      4.335043   263A      4.345507  
     264A      4.369979   265A      4.393736   266A      4.409938  
     267A      4.434671   268A      4.446231   269A      4.456067  
     270A      4.469348   271A      4.473281   272A      4.505469  
     273A      4.542282   274A      4.555647   275A      4.558990  
     276A      4.578636   277A      4.610599   278A      4.651225  
     279A      4.661964   280A      4.681891   281A      4.695032  
     282A      4.709450   283A      4.715872   284A      4.732853  
     285A      4.748886   286A      4.758292   287A      4.795586  
     288A      4.829157   289A      4.835790   290A      4.849726  
     291A      4.919916   292A      4.925937   293A      5.050023  
     294A      5.061795   295A      5.098710   296A      5.109990  
     297A      5.138776   298A      5.145536   299A      5.153115  
     300A      5.193851   301A      5.222973   302A      5.248303  
     303A      5.265488   304A      5.307274   305A      5.344401  
     306A      5.354251   307A      5.363964   308A      5.400916  
     309A      5.452625   310A      5.482088   311A      5.502653  
     312A      5.542091   313A      5.565031   314A      5.590693  
     315A      5.649806   316A      5.674209   317A      5.708008  
     318A      5.730295   319A      5.752417   320A      5.811586  
     321A      5.835788   322A      5.899678   323A      5.944111  
     324A      6.088616   325A      6.105178   326A      6.127691  
     327A      6.198725   328A      6.263705   329A      6.291388  
     330A      6.302907   331A      6.467861   332A      6.508071  
     333A      6.582691   334A      6.731191   335A      6.989309  
     336A      7.035788   337A      7.146224   338A      7.216517  
     339A      7.253726   340A      7.369143   341A      7.502338  
     342A      7.571540   343A      7.704887   344A      8.109919  
     345A      9.268068   346A     12.766244   347A     13.408025  
     348A     13.553974   349A     13.838925   350A     14.199303  
     351A     14.691927   352A     16.491253  

    Final Occupation by Irrep:
              A 
    DOCC [    29 ]

  Energy converged.

  @DF-RHF Final Energy:  -344.71660303741038

   => Energetics <=

    Nuclear Repulsion Energy =            345.7943863627958194
    One-Electron Energy =               -1153.0214776405639441
    Two-Electron Energy =                 462.5104882403575175
    DFT Exchange-Correlation Energy =       0.0000000000000000
    Empirical Dispersion Energy =           0.0000000000000000
    PCM Polarization Energy =               0.0000000000000000
    EFP Energy =                            0.0000000000000000
    Total Energy =                       -344.7166030374105503

    Alert: EFP and PCM quantities not currently incorporated into SCF psivars.

Properties will be evaluated at   0.000000,   0.000000,   0.000000 Bohr
  ==> Properties <==


Properties computed using the SCF density matrix

  Nuclear Dipole Moment: (a.u.)
     X:     3.8012      Y:     2.1006      Z:    -3.4135

  Electronic Dipole Moment: (a.u.)
     X:    -3.9077      Y:    -1.5532      Z:     3.2769

  Dipole Moment: (a.u.)
     X:    -0.1064      Y:     0.5473      Z:    -0.1365     Total:     0.5741

  Dipole Moment: (Debye)
     X:    -0.2706      Y:     1.3912      Z:    -0.3470     Total:     1.4591


  Saving occupied orbitals to File 180.

*** tstop() called on cx1-28-12-4 at Fri Sep  9 20:42:46 2016
Module time:
	user time   =      46.76 seconds =       0.78 minutes
	system time =       0.60 seconds =       0.01 minutes
	total time  =         14 seconds =       0.23 minutes
Total time:
	user time   =     216.32 seconds =       3.61 minutes
	system time =       2.28 seconds =       0.04 minutes
	total time  =         61 seconds =       1.02 minutes

*** tstart() called on cx1-28-12-4
*** at Fri Sep  9 20:42:46 2016


         ------------------------------------------------------------
                                   SCF GRAD                          
                          Rob Parrish, Justin Turney,                
                       Andy Simmonett, and Alex Sokolov              
         ------------------------------------------------------------

  ==> Geometry <==

    Molecular point group: c1
    Full point group: C1

    Geometry (in Angstrom), charge = 0, multiplicity = 1:

       Center              X                  Y                   Z               Mass       
    ------------   -----------------  -----------------  -----------------  -----------------
           H         -2.889455395921    -0.908734041291     0.424936855527     1.007825032070
           O         -2.086975664491    -1.399887749525     0.420652402992    15.994914619560
           C         -1.005250139263    -0.571299514246     0.375549007581    12.000000000000
           C         -0.645622135451     0.181008675926     1.472003419001    12.000000000000
           C         -0.243737869885    -0.521788717338    -0.782442193688    12.000000000000
           H         -1.228588810812     0.129691356355     2.371464321695     1.007825032070
           C          0.477475946720     0.987196436229     1.396469931659    12.000000000000
           H         -0.548647003213    -1.124349131928    -1.615973524178     1.007825032070
           C          0.887193849749     0.269561368104    -0.857421208034    12.000000000000
           H          0.760005972842     1.576376039001     2.248486921075     1.007825032070
           C          1.238228622378     1.034190862095     0.248539844556    12.000000000000
           C          1.732022748913     0.298268301801    -2.107406745736    12.000000000000
           H          2.108418524960     1.661910587252     0.208397391578     1.007825032070
           H          2.027539776025     1.310150323182    -2.356311828846     1.007825032070
           H          1.198142550448    -0.114537047945    -2.952700285759     1.007825032070
           H          2.638037374333    -0.282661476642    -1.971594885046     1.007825032070

  Nuclear repulsion =  345.794386362795819

  ==> Basis Set <==

  Basis Set: CC-PVTZ
    Number of shells: 128
    Number of basis function: 352
    Number of Cartesian functions: 400
    Spherical Harmonics?: true
    Max angular momentum: 3

  ==> DFJKGrad: Density-Fitted SCF Gradients <==

    Gradient:                    1
    J tasked:                  Yes
    K tasked:                  Yes
    wK tasked:                  No
    OpenMP threads:              4
    Integrals threads:           4
    Memory (MB):              1430
    Schwarz Cutoff:          0E+00
    Fitting Condition:       1E-12

   => Auxiliary Basis Set <=

  Basis Set: 
    Number of shells: 280
    Number of basis function: 872
    Number of Cartesian functions: 1048
    Spherical Harmonics?: true
    Max angular momentum: 4


  -Total Gradient:
     Atom            X                  Y                   Z
    ------   -----------------  -----------------  -----------------
       1       -0.000645639426    -0.000707074782    -0.001570860217
       2        0.001137440698     0.002229176865     0.002347464985
       3       -0.002973651220    -0.003019419433     0.002249767598
       4       -0.000464842813    -0.001056843751    -0.000760480281
       5        0.001948998669     0.002696372119    -0.001783652295
       6        0.000140856450     0.000124723698     0.000138884884
       7        0.000420444690     0.000163500728    -0.001089751207
       8       -0.000006889516     0.000089593123     0.000481931218
       9       -0.000208203029    -0.001272164428    -0.000170716359
      10       -0.000062365544    -0.000135924629     0.000188018376
      11        0.000341583421     0.000648887621     0.000567737829
      12        0.000247569854     0.000290445047    -0.000286145115
      13       -0.000096777650    -0.000123133286    -0.000162467058
      14        0.000120935092     0.000024557840    -0.000141770827
      15        0.000044389748     0.000023392133     0.000021837349
      16        0.000056150574     0.000023911135    -0.000029798882


*** tstop() called on cx1-28-12-4 at Fri Sep  9 20:43:14 2016
Module time:
	user time   =     106.32 seconds =       1.77 minutes
	system time =       0.66 seconds =       0.01 minutes
	total time  =         28 seconds =       0.47 minutes
Total time:
	user time   =     322.67 seconds =       5.38 minutes
	system time =       2.94 seconds =       0.05 minutes
	total time  =         89 seconds =       1.48 minutes
CURRENT ENERGY: -344.7166030374

			-----------------------------------------
			 OPTKING 2.0: for geometry optimizations 
			  - R.A. King,  Bethel University        
			-----------------------------------------

	Previous internal coordinate definitions found.
	---Fragment 1 Geometry and Gradient---
	 H          -5.4602793715       -1.7172584657        0.8030142807
	 O          -3.9438124519       -2.6454044634        0.7949178388
	 C          -1.8996474583       -1.0795996218        0.7096847738
	 C          -1.2200490213        0.3420568252        2.7816833286
	 C          -0.4605978223       -0.9860377750       -1.4786014609
	 H          -2.3216963824        0.2450811453        4.4814181019
	 C           0.9022987743        1.8655309038        2.6389457236
	 H          -1.0367925797       -2.1247119371       -3.0537473987
	 C           1.6765534028        0.5093971617       -1.6202912637
	 H           1.4362031480        2.9789189962        4.2490244942
	 C           2.3399129862        1.9543374985        0.4696722393
	 C           3.2730486514        0.5636454045       -3.9824216000
	 H           3.9843335857        3.1405558672        0.3938139969
	 H           3.8314949002        2.4758253037       -4.4527840402
	 H           2.2641612885       -0.2164436527       -5.5797948926
	 H           4.9851681658       -0.5341527792       -3.7257743777
	            -0.0006456394       -0.0007070748       -0.0015708602
	             0.0011374407        0.0022291769        0.0023474650
	            -0.0029736512       -0.0030194194        0.0022497676
	            -0.0004648428       -0.0010568438       -0.0007604803
	             0.0019489987        0.0026963721       -0.0017836523
	             0.0001408564        0.0001247237        0.0001388849
	             0.0004204447        0.0001635007       -0.0010897512
	            -0.0000068895        0.0000895931        0.0004819312
	            -0.0002082030       -0.0012721644       -0.0001707164
	            -0.0000623655       -0.0001359246        0.0001880184
	             0.0003415834        0.0006488876        0.0005677378
	             0.0002475699        0.0002904450       -0.0002861451
	            -0.0000967776       -0.0001231333       -0.0001624671
	             0.0001209351        0.0000245578       -0.0001417708
	             0.0000443897        0.0000233921        0.0000218373
	             0.0000561506        0.0000239111       -0.0000297989

	---Fragment 1 Intrafragment Coordinates---
	 - Coordinate -           - BOHR/RAD -       - ANG/DEG -
	 R(1,2)           =         1.777974	       0.940864
	 R(2,3)           =         2.576358	       1.363350
	 R(3,4)           =         2.603102	       1.377502
	 R(3,5)           =         2.620728	       1.386830
	 R(4,6)           =         2.027839	       1.073086
	 R(4,7)           =         2.616430	       1.384555
	 R(5,8)           =         2.027231	       1.072764
	 R(5,9)           =         2.612244	       1.382340
	 R(7,10)          =         2.029049	       1.073727
	 R(7,11)          =         2.603914	       1.377932
	 R(9,11)          =         2.625994	       1.389616
	 R(9,12)          =         2.851561	       1.508981
	 R(11,13)         =         2.029036	       1.073720
	 R(12,14)         =         2.046835	       1.083139
	 R(12,15)         =         2.044014	       1.081646
	 R(12,16)         =         2.049971	       1.084798
	 B(1,2,3)         =         1.938655	     111.076761
	 B(2,3,4)         =         2.109160	     120.845946
	 B(2,3,5)         =         2.077156	     119.012292
	 B(3,4,6)         =         2.093514	     119.949489
	 B(3,4,7)         =         2.078704	     119.100954
	 B(3,5,8)         =         2.063104	     118.207145
	 B(3,5,9)         =         2.111763	     120.995118
	 B(4,3,5)         =         2.096449	     120.117672
	 B(4,7,10)        =         2.082494	     119.318122
	 B(4,7,11)        =         2.109643	     120.873668
	 B(5,9,11)        =         2.069743	     118.587512
	 B(5,9,12)        =         2.110480	     120.921623
	 B(6,4,7)         =         2.110925	     120.947078
	 B(7,11,9)        =         2.099942	     120.317820
	 B(7,11,13)       =         2.092697	     119.902699
	 B(8,5,9)         =         2.108239	     120.793220
	 B(9,11,13)       =         2.090541	     119.779194
	 B(9,12,14)       =         1.940009	     111.154324
	 B(9,12,15)       =         1.943094	     111.331067
	 B(9,12,16)       =         1.932322	     110.713874
	 B(10,7,11)       =         2.091020	     119.806618
	 B(11,9,12)       =         2.102934	     120.489258
	 B(14,12,15)      =         1.887692	     108.156773
	 B(14,12,16)      =         1.876736	     107.529075
	 B(15,12,16)      =         1.881465	     107.800021
	 D(1,2,3,4)       =         1.252855	      71.783307
	*D(1,2,3,5)       =        -1.919862	    -109.999997
	 D(2,3,4,6)       =        -0.015853	      -0.908299
	 D(2,3,4,7)       =         3.115840	     178.524507
	 D(2,3,5,8)       =         0.025010	       1.432982
	 D(2,3,5,9)       =        -3.103192	    -177.799828
	 D(3,4,7,10)      =         3.139747	     179.894249
	 D(3,4,7,11)      =        -0.009874	      -0.565756
	 D(3,5,9,11)      =        -0.016348	      -0.936669
	 D(3,5,9,12)      =         3.117235	     178.604433
	 D(4,3,5,8)       =         3.135710	     179.662976
	 D(4,3,5,9)       =         0.007508	       0.430165
	 D(4,7,11,9)      =         0.000861	       0.049310
	 D(4,7,11,13)     =        -3.137318	    -179.755089
	 D(5,3,4,6)       =        -3.125978	    -179.105365
	 D(5,3,4,7)       =         0.005715	       0.327441
	 D(5,9,11,7)      =         0.012146	       0.695924
	 D(5,9,11,13)     =        -3.132856	    -179.499435
	 D(5,9,12,14)     =         2.390948	     136.991224
	 D(5,9,12,15)     =         0.285178	      16.339468
	 D(5,9,12,16)     =        -1.807517	    -103.563105
	 D(6,4,7,10)      =        -0.011847	      -0.678781
	 D(6,4,7,11)      =         3.121717	     178.861215
	 D(7,11,9,12)     =        -3.121473	    -178.847229
	 D(8,5,9,11)      =         3.138981	     179.850370
	 D(8,5,9,12)      =        -0.010621	      -0.608528
	 D(9,11,7,10)     =         3.134386	     179.587076
	 D(10,7,11,13)    =        -0.003793	      -0.217323
	 D(11,9,12,14)    =        -0.758806	     -43.476389
	 D(11,9,12,15)    =        -2.864577	    -164.128144
	 D(11,9,12,16)    =         1.325914	      75.969282
	 D(12,9,11,13)    =         0.016710	       0.957411

	Current energy   :      -344.7166030374

	Energy change for the previous step:
		Projected    :        -0.0006572089
		Actual       :        -0.0004863971

	Performing BFGS update.
	Previous computed or guess Hessian on step 1.
	Steps to be used in Hessian update: 1
	Taking RFO optimization step.
	Going to follow RFO solution 1.
	Using RFO vector 1.
	Norm of target step-size    0.03044
	Projected energy change by RFO approximation:        -0.0001640701

	Back-transformation to cartesian coordinates...
	Successfully converged to displaced geometry.

	Back-transformation to cartesian coordinates to adjust frozen coordinates...
	Successfully converged to displaced geometry.

	--- Internal Coordinate Step in ANG or DEG, aJ/ANG or AJ/DEG ---
	 ---------------------------------------------------------------------------
	   Coordinate                Previous        Force       Change         New 
	   ----------                --------       ------       ------       ------
	    1 R(1,2)          =      0.940864    -0.001437    -0.000073     0.940790
	    2 R(2,3)          =      1.363350     0.010625     0.002217     1.365567
	    3 R(3,4)          =      1.377502     0.008259     0.000787     1.378289
	    4 R(3,5)          =      1.386830    -0.023918    -0.003001     1.383829
	    5 R(4,6)          =      1.073086    -0.000280    -0.000169     1.072917
	    6 R(4,7)          =      1.384555    -0.006799    -0.000791     1.383764
	    7 R(5,8)          =      1.072764     0.003484     0.000560     1.073324
	    8 R(5,9)          =      1.382340     0.002173     0.000386     1.382726
	    9 R(7,10)         =      1.073727    -0.000479    -0.000074     1.073653
	   10 R(7,11)         =      1.377932     0.001787     0.000376     1.378308
	   11 R(9,11)         =      1.389616     0.000165    -0.000082     1.389534
	   12 R(9,12)         =      1.508981    -0.005195    -0.000898     1.508083
	   13 R(11,13)        =      1.073720     0.001189     0.000207     1.073927
	   14 R(12,14)        =      1.083139    -0.000729    -0.000109     1.083029
	   15 R(12,15)        =      1.081646     0.000395     0.000073     1.081719
	   16 R(12,16)        =      1.084798    -0.000250    -0.000037     1.084761
	   17 B(1,2,3)        =    111.076761    -0.000120    -0.505692   110.571069
	   18 B(2,3,4)        =    120.845946    -0.000005    -0.123600   120.722346
	   19 B(2,3,5)        =    119.012292    -0.000104    -0.150987   118.861305
	   20 B(3,4,6)        =    119.949489    -0.000009    -0.092198   119.857291
	   21 B(3,4,7)        =    119.100954    -0.000017    -0.039002   119.061953
	   22 B(3,5,8)        =    118.207145     0.000059     0.195691   118.402836
	   23 B(3,5,9)        =    120.995118    -0.000082    -0.238772   120.756347
	   24 B(4,3,5)        =    120.117672     0.000110     0.287843   120.405515
	   25 B(4,7,10)       =    119.318122     0.000048     0.162400   119.480522
	   26 B(4,7,11)       =    120.873668    -0.000066    -0.188584   120.685084
	   27 B(5,9,11)       =    118.587512     0.000032     0.058237   118.645749
	   28 B(5,9,12)       =    120.921623    -0.000046    -0.106972   120.814651
	   29 B(6,4,7)        =    120.947078     0.000026     0.130947   121.078026
	   30 B(7,11,9)       =    120.317820     0.000024     0.124834   120.442654
	   31 B(7,11,13)      =    119.902699    -0.000025    -0.117557   119.785142
	   32 B(8,5,9)        =    120.793220     0.000023     0.046320   120.839540
	   33 B(9,11,13)      =    119.779194     0.000001    -0.007034   119.772159
	   34 B(9,12,14)      =    111.154324    -0.000017    -0.069109   111.085214
	   35 B(9,12,15)      =    111.331067     0.000001     0.000083   111.331149
	   36 B(9,12,16)      =    110.713874    -0.000002     0.004709   110.718582
	   37 B(10,7,11)      =    119.806618     0.000018     0.027552   119.834170
	   38 B(11,9,12)      =    120.489258     0.000014     0.045371   120.534629
	   39 B(14,12,15)     =    108.156773     0.000007     0.017586   108.174359
	   40 B(14,12,16)     =    107.529075     0.000010     0.039478   107.568553
	   41 B(15,12,16)     =    107.800021     0.000002     0.011123   107.811144
	   42 D(1,2,3,4)      =     71.783307    -0.000005    -0.590713    71.192594
	   43 *D(1,2,3,5)     =   -109.999997    -0.000000    -0.000000  -109.999997
	   44 D(2,3,4,6)      =     -0.908299     0.000002     0.393457    -0.514843
	   45 D(2,3,4,7)      =    178.524507     0.000003     0.366113   178.890620
	   46 D(2,3,5,8)      =      1.432982    -0.000002    -0.293588     1.139394
	   47 D(2,3,5,9)      =   -177.799828    -0.000005    -0.653097  -178.452926
	   48 D(3,4,7,10)     =    179.894249    -0.000000    -0.029381   179.864867
	   49 D(3,4,7,11)     =     -0.565756     0.000002     0.257852    -0.307903
	   50 D(3,5,9,11)     =     -0.936669     0.000002     0.335201    -0.601467
	   51 D(3,5,9,12)     =    178.604433     0.000001    -0.012693   178.591740
	   52 D(4,3,5,8)      =    179.662976     0.000002     0.287716   179.950692
	   53 D(4,3,5,9)      =      0.430165    -0.000001    -0.071793     0.358373
	   54 D(4,7,11,9)     =      0.049310    -0.000000     0.008601     0.057911
	   55 D(4,7,11,13)    =   -179.755089    -0.000001    -0.109335  -179.864424
	   56 D(5,3,4,6)      =   -179.105365    -0.000001    -0.198458  -179.303823
	   57 D(5,3,4,7)      =      0.327441    -0.000001    -0.225802     0.101639
	   58 D(5,9,11,7)     =      0.695924    -0.000002    -0.301545     0.394379
	   59 D(5,9,11,13)    =   -179.499435    -0.000001    -0.183841  -179.683276
	   60 D(5,9,12,14)    =    136.991224     0.000001     0.249189   137.240412
	   61 D(5,9,12,15)    =     16.339468     0.000001     0.273961    16.613429
	   62 D(5,9,12,16)    =   -103.563105     0.000001     0.256737  -103.306368
	   63 D(6,4,7,10)     =     -0.678781    -0.000000    -0.058389    -0.737170
	   64 D(6,4,7,11)     =    178.861215     0.000002     0.228845   179.090060
	   65 D(7,11,9,12)    =   -178.847229     0.000000     0.046065  -178.801164
	   66 D(8,5,9,11)     =    179.850370    -0.000001    -0.034177   179.816193
	   67 D(8,5,9,12)     =     -0.608528    -0.000002    -0.382071    -0.990599
	   68 D(9,11,7,10)    =    179.587076     0.000002     0.297456   179.884532
	   69 D(10,7,11,13)   =     -0.217323     0.000001     0.179520    -0.037803
	   70 D(11,9,12,14)   =    -43.476389    -0.000001    -0.105240   -43.581629
	   71 D(11,9,12,15)   =   -164.128144    -0.000000    -0.080468  -164.208612
	   72 D(11,9,12,16)   =     75.969282    -0.000001    -0.097692    75.871591
	   73 D(12,9,11,13)   =      0.957411     0.000001     0.163770     1.121181
	 ---------------------------------------------------------------------------

  ==> Convergence Check <==

  Measures of convergence in internal coordinates in au.
  Criteria marked as inactive (o), active & met (*), and active & unmet ( ).
  ---------------------------------------------------------------------------------------------
   Step     Total Energy     Delta E     MAX Force     RMS Force      MAX Disp      RMS Disp   
  ---------------------------------------------------------------------------------------------
    Convergence Criteria    1.00e-06 *    3.00e-04 *             o    1.20e-03 *             o
  ---------------------------------------------------------------------------------------------
      2    -344.71660304   -4.86e-04      2.90e-03      5.67e-04 o    1.14e-02      3.56e-03 o  ~
  ---------------------------------------------------------------------------------------------

	Writing optimization data to binary file.
	Structure for next step:
	Cartesian Geometry (in Angstrom)
	    H    -2.8822915262  -0.8967296478   0.4239929893
	    O    -2.0868294236  -1.3990104656   0.4176616752
	    C    -0.9990854285  -0.5745293201   0.3750221043
	    C    -0.6441452360   0.1801909503   1.4723350091
	    C    -0.2418086557  -0.5271321199  -0.7822451386
	    H    -1.2312013999   0.1282107919   2.3688914133
	    C     0.4779843590   0.9865746737   1.3990305611
	    H    -0.5470549567  -1.1286568502  -1.6171208987
	    C     0.8856903580   0.2697593724  -0.8573529055
	    H     0.7593778965   1.5789714093   2.2490978884
	    C     1.2369114110   1.0329808952   0.2494182736
	    C     1.7296431938   0.2983712409  -2.1068485493
	    H     2.1062362235   1.6622419532   0.2091151093
	    H     2.0238411624   1.3106521374  -2.3552178637
	    H     1.1955649076  -0.1147429504  -2.9519597695
	    H     2.6359557994  -0.2820556065  -1.9711707394
			--------------------------
			 OPTKING Finished Execution 
			--------------------------

    Structure for next step:
    Molecular point group: c1
    Full point group: C1

    Geometry (in Angstrom), charge = 0, multiplicity = 1:

    H           -2.882807907293    -0.895740242056     0.423994012896
    O           -2.087345865468    -1.398021021575     0.417662699300
    C           -0.999601953454    -0.573539939017     0.375023131609
    C           -0.644661788083     0.181180273768     1.472335952656
    C           -0.242325238446    -0.526142742416    -0.782244022873
    H           -1.231717907139     0.129200119315     2.368892288357
    C            0.477467721244     0.987563935628     1.399031510284
    H           -0.547571516171    -1.127667426754    -1.617119719183
    C            0.885173689142     0.270748689028    -0.857351784033
    H            0.758861237296     1.579960625998     2.249098772604
    C            1.236394715344     1.033970153569     0.249419310507
    C            1.729126460464     0.299360555378    -2.106847332458
    H            2.105719461423     1.663231163535     0.209116149326
    H            2.023324406653     1.311641374521    -2.355216627881
    H            1.195048215085    -0.113753604368    -2.951958488142
    H            2.635438996894    -0.281066247753    -1.971169532901

gradient() will perform analytic gradient computation.

*** tstart() called on cx1-28-12-4
*** at Fri Sep  9 20:43:14 2016


         ---------------------------------------------------------
                                   SCF
            by Justin Turney, Rob Parrish, and Andy Simmonett
                              RHF Reference
                        4 Threads,   2000 MiB Core
         ---------------------------------------------------------

  ==> Geometry <==

    Molecular point group: c1
    Full point group: C1

    Geometry (in Angstrom), charge = 0, multiplicity = 1:

       Center              X                  Y                   Z               Mass       
    ------------   -----------------  -----------------  -----------------  -----------------
           H         -2.882807907293    -0.895740242056     0.423994012896     1.007825032070
           O         -2.087345865468    -1.398021021575     0.417662699300    15.994914619560
           C         -0.999601953454    -0.573539939017     0.375023131609    12.000000000000
           C         -0.644661788083     0.181180273768     1.472335952656    12.000000000000
           C         -0.242325238446    -0.526142742416    -0.782244022873    12.000000000000
           H         -1.231717907139     0.129200119315     2.368892288357     1.007825032070
           C          0.477467721244     0.987563935628     1.399031510284    12.000000000000
           H         -0.547571516171    -1.127667426754    -1.617119719183     1.007825032070
           C          0.885173689142     0.270748689028    -0.857351784033    12.000000000000
           H          0.758861237296     1.579960625998     2.249098772604     1.007825032070
           C          1.236394715344     1.033970153569     0.249419310507    12.000000000000
           C          1.729126460464     0.299360555378    -2.106847332458    12.000000000000
           H          2.105719461423     1.663231163535     0.209116149326     1.007825032070
           H          2.023324406653     1.311641374521    -2.355216627881     1.007825032070
           H          1.195048215085    -0.113753604368    -2.951958488142     1.007825032070
           H          2.635438996894    -0.281066247753    -1.971169532901     1.007825032070

  Running in c1 symmetry.

  Rotational constants: A =      0.12445  B =      0.06042  C =      0.04111 [cm^-1]
  Rotational constants: A =   3730.99162  B =   1811.44459  C =   1232.40602 [MHz]
  Nuclear repulsion =  345.876663978131432

  Charge       = 0
  Multiplicity = 1
  Electrons    = 58
  Nalpha       = 29
  Nbeta        = 29

  ==> Algorithm <==

  SCF Algorithm Type is DF.
  DIIS enabled.
  MOM disabled.
  Fractional occupation disabled.
  Guess Type is READ.
  Energy threshold   = 1.00e-08
  Density threshold  = 1.00e-08
  Integral threshold = 0.00e+00

  ==> Primary Basis <==

  Basis Set: CC-PVTZ
    Number of shells: 128
    Number of basis function: 352
    Number of Cartesian functions: 400
    Spherical Harmonics?: true
    Max angular momentum: 3

  ==> Pre-Iterations <==

   -------------------------------------------------------
    Irrep   Nso     Nmo     Nalpha   Nbeta   Ndocc  Nsocc
   -------------------------------------------------------
     A        352     352       0       0       0       0
   -------------------------------------------------------
    Total     352     352      29      29      29       0
   -------------------------------------------------------

 OEINTS: Overlap, kinetic, potential, dipole, and quadrupole integrals
         stored in file 35.

  ==> Integral Setup <==

  ==> DFJK: Density-Fitted J/K Matrices <==

    J tasked:                  Yes
    K tasked:                  Yes
    wK tasked:                  No
    OpenMP threads:              4
    Integrals threads:           4
[...]
	 C          -0.4575584076       -0.9975050862       -1.4767966805
	 H          -2.3284105859        0.2418936405        4.4768986844
	 C           0.8968961630        1.8716709016        2.6425756700
	 H          -1.0311684219       -2.1358636449       -3.0541037132
	 C           1.6736007033        0.5125670524       -1.6187651692
	 H           1.4284096355        2.9948206527        4.2462752690
	 C           2.3319254739        1.9596358123        0.4678887138
	 C           3.2671666459        0.5652472585       -3.9809316454
	 H           3.9714973562        3.1532485048        0.3904974421
	 H           3.8578793096        2.4725136370       -4.4298866327
	 H           2.2425086623       -0.1792622334       -5.5854637628
	 H           4.9593948529       -0.5660680927       -3.7387668898
	             0.0000036996       -0.0000187662       -0.0016243982
	            -0.0003119500        0.0005053373        0.0017932242
	             0.0010909935       -0.0014269753        0.0002427666
	            -0.0000346689       -0.0000335905       -0.0000381121
	            -0.0007210165        0.0010225032       -0.0003984549
	            -0.0000001506        0.0000040594       -0.0000036456
	             0.0000396452        0.0000947936       -0.0000259175
	            -0.0000160913       -0.0000233055       -0.0000320775
	             0.0000001708       -0.0001635024       -0.0000069481
	             0.0000054438       -0.0000075532        0.0000013469
	            -0.0000318799        0.0000138485        0.0000648032
	            -0.0000204301        0.0000038940        0.0000037697
	             0.0000130292        0.0000046083        0.0000109980
	            -0.0000155669        0.0000150270       -0.0000172064
	             0.0000022832       -0.0000139543        0.0000106518
	            -0.0000035110        0.0000235764        0.0000191999

	---Fragment 1 Intrafragment Coordinates---
	 - Coordinate -           - BOHR/RAD -       - ANG/DEG -
	 R(1,2)           =         1.777842	       0.940793
	 R(2,3)           =         2.581813	       1.366236
	 R(3,4)           =         2.606749	       1.379432
	 R(3,5)           =         2.612063	       1.382244
	 R(4,6)           =         2.027635	       1.072978
	 R(4,7)           =         2.612847	       1.382659
	 R(5,8)           =         2.028001	       1.073172
	 R(5,9)           =         2.615781	       1.384212
	 R(7,10)          =         2.028749	       1.073568
	 R(7,11)          =         2.606973	       1.379551
	 R(9,11)          =         2.623266	       1.388173
	 R(9,12)          =         2.849922	       1.508114
	 R(11,13)         =         2.029506	       1.073969
	 R(12,14)         =         2.046501	       1.082962
	 R(12,15)         =         2.044197	       1.081743
	 R(12,16)         =         2.049916	       1.084769
	 B(1,2,3)         =         1.927858	     110.458115
	 B(2,3,4)         =         2.106501	     120.693589
	 B(2,3,5)         =         2.073632	     118.810376
	 B(3,4,6)         =         2.090897	     119.799580
	 B(3,4,7)         =         2.077321	     119.021713
	 B(3,5,8)         =         2.068089	     118.492771
	 B(3,5,9)         =         2.106440	     120.690103
	 B(4,3,5)         =         2.102865	     120.485294
	 B(4,7,10)        =         2.086543	     119.550095
	 B(4,7,11)        =         2.106261	     120.679849
	 B(5,9,11)        =         2.071156	     118.668526
	 B(5,9,12)        =         2.107403	     120.745281
	 B(6,4,7)         =         2.114935	     121.176830
	 B(7,11,9)        =         2.102251	     120.450101
	 B(7,11,13)       =         2.090187	     119.758916
	 B(8,5,9)         =         2.108630	     120.815616
	 B(9,11,13)       =         2.090745	     119.790879
	 B(9,12,14)       =         1.939555	     111.128293
	 B(9,12,15)       =         1.942894	     111.319644
	 B(9,12,16)       =         1.932081	     110.700106
	 B(10,7,11)       =         2.090374	     119.769617
	 B(11,9,12)       =         2.104566	     120.582739
	 B(14,12,15)      =         1.888007	     108.174853
	 B(14,12,16)      =         1.877557	     107.576097
	 B(15,12,16)      =         1.881276	     107.789172
	 D(1,2,3,4)       =         1.242438	      71.186465
	*D(1,2,3,5)       =        -1.919862	    -109.999997
	 D(2,3,4,6)       =        -0.008574	      -0.491259
	 D(2,3,4,7)       =         3.124424	     179.016295
	 D(2,3,5,8)       =         0.019325	       1.107244
	 D(2,3,5,9)       =        -3.114528	    -178.449304
	 D(3,4,7,10)      =         3.138389	     179.816465
	 D(3,4,7,11)      =        -0.007419	      -0.425053
	 D(3,5,9,11)      =        -0.012966	      -0.742871
	 D(3,5,9,12)      =         3.116894	     178.584892
	 D(4,3,5,8)       =         3.140254	     179.923329
	 D(4,3,5,9)       =         0.006402	       0.366782
	 D(4,7,11,9)      =         0.000717	       0.041083
	 D(4,7,11,13)     =        -3.138823	    -179.841302
	 D(5,3,4,6)       =        -3.129112	    -179.284886
	 D(5,3,4,7)       =         0.003886	       0.222668
	 D(5,9,11,7)      =         0.009424	       0.539950
	 D(5,9,11,13)     =        -3.134222	    -179.577703
	 D(5,9,12,14)     =         2.418034	     138.543162
	 D(5,9,12,15)     =         0.312309	      17.893977
	 D(5,9,12,16)     =        -1.779855	    -101.978190
	 D(6,4,7,10)      =        -0.011921	      -0.683001
	 D(6,4,7,11)      =         3.125457	     179.075481
	 D(7,11,9,12)     =        -3.120456	    -178.788943
	 D(8,5,9,11)      =         3.136548	     179.710938
	 D(8,5,9,12)      =        -0.016778	      -0.961299
	 D(9,11,7,10)     =         3.138085	     179.799037
	 D(10,7,11,13)    =        -0.001455	      -0.083348
	 D(11,9,12,14)    =        -0.735516	     -42.141972
	 D(11,9,12,15)    =        -2.841242	    -162.791156
	 D(11,9,12,16)    =         1.349780	      77.336677
	 D(12,9,11,13)    =         0.019084	       1.093405

	Current energy   :      -344.7166586290

	Energy change for the previous step:
		Projected    :        -0.0000004564
		Actual       :        -0.0000003194

	Performing BFGS update.
	Previous computed or guess Hessian on step 1.
	Steps to be used in Hessian update: 6 5
	Taking RFO optimization step.
	Going to follow RFO solution 1.
	Using RFO vector 1.

	Determining step-restricting scale parameter for RS-RFO.
	Maximum step size allowed    0.00781

	 Iter      |step|        alpha        rfo_root  
	------------------------------------------------
	    0     0.16760       1.00000           1
	    1     0.10348      33.43988           1
	    2     0.06227     138.24678           1
	    3     0.03738     430.25607           1
	    4     0.02294    1137.64830           1
	    5     0.01488    2580.62703           1
	    6     0.01061    4879.03013           1
	    7     0.00859    7321.58724           1
	    8     0.00791    8604.17449           1
	    9     0.00781    8803.65817           1
	------------------------------------------------
	Norm of target step-size    0.00781
	Projected energy change by RFO approximation:        -0.0000009066

	Back-transformation to cartesian coordinates...
	Successfully converged to displaced geometry.

	Back-transformation to cartesian coordinates to adjust frozen coordinates...
	Successfully converged to displaced geometry.

	--- Internal Coordinate Step in ANG or DEG, aJ/ANG or AJ/DEG ---
	 ---------------------------------------------------------------------------
	   Coordinate                Previous        Force       Change         New 
	   ----------                --------       ------       ------       ------
	    1 R(1,2)          =      0.940793     0.000193     0.000010     0.940804
	    2 R(2,3)          =      1.366236     0.000359    -0.000103     1.366133
	    3 R(3,4)          =      1.379432     0.000099     0.000192     1.379624
	    4 R(3,5)          =      1.382244     0.000487    -0.000083     1.382162
	    5 R(4,6)          =      1.072978     0.000026    -0.000002     1.072976
	    6 R(4,7)          =      1.382659    -0.000320    -0.000222     1.382437
	    7 R(5,8)          =      1.073172    -0.000351    -0.000034     1.073138
	    8 R(5,9)          =      1.384212     0.000555     0.000203     1.384415
	    9 R(7,10)         =      1.073568     0.000014     0.000018     1.073586
	   10 R(7,11)         =      1.379551     0.000459     0.000206     1.379757
	   11 R(9,11)         =      1.388173    -0.000487    -0.000215     1.387958
	   12 R(9,12)         =      1.508114     0.000279     0.000044     1.508158
	   13 R(11,13)        =      1.073969    -0.000106    -0.000029     1.073940
	   14 R(12,14)        =      1.082962    -0.000109    -0.000032     1.082930
	   15 R(12,15)        =      1.081743     0.000036     0.000013     1.081756
	   16 R(12,16)        =      1.084769     0.000112     0.000026     1.084795
	   17 B(1,2,3)        =    110.458115     0.000005     0.028945   110.487060
	   18 B(2,3,4)        =    120.693589     0.000000    -0.005531   120.688057
	   19 B(2,3,5)        =    118.810376     0.000000     0.013440   118.823816
	   20 B(3,4,6)        =    119.799580     0.000001    -0.000940   119.798640
	   21 B(3,4,7)        =    119.021713    -0.000001     0.001690   119.023403
	   22 B(3,5,8)        =    118.492771    -0.000000     0.000973   118.493744
	   23 B(3,5,9)        =    120.690103     0.000001     0.006630   120.696733
	   24 B(4,3,5)        =    120.485294    -0.000001    -0.009631   120.475663
	   25 B(4,7,10)       =    119.550095    -0.000002     0.000736   119.550831
	   26 B(4,7,11)       =    120.679849     0.000003     0.007044   120.686894
	   27 B(5,9,11)       =    118.668526    -0.000001    -0.001493   118.667032
	   28 B(5,9,12)       =    120.745281     0.000001    -0.014910   120.730371
	   29 B(6,4,7)        =    121.176830     0.000001    -0.000892   121.175938
	   30 B(7,11,9)       =    120.450101     0.000000    -0.003694   120.446407
	   31 B(7,11,13)      =    119.758916     0.000001    -0.005446   119.753470
	   32 B(8,5,9)        =    120.815616    -0.000001    -0.007488   120.808128
	   33 B(9,11,13)      =    119.790879    -0.000001     0.009143   119.800022
	   34 B(9,12,14)      =    111.128293    -0.000000    -0.002024   111.126269
	   35 B(9,12,15)      =    111.319644     0.000001     0.001368   111.321012
	   36 B(9,12,16)      =    110.700106     0.000001     0.002849   110.702955
	   37 B(10,7,11)      =    119.769617    -0.000001    -0.007728   119.761890
	   38 B(11,9,12)      =    120.582739     0.000001     0.015591   120.598330
	   39 B(14,12,15)     =    108.174853    -0.000000     0.001914   108.176767
	   40 B(14,12,16)     =    107.576097    -0.000000     0.001574   107.577671
	   41 B(15,12,16)     =    107.789172    -0.000001    -0.005804   107.783368
	   42 D(1,2,3,4)      =     71.186465     0.000001     0.091703    71.278168
	   43 *D(1,2,3,5)     =   -109.999997     0.000000    -0.000000  -109.999997
	   44 D(2,3,4,6)      =     -0.491259    -0.000000    -0.058731    -0.549989
	   45 D(2,3,4,7)      =    179.016295    -0.000001    -0.077023   178.939272
	   46 D(2,3,5,8)      =      1.107244     0.000000     0.053977     1.161220
	   47 D(2,3,5,9)      =   -178.449304     0.000000     0.036708  -178.412596
	   48 D(3,4,7,10)     =    179.816465    -0.000000     0.002134   179.818600
	   49 D(3,4,7,11)     =     -0.425053     0.000000     0.017190    -0.407863
	   50 D(3,5,9,11)     =     -0.742871     0.000000     0.058993    -0.683878
	   51 D(3,5,9,12)     =    178.584892     0.000000    -0.015771   178.569120
	   52 D(4,3,5,8)      =    179.923329    -0.000000    -0.037476   179.885853
	   53 D(4,3,5,9)      =      0.366782    -0.000000    -0.054745     0.312037
	   54 D(4,7,11,9)     =      0.041083    -0.000000    -0.012116     0.028968
	   55 D(4,7,11,13)    =   -179.841302    -0.000000    -0.013654  -179.854956
	   56 D(5,3,4,6)      =   -179.284886     0.000000     0.034216  -179.250670
	   57 D(5,3,4,7)      =      0.222668     0.000000     0.015923     0.238591
	   58 D(5,9,11,7)     =      0.539950    -0.000000    -0.025858     0.514092
	   59 D(5,9,11,13)    =   -179.577703    -0.000000    -0.024335  -179.602038
	   60 D(5,9,12,14)    =    138.543162     0.000001     0.193606   138.736767
	   61 D(5,9,12,15)    =     17.893977     0.000001     0.191624    18.085601
	   62 D(5,9,12,16)    =   -101.978190     0.000001     0.196133  -101.782056
	   63 D(6,4,7,10)     =     -0.683001    -0.000000    -0.016419    -0.699419
	   64 D(6,4,7,11)     =    179.075481     0.000000    -0.001363   179.074118
	   65 D(7,11,9,12)    =   -178.788943     0.000000     0.049016  -178.739926
	   66 D(8,5,9,11)     =    179.710938     0.000000     0.041283   179.752221
	   67 D(8,5,9,12)     =     -0.961299    -0.000000    -0.033481    -0.994781
	   68 D(9,11,7,10)    =    179.799037     0.000000     0.002992   179.802029
	   69 D(10,7,11,13)   =     -0.083348     0.000000     0.001454    -0.081894
	   70 D(11,9,12,14)   =    -42.141972     0.000000     0.117274   -42.024698
	   71 D(11,9,12,15)   =   -162.791156     0.000000     0.115292  -162.675865
	   72 D(11,9,12,16)   =     77.336677     0.000000     0.119801    77.456478
	   73 D(12,9,11,13)   =      1.093405     0.000000     0.050539     1.143943
	 ---------------------------------------------------------------------------

  ==> Convergence Check <==

  Measures of convergence in internal coordinates in au.
  Criteria marked as inactive (o), active & met (*), and active & unmet ( ).
  ---------------------------------------------------------------------------------------------
   Step     Total Energy     Delta E     MAX Force     RMS Force      MAX Disp      RMS Disp   
  ---------------------------------------------------------------------------------------------
    Convergence Criteria    1.00e-06 *    3.00e-04 *             o    1.20e-03 *             o
  ---------------------------------------------------------------------------------------------
      7    -344.71665863   -3.19e-07 *    6.74e-05 *    2.39e-05 o    3.42e-03      9.15e-04 o  ~
  ---------------------------------------------------------------------------------------------


  **** Optimization is complete! (in 7 steps) ****

  ==> Optimization Summary <==

  Measures of convergence in internal coordinates in au.
  --------------------------------------------------------------------------------------------------------------- ~
   Step         Total Energy             Delta E       MAX Force       RMS Force        MAX Disp        RMS Disp  ~
  --------------------------------------------------------------------------------------------------------------- ~
      1    -344.716116640346   -344.716116640346      0.01490855      0.00224302      0.03840024      0.01097342  ~
      2    -344.716603037410     -0.000486397065      0.00290315      0.00056703      0.01139870      0.00356218  ~
      3    -344.716650082484     -0.000047045074      0.00066529      0.00018064      0.00707305      0.00199906  ~
      4    -344.716655176790     -0.000005094305      0.00026526      0.00007660      0.00644972      0.00162387  ~
      5    -344.716656805177     -0.000001628388      0.00019764      0.00003970      0.01180731      0.00330950  ~
      6    -344.716658309502     -0.000001504325      0.00014077      0.00003653      0.00348643      0.00091547  ~
      7    -344.716658628951     -0.000000319448      0.00006742      0.00002393      0.00342317      0.00091458  ~
  --------------------------------------------------------------------------------------------------------------- ~

	Writing optimization data to binary file.
	Final energy is   -344.7166586289505
	Final (previous) structure:
	Cartesian Geometry (in Angstrom)
	    H    -2.8802097186  -0.8979270803   0.4238713646
	    O    -2.0851352795  -1.4008322112   0.4179303011
	    C    -0.9978385271  -0.5746728479   0.3749347288
	    C    -0.6442107404   0.1815029311   1.4731055416
	    C    -0.2421294994  -0.5278569974  -0.7814872047
	    H    -1.2321419084   0.1280046112   2.3690729298
	    C     0.4746170442   0.9904456587   1.3983909233
	    H    -0.5456708687  -1.1302504478  -1.6161622011
	    C     0.8856314161   0.2712388227  -0.8566136990
	    H     0.7558818813   1.5847909542   2.2470322654
	    C     1.2340019072   1.0369946882   0.2475960624
	    C     1.7289102577   0.2991159892  -2.1066184566
	    H     2.1016260454   1.6686273692   0.2066423621
	    H     2.0415019600   1.3083979645  -2.3441952217
	    H     1.1866845648  -0.0948614955  -2.9557003484
	    H     2.6243989250  -0.2995503561  -1.9784703774
	Saving final (previous) structure.
			--------------------------
			 OPTKING Finished Execution 
			--------------------------

    Final optimized geometry and variables:
    Molecular point group: c1
    Full point group: C1

    Geometry (in Angstrom), charge = 0, multiplicity = 1:

    H           -2.880209498682    -0.897927011690     0.423871332257
    O           -2.085135120228    -1.400832104271     0.417930269175
    C           -0.997838450875    -0.574672804053     0.374934700190
    C           -0.644210691174     0.181502917273     1.473105429132
    C           -0.242129480876    -0.527856957049    -0.781487145016
    H           -1.232141814287     0.128004601435     2.369072748930
    C            0.474617007935     0.990445583090     1.398390816518
    H           -0.545670827069    -1.130250361514    -1.616162077702
    C            0.885631348477     0.271238801984    -0.856613633591
    H            0.755881823624     1.584790833220     2.247032093764
    C            1.234001812923     1.036994609017     0.247596043492
    C            1.728910125657     0.299115966390    -2.106618295713
    H            2.101625884868     1.668627241735     0.206642346361
    H            2.041501804151     1.308397864611    -2.344195042644
    H            1.186684474169    -0.094861488281    -2.955700122683
    H            2.624398724552    -0.299550333189    -1.978470226291

	Cleaning optimization helper files.


Properties will be evaluated at   0.000000,   0.000000,   0.000000 Bohr

Properties computed using the  density matrix

  Nuclear Dipole Moment: (a.u.)
     X:     3.7887      Y:     2.1187      Z:    -3.4178

  Electronic Dipole Moment: (a.u.)
     X:    -3.8844      Y:    -1.5605      Z:     3.2806

  Dipole Moment: (a.u.)
     X:    -0.0957      Y:     0.5582      Z:    -0.1372     Total:     0.5827

  Dipole Moment: (Debye)
     X:    -0.2432      Y:     1.4188      Z:    -0.3487     Total:     1.4811

  Quadrupole Moment: (Debye Ang)
    XX:   -41.7172     YY:   -51.8558     ZZ:   -44.3113
    XY:     0.0339     XZ:    -1.9245     YZ:     2.6188

  Traceless Quadrupole Moment: (Debye Ang)
    XX:     4.2442     YY:    -5.8944     ZZ:     1.6502
    XY:     0.0339     XZ:    -1.9245     YZ:     2.6188

  Mulliken Charges: (a.u.)
   Center  Symbol    Alpha    Beta     Spin     Total
       1     H     0.38750  0.38750  0.00000  0.22500
       2     O     4.19128  4.19128  0.00000 -0.38256
       3     C     2.85631  2.85631  0.00000  0.28739
       4     C     3.13016  3.13016  0.00000 -0.26032
       5     C     3.14001  3.14001  0.00000 -0.28003
       6     H     0.41984  0.41984  0.00000  0.16032
       7     C     3.06079  3.06079  0.00000 -0.12158
       8     H     0.41955  0.41955  0.00000  0.16090
       9     C     2.94464  2.94464  0.00000  0.11071
      10     H     0.42239  0.42239  0.00000  0.15523
      11     C     3.10868  3.10868  0.00000 -0.21737
      12     C     3.14588  3.14588  0.00000 -0.29177
      13     H     0.42704  0.42704  0.00000  0.14591
      14     H     0.44873  0.44873  0.00000  0.10254
      15     H     0.45065  0.45065  0.00000  0.09870
      16     H     0.44654  0.44654  0.00000  0.10692

   Total alpha = 29.00000, Total beta = 29.00000, Total charge = -0.00000


*** PSI4 exiting successfully. Buy a developer a beer!
