    -----------------------------------------------------------------------
          Psi4: An Open-Source Ab Initio Electronic Structure Package
                              Psi4 1.0.54 Driver

                          Git: Rev {master} 8d4cec3 dirty

    J. M. Turney, A. C. Simmonett, R. M. Parrish, E. G. Hohenstein,
    F. A. Evangelista, J. T. Fermann, B. J. Mintz, L. A. Burns, J. J. Wilke,
    M. L. Abrams, N. J. Russ, M. L. Leininger, C. L. Janssen, E. T. Seidl,
    W. D. Allen, H. F. Schaefer, R. A. King, E. F. Valeev, C. D. Sherrill,
    and T. D. Crawford, WIREs Comput. Mol. Sci. 2, 556-565 (2012)
    (doi: 10.1002/wcms.93)

                         Additional Contributions by
    A. E. DePrince, U. Bozkaya, A. Yu. Sokolov, D. G. A. Smith, R. Di Remigio,
    R. M. Richard, J. F. Gonthier, H. R. McAlexander, M. Saitow, and
    B. P. Pritchard
    -----------------------------------------------------------------------


    Psi4 started on: Sat Sep 10 23:34:48 2016

    Process ID:   4167
    PSI4DATADIR: /export131/home/mjharvey/miniconda3/share/psi4
    Memory level set to 256.000 MB

  ==> Input File <==

--------------------------------------------------------------------------
set {
	reference rhf
	basis cc-pvtz
}


set_num_threads( 4 )
memory 2 gb

molecule MOL {
0 1

O	 3.219313	 0.959291	 -0.614106
C	 2.698710	 0.058177	 -0.050237
C	 1.246364	 -0.005813	 0.348416
O	 3.344101	 -1.038700	 0.312317
C	 0.453207	 1.232821	 -0.049003
H	 0.839270	 -0.907818	 -0.092281
H	 1.216683	 -0.160521	 1.422434
C	 -0.998367	 1.217982	 0.432195
H	 0.481498	 1.345443	 -1.127236
H	 0.951413	 2.105557	 0.354893
C	 -1.882951	 0.151251	 -0.211235
H	 -1.429490	 2.193659	 0.228843
H	 -1.019755	 1.099323	 1.513279
C	 -3.342450	 0.243269	 0.226009
H	 -1.826223	 0.246578	 -1.293162
H	 -1.508033	 -0.839650	 0.027695
C	 -4.333090	 -0.045063	 -0.898389
H	 -3.535157	 1.235590	 0.626637
H	 -3.517057	 -0.452688	 1.043335
C	 -5.788905	 0.050578	 -0.454282
H	 -4.159981	 0.649706	 -1.715732
H	 -4.143632	 -1.037652	 -1.298051
H	 -6.464949	 -0.159674	 -1.275100
H	 -6.019945	 1.043025	 -0.081752
H	 -6.003127	 -0.656957	 0.339891
C	 4.720529	 -1.114346	 0.001449
H	 4.874321	 -1.055557	 -1.065852
H	 5.057824	 -2.067950	 0.373977
H	 5.264321	 -0.313596	 0.480350

	symmetry c1
}
set optking {
	frozen_dihedral = ("
		17 14 11 15
	")
}

ee,wfn = optimize('scf', return_wfn=True)
oeprop( wfn, 'DIPOLE', 'QUADRUPOLE', 'MULLIKEN_CHARGES')
f=open( 'psi4out.xyz', 'w' )
f.write( "29  " )
f.write( str(ee) + "\n" )
f.write( MOL.save_string_xyz() )
f.close()
--------------------------------------------------------------------------

  Memory set to   2.000 GiB by Python script.
gradient() will perform analytic gradient computation.

*** tstart() called on cx1-27-3-2
*** at Sat Sep 10 23:34:49 2016


         ---------------------------------------------------------
                                   SCF
            by Justin Turney, Rob Parrish, and Andy Simmonett
                              RHF Reference
                        4 Threads,   2000 MiB Core
         ---------------------------------------------------------

  ==> Geometry <==

    Molecular point group: c1
    Full point group: C1

    Geometry (in Angstrom), charge = 0, multiplicity = 1:

       Center              X                  Y                   Z               Mass       
    ------------   -----------------  -----------------  -----------------  -----------------
           O          3.237323928877     0.817125749243    -0.524067312445    15.994914619560
           C          2.716720928877    -0.083988250757     0.039801687555    12.000000000000
           C          1.264374928877    -0.147978250757     0.438454687555    12.000000000000
           O          3.362111928877    -1.180865250757     0.402355687555    15.994914619560
           C          0.471217928877     1.090655749243     0.041035687555    12.000000000000
           H          0.857280928877    -1.049983250757    -0.002242312445     1.007825032070
           H          1.234693928877    -0.302686250757     1.512472687555     1.007825032070
           C         -0.980356071123     1.075816749243     0.522233687555    12.000000000000
           H          0.499508928877     1.203277749243    -1.037197312445     1.007825032070
           H          0.969423928877     1.963391749243     0.444931687555     1.007825032070
           C         -1.864940071123     0.009085749243    -0.121196312445    12.000000000000
           H         -1.411479071123     2.051493749243     0.318881687555     1.007825032070
           H         -1.001744071123     0.957157749243     1.603317687555     1.007825032070
           C         -3.324439071123     0.101103749243     0.316047687555    12.000000000000
           H         -1.808212071123     0.104412749243    -1.203123312445     1.007825032070
           H         -1.490022071123    -0.981815250757     0.117733687555     1.007825032070
           C         -4.315079071123    -0.187228250757    -0.808350312445    12.000000000000
           H         -3.517146071123     1.093424749243     0.716675687555     1.007825032070
           H         -3.499046071123    -0.594853250757     1.133373687555     1.007825032070
           C         -5.770894071123    -0.091587250757    -0.364243312445    12.000000000000
           H         -4.141970071123     0.507540749243    -1.625693312445     1.007825032070
           H         -4.125621071123    -1.179817250757    -1.208012312445     1.007825032070
           H         -6.446938071123    -0.301839250757    -1.185061312445     1.007825032070
           H         -6.001934071123     0.900859749243     0.008286687555     1.007825032070
           H         -5.985116071123    -0.799122250757     0.429929687555     1.007825032070
           C          4.738539928877    -1.256511250757     0.091487687555    12.000000000000
           H          4.892331928877    -1.197722250757    -0.975813312445     1.007825032070
           H          5.075834928877    -2.210115250757     0.464015687555     1.007825032070
           H          5.282331928877    -0.455761250757     0.570388687555     1.007825032070

  Running in c1 symmetry.

  Rotational constants: A =      0.12458  B =      0.00912  C =      0.00883 [cm^-1]
  Rotational constants: A =   3734.84909  B =    273.38588  C =    264.72214 [MHz]
  Nuclear repulsion =  611.148924960483100

  Charge       = 0
  Multiplicity = 1
  Electrons    = 88
  Nalpha       = 44
  Nbeta        = 44

  ==> Algorithm <==

  SCF Algorithm Type is DF.
  DIIS enabled.
  MOM disabled.
  Fractional occupation disabled.
  Guess Type is SAD.
  Energy threshold   = 1.00e-08
  Density threshold  = 1.00e-08
  Integral threshold = 0.00e+00

  ==> Primary Basis <==

  Basis Set: CC-PVTZ
    Number of shells: 218
    Number of basis function: 582
    Number of Cartesian functions: 655
    Spherical Harmonics?: true
    Max angular momentum: 3

  ==> Pre-Iterations <==

   -------------------------------------------------------
    Irrep   Nso     Nmo     Nalpha   Nbeta   Ndocc  Nsocc
   -------------------------------------------------------
     A        582     582       0       0       0       0
   -------------------------------------------------------
    Total     582     582      44      44      44       0
   -------------------------------------------------------

  ==> Integral Setup <==

  ==> DFJK: Density-Fitted J/K Matrices <==

    J tasked:                  Yes
    K tasked:                  Yes
    wK tasked:                  No
    OpenMP threads:              4
    Integrals threads:           4
    Memory (MB):              1430
    Algorithm:                Core
    Integral Cache:           NONE
    Schwarz Cutoff:          1E-12
    Fitting Condition:       1E-12

   => Auxiliary Basis Set <=

  Basis Set: 
    Number of shells: 455
    Number of basis function: 1409
    Number of Cartesian functions: 1686
    Spherical Harmonics?: true
    Max angular momentum: 4

  Minimum eigenvalue in the overlap matrix is 1.9708218282E-04.
  Using Symmetric Orthogonalization.
  SCF Guess: Superposition of Atomic Densities via on-the-fly atomic UHF.

  ==> Iterations <==

                           Total Energy        Delta E     RMS |[F,P]|

   @DF-RHF iter   0:  -506.55546531017217   -5.06555e+02   1.13769e-02 
   @DF-RHF iter   1:  -500.87086542684960    5.68460e+00   1.22721e-03 
   @DF-RHF iter   2:  -501.13956953245929   -2.68704e-01   7.43706e-04 DIIS
   @DF-RHF iter   3:  -501.20851768476064   -6.89482e-02   2.13640e-04 DIIS
   @DF-RHF iter   4:  -501.21969203191134   -1.11743e-02   6.09782e-05 DIIS
   @DF-RHF iter   5:  -501.22077196910482   -1.07994e-03   2.15048e-05 DIIS
   @DF-RHF iter   6:  -501.22094328662979   -1.71318e-04   8.77004e-06 DIIS
   @DF-RHF iter   7:  -501.22096916650685   -2.58799e-05   3.46683e-06 DIIS
   @DF-RHF iter   8:  -501.22097392660044   -4.76009e-06   1.04114e-06 DIIS
   @DF-RHF iter   9:  -501.22097452464823   -5.98048e-07   3.22929e-07 DIIS
   @DF-RHF iter  10:  -501.22097457844870   -5.38005e-08   1.21753e-07 DIIS
   @DF-RHF iter  11:  -501.22097458645635   -8.00765e-09   4.36724e-08 DIIS
   @DF-RHF iter  12:  -501.22097458779672   -1.34037e-09   1.69311e-08 DIIS
   @DF-RHF iter  13:  -501.22097458799203   -1.95314e-10   6.82165e-09 DIIS

  ==> Post-Iterations <==

    Orbital Energies (a.u.)
    -----------------------

    Doubly Occupied:                                                      

       1A    -20.595950     2A    -20.533784     3A    -11.364179  
       4A    -11.278220     5A    -11.232857     6A    -11.216805  
       7A    -11.215838     8A    -11.214097     9A    -11.212614  
      10A    -11.211131    11A    -11.206674    12A     -1.471837  
      13A     -1.365433    14A     -1.099462    15A     -1.067916  
      16A     -1.020350    17A     -0.978069    18A     -0.929119  
      19A     -0.862050    20A     -0.801292    21A     -0.790330  
      22A     -0.765714    23A     -0.703213    24A     -0.685405  
      25A     -0.675828    26A     -0.648644    27A     -0.628236  
      28A     -0.606712    29A     -0.598998    30A     -0.581201  
      31A     -0.565890    32A     -0.553369    33A     -0.533478  
      34A     -0.531235    35A     -0.519532    36A     -0.510357  
      37A     -0.496778    38A     -0.477172    39A     -0.472674  
      40A     -0.462468    41A     -0.459175    42A     -0.454183  
      43A     -0.443915    44A     -0.437289  

    Virtual:                                                              

      45A      0.138279    46A      0.145885    47A      0.157649  
      48A      0.159378    49A      0.161543    50A      0.180487  
      51A      0.187248    52A      0.195429    53A      0.201465  
      54A      0.212021    55A      0.217086    56A      0.223915  
      57A      0.236165    58A      0.236366    59A      0.243080  
      60A      0.246943    61A      0.258208    62A      0.261673  
      63A      0.263865    64A      0.288880    65A      0.310980  
      66A      0.337460    67A      0.353279    68A      0.358744  
      69A      0.366553    70A      0.374257    71A      0.376127  
      72A      0.381461    73A      0.391968    74A      0.407976  
      75A      0.414115    76A      0.425499    77A      0.433331  
      78A      0.448103    79A      0.459846    80A      0.469008  
      81A      0.480419    82A      0.494458    83A      0.498949  
      84A      0.515442    85A      0.525270    86A      0.532118  
      87A      0.554015    88A      0.562416    89A      0.564591  
      90A      0.574742    91A      0.580671    92A      0.587647  
      93A      0.593374    94A      0.603353    95A      0.618694  
      96A      0.621524    97A      0.624272    98A      0.628689  
      99A      0.634689   100A      0.637235   101A      0.639931  
     102A      0.648688   103A      0.654378   104A      0.656253  
     105A      0.661215   106A      0.666379   107A      0.668466  
     108A      0.671897   109A      0.680513   110A      0.702152  
     111A      0.707231   112A      0.714866   113A      0.721650  
     114A      0.724180   115A      0.726245   116A      0.740821  
     117A      0.751843   118A      0.771387   119A      0.778656  
     120A      0.788682   121A      0.804835   122A      0.822250  
     123A      0.845449   124A      0.849159   125A      0.859115  
     126A      0.872608   127A      0.883372   128A      0.893897  
     129A      0.895479   130A      0.919748   131A      0.926103  
     132A      0.935036   133A      0.940856   134A      0.951163  
     135A      0.982414   136A      0.988654   137A      1.001469  
     138A      1.013273   139A      1.016145   140A      1.036550  
     141A      1.054664   142A      1.059547   143A      1.070963  
     144A      1.072835   145A      1.095054   146A      1.097011  
     147A      1.109359   148A      1.120309   149A      1.124086  
     150A      1.139968   151A      1.166818   152A      1.171974  
     153A      1.178155   154A      1.188380   155A      1.198230  
     156A      1.214788   157A      1.226515   158A      1.234093  
     159A      1.238798   160A      1.251926   161A      1.259791  
     162A      1.276340   163A      1.279760   164A      1.285372  
     165A      1.303708   166A      1.305566   167A      1.318402  
     168A      1.325844   169A      1.329407   170A      1.332586  
     171A      1.342414   172A      1.349435   173A      1.352044  
     174A      1.364004   175A      1.374986   176A      1.388891  
     177A      1.393542   178A      1.399903   179A      1.404510  
     180A      1.420866   181A      1.432357   182A      1.437742  
     183A      1.452846   184A      1.459808   185A      1.468588  
     186A      1.472670   187A      1.477803   188A      1.489991  
     189A      1.499449   190A      1.502896   191A      1.513223  
     192A      1.517534   193A      1.523839   194A      1.527740  
     195A      1.532174   196A      1.538000   197A      1.548147  
     198A      1.560509   199A      1.573943   200A      1.580437  
     201A      1.583027   202A      1.593673   203A      1.618016  
     204A      1.623256   205A      1.629478   206A      1.636920  
     207A      1.646552   208A      1.664869   209A      1.681067  
     210A      1.691750   211A      1.707982   212A      1.719672  
     213A      1.738069   214A      1.741113   215A      1.762853  
     216A      1.766902   217A      1.779525   218A      1.783495  
     219A      1.796451   220A      1.816105   221A      1.818843  
     222A      1.828757   223A      1.834801   224A      1.839154  
     225A      1.853364   226A      1.858628   227A      1.887714  
     228A      1.908198   229A      1.932608   230A      1.951623  
     231A      1.987783   232A      2.000739   233A      2.014590  
     234A      2.052353   235A      2.089258   236A      2.101779  
     237A      2.159427   238A      2.259098   239A      2.305147  
     240A      2.332997   241A      2.342005   242A      2.454044  
     243A      2.473906   244A      2.492660   245A      2.518291  
     246A      2.533461   247A      2.574111   248A      2.596640  
     249A      2.604564   250A      2.616649   251A      2.649463  
     252A      2.674027   253A      2.681739   254A      2.684152  
     255A      2.700609   256A      2.702315   257A      2.716774  
     258A      2.748476   259A      2.753984   260A      2.763258  
     261A      2.781674   262A      2.803252   263A      2.817125  
     264A      2.820727   265A      2.837121   266A      2.843379  
     267A      2.855467   268A      2.861291   269A      2.868160  
     270A      2.895090   271A      2.910596   272A      2.925334  
     273A      2.936959   274A      2.939309   275A      2.951316  
     276A      2.959606   277A      2.968238   278A      2.985401  
     279A      2.991526   280A      3.011242   281A      3.018240  
     282A      3.021018   283A      3.033207   284A      3.042762  
     285A      3.054527   286A      3.066216   287A      3.072556  
     288A      3.081075   289A      3.100490   290A      3.113659  
     291A      3.118645   292A      3.136123   293A      3.140671  
     294A      3.141346   295A      3.151750   296A      3.174368  
     297A      3.186291   298A      3.190548   299A      3.215322  
     300A      3.239478   301A      3.246386   302A      3.254606  
     303A      3.275259   304A      3.280861   305A      3.282930  
     306A      3.286952   307A      3.303028   308A      3.314361  
     309A      3.324807   310A      3.334942   311A      3.338734  
     312A      3.349507   313A      3.351713   314A      3.354506  
     315A      3.363649   316A      3.372309   317A      3.381819  
     318A      3.392353   319A      3.405922   320A      3.407827  
     321A      3.415338   322A      3.427520   323A      3.438205  
     324A      3.439967   325A      3.457247   326A      3.462357  
     327A      3.465482   328A      3.478522   329A      3.481084  
     330A      3.484435   331A      3.491238   332A      3.503015  
     333A      3.510189   334A      3.515031   335A      3.522841  
     336A      3.536190   337A      3.537777   338A      3.548986  
     339A      3.550190   340A      3.558092   341A      3.577507  
     342A      3.592294   343A      3.598408   344A      3.605506  
     345A      3.617533   346A      3.625860   347A      3.630322  
     348A      3.641900   349A      3.651008   350A      3.658153  
     351A      3.663711   352A      3.676915   353A      3.687778  
     354A      3.699241   355A      3.727437   356A      3.739736  
     357A      3.746972   358A      3.761161   359A      3.764449  
     360A      3.769511   361A      3.789758   362A      3.791381  
     363A      3.811734   364A      3.834623   365A      3.842978  
     366A      3.848038   367A      3.855454   368A      3.862704  
     369A      3.878701   370A      3.883689   371A      3.891477  
     372A      3.895999   373A      3.913942   374A      3.929830  
     375A      3.936809   376A      3.945383   377A      3.956153  
     378A      3.966335   379A      3.972844   380A      3.987142  
     381A      3.992275   382A      4.012074   383A      4.032437  
     384A      4.038575   385A      4.055606   386A      4.083286  
     387A      4.094713   388A      4.097212   389A      4.105942  
     390A      4.117475   391A      4.121366   392A      4.123607  
     393A      4.140621   394A      4.148230   395A      4.161057  
     396A      4.169023   397A      4.177112   398A      4.183772  
     399A      4.187863   400A      4.190557   401A      4.191530  
     402A      4.205511   403A      4.206596   404A      4.215878  
     405A      4.230321   406A      4.233974   407A      4.250169  
     408A      4.264558   409A      4.272953   410A      4.284875  
     411A      4.299993   412A      4.308553   413A      4.321314  
     414A      4.339851   415A      4.350190   416A      4.369379  
     417A      4.371691   418A      4.373735   419A      4.386301  
     420A      4.387798   421A      4.403928   422A      4.411890  
     423A      4.415992   424A      4.428308   425A      4.431429  
     426A      4.452941   427A      4.463131   428A      4.468410  
     429A      4.472526   430A      4.480560   431A      4.492277  
     432A      4.502334   433A      4.515782   434A      4.519761  
     435A      4.526055   436A      4.549617   437A      4.558829  
     438A      4.564003   439A      4.582876   440A      4.597321  
     441A      4.607682   442A      4.619046   443A      4.627440  
     444A      4.629796   445A      4.644901   446A      4.650967  
     447A      4.661161   448A      4.668201   449A      4.689560  
     450A      4.704686   451A      4.715596   452A      4.721437  
     453A      4.732579   454A      4.750928   455A      4.767037  
     456A      4.791145   457A      4.797434   458A      4.806341  
     459A      4.816354   460A      4.834335   461A      4.864065  
     462A      4.867484   463A      4.907073   464A      4.932151  
     465A      4.957864   466A      4.976648   467A      5.003652  
     468A      5.013209   469A      5.021813   470A      5.039957  
     471A      5.048770   472A      5.060263   473A      5.078258  
     474A      5.087455   475A      5.095066   476A      5.119607  
     477A      5.132247   478A      5.141164   479A      5.149683  
     480A      5.165689   481A      5.187345   482A      5.203124  
     483A      5.234667   484A      5.243313   485A      5.256284  
     486A      5.264146   487A      5.271980   488A      5.310186  
     489A      5.316096   490A      5.329412   491A      5.334827  
     492A      5.358750   493A      5.372956   494A      5.381574  
     495A      5.385334   496A      5.388214   497A      5.398998  
     498A      5.439687   499A      5.449008   500A      5.464884  
     501A      5.483369   502A      5.495587   503A      5.506907  
     504A      5.540729   505A      5.547799   506A      5.557579  
     507A      5.584191   508A      5.593255   509A      5.599442  
     510A      5.612560   511A      5.619649   512A      5.622968  
     513A      5.656109   514A      5.664798   515A      5.670468  
     516A      5.685125   517A      5.726133   518A      5.738766  
     519A      5.752325   520A      5.761483   521A      5.795509  
     522A      5.816485   523A      5.830154   524A      5.842045  
     525A      5.846365   526A      5.860181   527A      5.865506  
     528A      5.885872   529A      5.894813   530A      5.909033  
     531A      5.925377   532A      5.935166   533A      5.938212  
     534A      5.961834   535A      5.979835   536A      5.992346  
     537A      6.021805   538A      6.036879   539A      6.050601  
     540A      6.056268   541A      6.130491   542A      6.151440  
     543A      6.182453   544A      6.188232   545A      6.246260  
     546A      6.311881   547A      6.316781   548A      6.331779  
     549A      6.347064   550A      6.367751   551A      6.392424  
     552A      6.453289   553A      6.486387   554A      6.535923  
     555A      6.599722   556A      6.611588   557A      6.693062  
     558A      6.846511   559A      6.870259   560A      6.899846  
     561A      6.915115   562A      7.049986   563A      7.249275  
     564A      7.263504   565A      7.374581   566A      7.485757  
     567A      7.503389   568A      7.580730   569A      7.692837  
     570A      7.897964   571A      7.985261   572A      9.999551  
     573A     12.106861   574A     13.090209   575A     13.372433  
     576A     13.451620   577A     13.721883   578A     14.020584  
     579A     14.088523   580A     14.184185   581A     14.280954  
     582A     14.706442  

    Final Occupation by Irrep:
              A 
    DOCC [    44 ]

  Energy converged.

  @DF-RHF Final Energy:  -501.22097458799203

   => Energetics <=

    Nuclear Repulsion Energy =            611.1489249604831002
    One-Electron Energy =               -1893.7808472895601426
    Two-Electron Energy =                 781.4109477410842146
    DFT Exchange-Correlation Energy =       0.0000000000000000
    Empirical Dispersion Energy =           0.0000000000000000
    PCM Polarization Energy =               0.0000000000000000
    EFP Energy =                            0.0000000000000000
    Total Energy =                       -501.2209745879928278


  Saving occupied orbitals to File 180.

*** tstop() called on cx1-27-3-2 at Sat Sep 10 23:35:27 2016
Module time:
	user time   =     139.13 seconds =       2.32 minutes
	system time =       1.96 seconds =       0.03 minutes
	total time  =         38 seconds =       0.63 minutes
Total time:
	user time   =     139.13 seconds =       2.32 minutes
	system time =       1.96 seconds =       0.03 minutes
	total time  =         38 seconds =       0.63 minutes


Properties will be evaluated at   0.000000,   0.000000,   0.000000 Bohr

Properties computed using the SCF density matrix

  Nuclear Dipole Moment: (a.u.)
     X:   -19.2969      Y:    -0.2756      Z:     0.0771

  Electronic Dipole Moment: (a.u.)
     X:    19.1157      Y:    -0.3438      Z:     0.2464

  Dipole Moment: (a.u.)
     X:    -0.1812      Y:    -0.6194      Z:     0.3235     Total:     0.7219

  Dipole Moment: (Debye)
     X:    -0.4606      Y:    -1.5744      Z:     0.8224     Total:     1.8350


*** tstart() called on cx1-27-3-2
*** at Sat Sep 10 23:35:27 2016


         ------------------------------------------------------------
                                   SCF GRAD                          
                          Rob Parrish, Justin Turney,                
                       Andy Simmonett, and Alex Sokolov              
         ------------------------------------------------------------

  ==> Geometry <==

    Molecular point group: c1
    Full point group: C1

    Geometry (in Angstrom), charge = 0, multiplicity = 1:

       Center              X                  Y                   Z               Mass       
    ------------   -----------------  -----------------  -----------------  -----------------
           O          3.237323928877     0.817125749243    -0.524067312445    15.994914619560
           C          2.716720928877    -0.083988250757     0.039801687555    12.000000000000
           C          1.264374928877    -0.147978250757     0.438454687555    12.000000000000
           O          3.362111928877    -1.180865250757     0.402355687555    15.994914619560
           C          0.471217928877     1.090655749243     0.041035687555    12.000000000000
           H          0.857280928877    -1.049983250757    -0.002242312445     1.007825032070
           H          1.234693928877    -0.302686250757     1.512472687555     1.007825032070
           C         -0.980356071123     1.075816749243     0.522233687555    12.000000000000
           H          0.499508928877     1.203277749243    -1.037197312445     1.007825032070
           H          0.969423928877     1.963391749243     0.444931687555     1.007825032070
           C         -1.864940071123     0.009085749243    -0.121196312445    12.000000000000
           H         -1.411479071123     2.051493749243     0.318881687555     1.007825032070
           H         -1.001744071123     0.957157749243     1.603317687555     1.007825032070
           C         -3.324439071123     0.101103749243     0.316047687555    12.000000000000
           H         -1.808212071123     0.104412749243    -1.203123312445     1.007825032070
           H         -1.490022071123    -0.981815250757     0.117733687555     1.007825032070
           C         -4.315079071123    -0.187228250757    -0.808350312445    12.000000000000
           H         -3.517146071123     1.093424749243     0.716675687555     1.007825032070
           H         -3.499046071123    -0.594853250757     1.133373687555     1.007825032070
           C         -5.770894071123    -0.091587250757    -0.364243312445    12.000000000000
           H         -4.141970071123     0.507540749243    -1.625693312445     1.007825032070
           H         -4.125621071123    -1.179817250757    -1.208012312445     1.007825032070
           H         -6.446938071123    -0.301839250757    -1.185061312445     1.007825032070
           H         -6.001934071123     0.900859749243     0.008286687555     1.007825032070
           H         -5.985116071123    -0.799122250757     0.429929687555     1.007825032070
           C          4.738539928877    -1.256511250757     0.091487687555    12.000000000000
           H          4.892331928877    -1.197722250757    -0.975813312445     1.007825032070
           H          5.075834928877    -2.210115250757     0.464015687555     1.007825032070
           H          5.282331928877    -0.455761250757     0.570388687555     1.007825032070

  Nuclear repulsion =  611.148924960483100

  ==> Basis Set <==

  Basis Set: CC-PVTZ
    Number of shells: 218
    Number of basis function: 582
    Number of Cartesian functions: 655
    Spherical Harmonics?: true
    Max angular momentum: 3

  ==> DFJKGrad: Density-Fitted SCF Gradients <==

    Gradient:                    1
    J tasked:                  Yes
    K tasked:                  Yes
    wK tasked:                  No
    OpenMP threads:              4
    Integrals threads:           4
    Memory (MB):              1430
    Schwarz Cutoff:          0E+00
    Fitting Condition:       1E-12

   => Auxiliary Basis Set <=

  Basis Set: 
    Number of shells: 455
    Number of basis function: 1409
    Number of Cartesian functions: 1686
    Spherical Harmonics?: true
    Max angular momentum: 4


  -Total Gradient:
     Atom            X                  Y                   Z
    ------   -----------------  -----------------  -----------------
       1       -0.000037630802     0.000024928900     0.000025061595
       2        0.000031682757    -0.000018274879    -0.000074169681
       3       -0.000071808652    -0.000019590085     0.000024327565
       4       -0.000033296748    -0.000004253002     0.000027807264
       5       -0.000034857272     0.000174702830    -0.000382262788
       6        0.000007005678    -0.000018768205     0.000008984887
       7       -0.000002056247     0.000006198399    -0.000006587669
       8       -0.002013883015     0.000955635794    -0.000129291949
       9        0.000101780475     0.000029563856     0.000025609603
      10       -0.000033548772    -0.000039574789    -0.000017705930
      11       -0.003833711950     0.001008271692     0.002088817717
      12        0.000120334167     0.000367631863     0.000283659414
      13        0.000185541845    -0.000171473140    -0.000310922689
      14        0.003912952918    -0.000665583344    -0.002461394351
      15       -0.001424884361    -0.001023444790    -0.000762571211
      16       -0.000676447608    -0.000754174416     0.001863635379
      17        0.001638300556     0.001023055841    -0.001049839167
      18        0.001619321480     0.000582734916     0.001050975328
      19        0.001048376304    -0.001828753847    -0.000164238869
      20       -0.000016983417     0.000368021028     0.000091437404
      21       -0.000281938158    -0.000105556164    -0.000377131232
      22       -0.000216226055     0.000144918699     0.000261793395
      23        0.000041558276     0.000005332187     0.000015942466
      24       -0.000078733212    -0.000038955728    -0.000032056557
      25        0.000056926949    -0.000009794029     0.000000936225
      26        0.000011465598     0.000006962099    -0.000005542851
      27       -0.000001750892    -0.000000873479     0.000002983124
      28       -0.000013879330     0.000003628446     0.000002161401
      29       -0.000003610508    -0.000002516650    -0.000000417822


*** tstop() called on cx1-27-3-2 at Sat Sep 10 23:35:59 2016
Module time:
	user time   =     123.54 seconds =       2.06 minutes
	system time =       0.93 seconds =       0.02 minutes
	total time  =         32 seconds =       0.53 minutes
Total time:
	user time   =     262.90 seconds =       4.38 minutes
	system time =       2.90 seconds =       0.05 minutes
	total time  =         70 seconds =       1.17 minutes

			-----------------------------------------
			 OPTKING 2.0: for geometry optimizations 
			  - R.A. King,  Bethel University        
			-----------------------------------------

	Internal coordinates to be generated automatically.
	Detected frag 1 with atoms:  1 2 3 4 5 6 7 8 9 10 11 12 13 14 15 16 17 18 19 20
	 21 22 23 24 25 26 27 28 29
	---Fragment 1 Bond Connectivity---
	 1 : 2
	 2 : 1 3 4
	 3 : 2 5 6 7
	 4 : 2 26
	 5 : 3 8 9 10
	 6 : 3
	 7 : 3
	 8 : 5 11 12 13
	 9 : 5
	 10 : 5
	 11 : 8 14 15 16
	 12 : 8
	 13 : 8
	 14 : 11 17 18 19
	 15 : 11
	 16 : 11
	 17 : 14 20 21 22
	 18 : 14
	 19 : 14
	 20 : 17 23 24 25
	 21 : 17
	 22 : 17
	 23 : 20
	 24 : 20
	 25 : 20
	 26 : 4 27 28 29
	 27 : 26
	 28 : 26
	 29 : 26

	Assuming in current code that numbering for constraints corresponds to unified fragment.
	Frozen dihedral atom list: 
	    17    14    11    15
	---Fragment 1 Geometry and Gradient---
	 O           6.1176556290        1.5441438822       -0.9903436957
	 C           5.1338585351       -0.1587147923        0.0752142891
	 C           2.3893223449       -0.2796383676        0.8285592812
	 O           6.3534707737       -2.2315119238        0.7603420575
	 C           0.8904728345        2.0610406713        0.0775462112
	 H           1.6200261745       -1.9841807880       -0.0042373564
	 H           2.3332333835       -0.5719941181        2.8581591629
	 C          -1.8526044871        2.0329990252        0.9868786468
	 H           0.9439350765        2.2738654079       -1.9600188663
	 H           1.8319457322        3.7102726976        0.8407990373
	 C          -3.5242259887        0.0171695778       -0.2290278388
	 H          -2.6673088867        3.8767613494        0.6025990583
	 H          -1.8930219497        1.8087660120        3.0298313335
	 C          -6.2822793899        0.1910583971        0.5972435744
	 H          -3.4170256046        0.1973115009       -2.2735735646
	 H          -2.8157336464       -1.8553619370        0.2224844261
	 C          -8.1543176862       -0.3538101183       -1.5275607100
	 H          -6.6464428438        2.0662733230        1.3543207756
	 H          -6.6122388008       -1.1241097332        2.1417658757
	 C         -10.9054093363       -0.1730748212       -0.6883201063
	 H          -7.8271890850        0.9591130173       -3.0721151366
	 H          -7.7962939525       -2.2295314908       -2.2828124357
	 H         -12.1829473501       -0.5703935201       -2.2394413312
	 H         -11.3420116621        1.7023782102        0.0156595700
	 H         -11.3102302480       -1.5101222006        0.8124493659
	 C           8.9545427353       -2.3744621468        0.1728866740
	 H           9.2451674967       -2.2633670372       -1.8440199173
	 H           9.5919379113       -4.1765125460        0.8768625708
	 H           9.9821606886       -0.8612639459        1.0778784088
	            -0.0000376308        0.0000249289        0.0000250616
	             0.0000316828       -0.0000182749       -0.0000741697
	            -0.0000718087       -0.0000195901        0.0000243276
	            -0.0000332967       -0.0000042530        0.0000278073
	            -0.0000348573        0.0001747028       -0.0003822628
	             0.0000070057       -0.0000187682        0.0000089849
	            -0.0000020562        0.0000061984       -0.0000065877
	            -0.0020138830        0.0009556358       -0.0001292919
	             0.0001017805        0.0000295639        0.0000256096
	            -0.0000335488       -0.0000395748       -0.0000177059
	            -0.0038337120        0.0010082717        0.0020888177
	             0.0001203342        0.0003676319        0.0002836594
	             0.0001855418       -0.0001714731       -0.0003109227
	             0.0039129529       -0.0006655833       -0.0024613944
	            -0.0014248844       -0.0010234448       -0.0007625712
	            -0.0006764476       -0.0007541744        0.0018636354
	             0.0016383006        0.0010230558       -0.0010498392
	             0.0016193215        0.0005827349        0.0010509753
	             0.0010483763       -0.0018287538       -0.0001642389
	            -0.0000169834        0.0003680210        0.0000914374
	            -0.0002819382       -0.0001055562       -0.0003771312
	            -0.0002162261        0.0001449187        0.0002617934
	             0.0000415583        0.0000053322        0.0000159425
	            -0.0000787332       -0.0000389557       -0.0000320566
	             0.0000569269       -0.0000097940        0.0000009362
	             0.0000114656        0.0000069621       -0.0000055429
	            -0.0000017509       -0.0000008735        0.0000029831
	            -0.0000138793        0.0000036284        0.0000021614
	            -0.0000036105       -0.0000025166       -0.0000004178

	Previous optimization step data not found.  Starting new optimization.

	---Fragment 1 Intrafragment Coordinates---
	 - Coordinate -           - BOHR/RAD -       - ANG/DEG -
	 R(1,2)           =         2.236738	       1.183631
	 R(2,3)           =         2.848619	       1.507424
	 R(2,4)           =         2.500668	       1.323297
	 R(3,5)           =         2.879123	       1.523566
	 R(3,6)           =         2.047152	       1.083306
	 R(3,7)           =         2.051315	       1.085509
	 R(4,26)          =         2.670415	       1.413123
	 R(5,8)           =         2.890008	       1.529326
	 R(5,9)           =         2.049347	       1.084468
	 R(5,10)          =         2.046678	       1.083056
	 R(8,11)          =         2.887268	       1.527876
	 R(8,12)          =         2.052041	       1.085893
	 R(8,13)          =         2.055619	       1.087787
	 R(11,14)         =         2.884410	       1.526364
	 R(11,15)         =         2.055264	       1.087599
	 R(11,16)         =         2.052364	       1.086064
	 R(14,17)         =         2.883783	       1.526032
	 R(14,18)         =         2.054802	       1.087354
	 R(14,19)         =         2.055259	       1.087596
	 R(17,20)         =         2.881926	       1.525049
	 R(17,21)         =         2.053394	       1.086610
	 R(17,22)         =         2.053513	       1.086672
	 R(20,23)         =         2.048400	       1.083967
	 R(20,24)         =         2.050252	       1.084947
	 R(20,25)         =         2.050338	       1.084992
	 R(26,27)         =         2.040764	       1.079926
	 R(26,28)         =         2.036968	       1.077917
	 R(26,29)         =         2.040779	       1.079934
	 B(1,2,3)         =         2.192066	     125.596148
	 B(1,2,4)         =         2.149640	     123.165306
	 B(2,3,5)         =         1.980215	     113.457967
	 B(2,3,6)         =         1.864834	     106.847136
	 B(2,3,7)         =         1.869262	     107.100822
	 B(2,4,26)        =         2.047835	     117.332296
	 B(3,2,4)         =         1.941479	     111.238545
	 B(3,5,8)         =         1.986858	     113.838604
	 B(3,5,9)         =         1.907307	     109.280648
	 B(3,5,10)        =         1.894796	     108.563808
	 B(4,26,27)       =         1.931799	     110.683937
	 B(4,26,28)       =         1.850549	     106.028674
	 B(4,26,29)       =         1.931807	     110.684415
	 B(5,3,6)         =         1.955383	     112.035171
	 B(5,3,7)         =         1.938763	     111.082960
	 B(5,8,11)        =         2.008429	     115.074487
	 B(5,8,12)        =         1.885143	     108.010748
	 B(5,8,13)        =         1.909674	     109.416272
	 B(6,3,7)         =         1.847885	     105.876032
	 B(8,5,9)         =         1.916232	     109.792020
	 B(8,5,10)        =         1.904022	     109.092446
	 B(8,11,14)       =         1.972377	     113.008884
	 B(8,11,15)       =         1.904493	     109.119411
	 B(8,11,16)       =         1.922496	     110.150907
	 B(9,5,10)        =         1.849485	     105.967685
	 B(11,8,12)       =         1.895039	     108.577729
	 B(11,8,13)       =         1.908148	     109.328824
	 B(11,14,17)      =         1.980421	     113.469740
	 B(11,14,18)      =         1.907125	     109.270190
	 B(11,14,19)      =         1.907321	     109.281453
	 B(12,8,13)       =         1.850757	     106.040578
	 B(14,11,15)      =         1.906631	     109.241907
	 B(14,11,16)      =         1.898710	     108.788065
	 B(14,17,20)      =         1.974987	     113.158445
	 B(14,17,21)      =         1.907100	     109.268764
	 B(14,17,22)      =         1.907516	     109.292629
	 B(15,11,16)      =         1.855437	     106.308687
	 B(17,14,18)      =         1.905886	     109.199236
	 B(17,14,19)      =         1.905605	     109.183120
	 B(17,20,23)      =         1.941944	     111.265174
	 B(17,20,24)      =         1.939750	     111.139483
	 B(17,20,25)      =         1.939852	     111.145341
	 B(18,14,19)      =         1.853175	     106.179087
	 B(20,17,21)      =         1.908187	     109.331056
	 B(20,17,22)      =         1.907966	     109.318413
	 B(21,17,22)      =         1.854186	     106.237028
	 B(23,20,24)      =         1.880338	     107.735457
	 B(23,20,25)      =         1.880358	     107.736596
	 B(24,20,25)      =         1.878782	     107.646301
	 B(27,26,28)      =         1.923203	     110.191409
	 B(27,26,29)      =         1.903073	     109.038046
	 B(28,26,29)      =         1.923190	     110.190647
	 D(1,2,3,5)       =         0.002905	       0.166455
	 D(1,2,3,6)       =         2.166544	     124.133806
	 D(1,2,3,7)       =        -2.142814	    -122.774223
	 D(1,2,4,26)      =         0.000921	       0.052756
	 D(2,3,5,8)       =        -3.074715	    -176.168177
	 D(2,3,5,9)       =         1.059192	      60.687212
	 D(2,3,5,10)      =        -0.950475	     -54.458233
	 D(2,4,26,27)     =        -1.056797	     -60.549989
	 D(2,4,26,28)     =         3.140832	     179.956439
	 D(2,4,26,29)     =         1.055288	      60.463520
	 D(3,2,4,26)      =        -3.140486	    -179.936598
	 D(3,5,8,11)      =        -1.164223	     -66.705081
	 D(3,5,8,12)      =         2.998986	     171.829243
	 D(3,5,8,13)      =         0.991794	      56.825611
	 D(4,2,3,5)       =        -3.138879	    -179.844504
	 D(4,2,3,6)       =        -0.975240	     -55.877153
	 D(4,2,3,7)       =         0.998587	      57.214818
	 D(5,8,11,14)     =        -3.068577	    -175.816486
	 D(5,8,11,15)     =        -0.943705	     -54.070321
	 D(5,8,11,16)     =         1.086920	      62.275916
	 D(6,3,5,8)       =         1.094963	      62.736767
	 D(6,3,5,9)       =        -1.054316	     -60.407844
	 D(6,3,5,10)      =        -3.063983	    -175.553289
	 D(7,3,5,8)       =        -0.967759	     -55.448485
	 D(7,3,5,9)       =        -3.117038	    -178.593096
	 D(7,3,5,10)      =         1.156481	      66.261459
	 D(8,11,14,17)    =         2.472734	     141.677201
	 D(8,11,14,18)    =         0.341463	      19.564380
	 D(8,11,14,19)    =        -1.679399	     -96.222487
	 D(9,5,8,11)      =         0.980180	      56.160171
	 D(9,5,8,12)      =        -1.139796	     -65.305505
	 D(9,5,8,13)      =         3.136197	     179.690863
	 D(10,5,8,11)     =         2.999844	     171.878394
	 D(10,5,8,12)     =         0.879868	      50.412718
	 D(10,5,8,13)     =        -1.127324	     -64.590913
	 D(11,14,17,20)   =        -3.140285	    -179.925070
	 D(11,14,17,21)   =        -1.009785	     -57.856436
	 D(11,14,17,22)   =         1.012382	      58.005242
	 D(12,8,11,14)    =        -0.953979	     -54.658968
	 D(12,8,11,15)    =         1.170892	      67.087197
	 D(12,8,11,16)    =        -3.081668	    -176.566566
	 D(13,8,11,14)    =         1.057782	      60.606461
	 D(13,8,11,15)    =        -3.100532	    -177.647375
	 D(13,8,11,16)    =        -1.069907	     -61.301137
	 D(14,17,20,23)   =        -3.141369	    -179.987162
	 D(14,17,20,24)   =         1.046330	      59.950285
	 D(14,17,20,25)   =        -1.045788	     -59.919222
	*D(15,11,14,17)   =         0.349066	      19.999998
	 D(15,11,14,18)   =        -1.782205	    -102.112822
	 D(15,11,14,19)   =         2.480118	     142.100310
	 D(16,11,14,17)   =        -1.669455	     -95.652730
	 D(16,11,14,18)   =         2.482459	     142.234450
	 D(16,11,14,19)   =         0.461597	      26.447582
	 D(18,14,17,20)   =        -1.008326	     -57.772833
	 D(18,14,17,21)   =         1.122173	      64.295801
	 D(18,14,17,22)   =        -3.138844	    -179.842521
	 D(19,14,17,20)   =         1.010895	      57.919989
	 D(19,14,17,21)   =         3.141394	     179.988624
	 D(19,14,17,22)   =        -1.119623	     -64.149699
	 D(21,17,20,23)   =         1.011925	      57.979045
	 D(21,17,20,24)   =        -1.083562	     -62.083508
	 D(21,17,20,25)   =         3.107506	     178.046985
	 D(22,17,20,23)   =        -1.011102	     -57.931894
	 D(22,17,20,24)   =        -3.106589	    -177.994446
	 D(22,17,20,25)   =         1.084479	      62.136047

	Current energy   :      -501.2209745880

	Generating empirical Hessian (Schlegel '84) for each fragment.
	Taking RFO optimization step.
	Going to follow RFO solution 1.
	Using RFO vector 1.
	Norm of target step-size    0.32786
	Projected energy change by RFO approximation:        -0.0007656214

	Back-transformation to cartesian coordinates...
	Could not converge backtransformation.
	Using first guess instead.

	Back-transformation to cartesian coordinates to adjust frozen coordinates...
	Successfully converged to displaced geometry.

	--- Internal Coordinate Step in ANG or DEG, aJ/ANG or AJ/DEG ---
	 ---------------------------------------------------------------------------
	   Coordinate                Previous        Force       Change         New 
	   ----------                --------       ------       ------       ------
	    1 R(1,2)          =      1.183631     0.000078     0.000519     1.184150
	    2 R(2,3)          =      1.507424     0.000322     0.000698     1.508123
	    3 R(2,4)          =      1.323297     0.000124     0.000451     1.323748
	    4 R(3,5)          =      1.523566     0.000327     0.000562     1.524129
	    5 R(3,6)          =      1.083306    -0.000077     0.000162     1.083468
	    6 R(3,7)          =      1.085509     0.000061     0.000379     1.085888
	    7 R(4,26)         =      1.413123     0.000064     0.000551     1.413673
	    8 R(5,8)          =      1.529326    -0.000340     0.000553     1.529879
	    9 R(5,9)          =      1.084468     0.000163     0.000339     1.084807
	   10 R(5,10)         =      1.083056     0.000444     0.000287     1.083343
	   11 R(8,11)         =      1.527876     0.002914     0.001305     1.529181
	   12 R(8,12)         =      1.085893    -0.001890    -0.000013     1.085880
	   13 R(8,13)         =      1.087787     0.002422     0.000835     1.088622
	   14 R(11,14)        =      1.526364     0.067392     0.017152     1.543516
	   15 R(11,15)        =      1.087599    -0.004899     0.000230     1.087829
	   16 R(11,16)        =      1.086064    -0.007123     0.001616     1.087680
	   17 R(14,17)        =      1.526032     0.001661     0.001156     1.527189
	   18 R(14,18)        =      1.087354    -0.005207    -0.000149     1.087205
	   19 R(14,19)        =      1.087596    -0.007238    -0.000301     1.087296
	   20 R(17,20)        =      1.525049    -0.000329     0.007169     1.532219
	   21 R(17,21)        =      1.086610    -0.001411     0.005635     1.092245
	   22 R(17,22)        =      1.086672     0.002194     0.004772     1.091444
	   23 R(20,23)        =      1.083967     0.000322     0.000602     1.084569
	   24 R(20,24)        =      1.084947     0.000246     0.004803     1.089750
	   25 R(20,25)        =      1.084992     0.000034     0.006170     1.091162
	   26 R(26,27)        =      1.079926     0.000027     0.000291     1.080216
	   27 R(26,28)        =      1.077917     0.000056     0.000385     1.078303
	   28 R(26,29)        =      1.079934     0.000032     0.000243     1.080177
	   29 B(1,2,3)        =    125.596148     0.000002     0.012646   125.608795
	   30 B(1,2,4)        =    123.165306    -0.000005    -0.015628   123.149678
	   31 B(2,3,5)        =    113.457967     0.000003     0.006146   113.464112
	   32 B(2,3,6)        =    106.847136    -0.000000     0.022392   106.869528
	   33 B(2,3,7)        =    107.100822    -0.000002    -0.010328   107.090494
	   34 B(2,4,26)       =    117.332296    -0.000000    -0.007218   117.325078
	   35 B(3,2,4)        =    111.238545     0.000003     0.002796   111.241342
	   36 B(3,5,8)        =    113.838604     0.000015     0.044604   113.883208
	   37 B(3,5,9)        =    109.280648    -0.000001     0.024964   109.305612
	   38 B(3,5,10)       =    108.563808    -0.000006    -0.023787   108.540021
	   39 B(4,26,27)      =    110.683937    -0.000000    -0.009727   110.674211
	   40 B(4,26,28)      =    106.028674     0.000002     0.000279   106.028953
	   41 B(4,26,29)      =    110.684415    -0.000000     0.021780   110.706195
	   42 B(5,3,6)        =    112.035171    -0.000002    -0.027136   112.008035
	   43 B(5,3,7)        =    111.082960    -0.000000     0.023641   111.106601
	   44 B(5,8,11)       =    115.074487     0.000031     0.145801   115.220288
	   45 B(5,8,12)       =    108.010748     0.000012     0.070995   108.081743
	   46 B(5,8,13)       =    109.416272    -0.000015    -0.012872   109.403400
	   47 B(6,3,7)        =    105.876032     0.000001    -0.015714   105.860318
	   48 B(8,5,9)        =    109.792020    -0.000010    -0.069398   109.722622
	   49 B(8,5,10)       =    109.092446    -0.000002     0.024998   109.117444
	   50 B(8,11,14)      =    113.008884     0.000120     0.659403   113.668287
	   51 B(8,11,15)      =    109.119411    -0.000039     0.668722   109.788132
	   52 B(8,11,16)      =    110.150907    -0.000087    -0.750263   109.400645
	   53 B(9,5,10)       =    105.967685     0.000004    -0.004205   105.963480
	   54 B(11,8,12)      =    108.577729    -0.000036    -0.263443   108.314286
	   55 B(11,8,13)      =    109.328824    -0.000000     0.025966   109.354790
	   56 B(11,14,17)     =    113.469740     0.000055     0.284283   113.754023
	   57 B(11,14,18)     =    109.270190     0.000064     0.289493   109.559683
	   58 B(11,14,19)     =    109.281453     0.000040     0.868904   110.150357
	   59 B(12,8,13)      =    106.040578     0.000006     0.022468   106.063046
	   60 B(14,11,15)     =    109.241907     0.000028     0.832179   110.074086
	   61 B(14,11,16)     =    108.788065     0.000006    -0.118660   108.669405
	   62 B(14,17,20)     =    113.158445     0.000034     0.022776   113.181221
	   63 B(14,17,21)     =    109.268764    -0.000039    -0.217365   109.051399
	   64 B(14,17,22)     =    109.292629    -0.000004    -0.221889   109.070740
	   65 B(15,11,16)     =    106.308687    -0.000036    -1.449413   104.859274
	   66 B(17,14,18)     =    109.199236    -0.000095    -1.397795   107.801441
	   67 B(17,14,19)     =    109.183120    -0.000049     0.306747   109.489866
	   68 B(17,20,23)     =    111.265174     0.000003    -0.124647   111.140527
	   69 B(17,20,24)     =    111.139483    -0.000010     0.136743   111.276226
	   70 B(17,20,25)     =    111.145341     0.000007     0.065345   111.210686
	   71 B(18,14,19)     =    106.179087    -0.000020    -0.427100   105.751987
	   72 B(20,17,21)     =    109.331056     0.000014     0.156390   109.487446
	   73 B(20,17,22)     =    109.318413    -0.000012     0.217988   109.536401
	   74 B(21,17,22)     =    106.237028     0.000006     0.041907   106.278935
	   75 B(23,20,24)     =    107.735457     0.000003    -0.182759   107.552698
	   76 B(23,20,25)     =    107.736596    -0.000004     0.078962   107.815558
	   77 B(24,20,25)     =    107.646301     0.000000     0.021720   107.668021
	   78 B(27,26,28)     =    110.191409    -0.000000     0.021219   110.212628
	   79 B(27,26,29)     =    109.038046    -0.000000    -0.019354   109.018692
	   80 B(28,26,29)     =    110.190647    -0.000000    -0.013328   110.177319
	   81 D(1,2,3,5)      =      0.166455    -0.000000    -0.088927     0.077528
	   82 D(1,2,3,6)      =    124.133806    -0.000000    -0.103147   124.030659
	   83 D(1,2,3,7)      =   -122.774223    -0.000000    -0.115487  -122.889710
	   84 D(1,2,4,26)     =      0.052756     0.000000     0.075509     0.128265
	   85 D(2,3,5,8)      =   -176.168177    -0.000000     0.050049  -176.118128
	   86 D(2,3,5,9)      =     60.687212     0.000000     0.089994    60.777206
	   87 D(2,3,5,10)     =    -54.458233     0.000000     0.094575   -54.363658
	   88 D(2,4,26,27)    =    -60.549989     0.000000     0.025840   -60.524148
	   89 D(2,4,26,28)    =    179.956439     0.000000     0.005516   179.961955
	   90 D(2,4,26,29)    =     60.463520    -0.000000     0.009492    60.473012
	   91 D(3,2,4,26)     =   -179.936598    -0.000000    -0.084060  -180.020658
	   92 D(3,5,8,11)     =    -66.705081    -0.000002    -0.486478   -67.191559
	   93 D(3,5,8,12)     =    171.829243     0.000001    -0.296912   171.532331
	   94 D(3,5,8,13)     =     56.825611     0.000000    -0.355149    56.470462
	   95 D(4,2,3,5)      =   -179.844504     0.000000     0.075395  -179.769109
	   96 D(4,2,3,6)      =    -55.877153     0.000000     0.061175   -55.815978
	   97 D(4,2,3,7)      =     57.214818     0.000000     0.048835    57.263653
	   98 D(5,8,11,14)    =   -175.816486    -0.000008    -5.350419  -181.166905
	   99 D(5,8,11,15)    =    -54.070321     0.000012    -3.318755   -57.389076
	  100 D(5,8,11,16)    =     62.275916    -0.000015    -5.104633    57.171283
	  101 D(6,3,5,8)      =     62.736767    -0.000000     0.036482    62.773250
	  102 D(6,3,5,9)      =    -60.407844     0.000000     0.076428   -60.331416
	  103 D(6,3,5,10)     =   -175.553289     0.000000     0.081009  -175.472280
	  104 D(7,3,5,8)      =    -55.448485    -0.000000     0.058329   -55.390156
	  105 D(7,3,5,9)      =   -178.593096     0.000000     0.098275  -178.494822
	  106 D(7,3,5,10)     =     66.261459     0.000000     0.102855    66.364314
	  107 D(8,11,14,17)   =    141.677201     0.000012     1.945151   143.622351
	  108 D(8,11,14,18)   =     19.564380     0.000020     3.338633    22.903013
	  109 D(8,11,14,19)   =    -96.222487     0.000013     3.196621   -93.025867
	  110 D(9,5,8,11)     =     56.160171    -0.000002    -0.474716    55.685455
	  111 D(9,5,8,12)     =    -65.305505     0.000002    -0.285150   -65.590655
	  112 D(9,5,8,13)     =    179.690863     0.000000    -0.343387   179.347476
	  113 D(10,5,8,11)    =    171.878394    -0.000002    -0.504305   171.374089
	  114 D(10,5,8,12)    =     50.412718     0.000001    -0.314739    50.097979
	  115 D(10,5,8,13)    =    -64.590913    -0.000000    -0.372977   -64.963890
	  116 D(11,14,17,20)  =   -179.925070    -0.000003    -2.503646  -182.428716
	  117 D(11,14,17,21)  =    -57.856436     0.000000    -2.444877   -60.301312
	  118 D(11,14,17,22)  =     58.005242    -0.000004    -2.638087    55.367155
	  119 D(12,8,11,14)   =    -54.658968    -0.000006    -5.357991   -60.016959
	  120 D(12,8,11,15)   =     67.087197     0.000014    -3.326327    63.760869
	  121 D(12,8,11,16)   =   -176.566566    -0.000012    -5.112205  -181.678772
	  122 D(13,8,11,14)   =     60.606461    -0.000009    -5.461049    55.145412
	  123 D(13,8,11,15)   =   -177.647375     0.000011    -3.429385  -181.076759
	  124 D(13,8,11,16)   =    -61.301137    -0.000015    -5.215263   -66.516401
	  125 D(14,17,20,23)  =   -179.987162    -0.000002    -0.327687  -180.314849
	  126 D(14,17,20,24)  =     59.950285    -0.000002    -0.104537    59.845749
	  127 D(14,17,20,25)  =    -59.919222    -0.000002    -0.267585   -60.186807
	  128 *D(15,11,14,17) =     19.999998    -0.000000    -0.000000    19.999998
	  129 D(15,11,14,18)  =   -102.112822     0.000009     1.393483  -100.719340
	  130 D(15,11,14,19)  =    142.100310     0.000001     1.251470   143.351780
	  131 D(16,11,14,17)  =    -95.652730     0.000006     1.342768   -94.309962
	  132 D(16,11,14,18)  =    142.234450     0.000014     2.736251   144.970700
	  133 D(16,11,14,19)  =     26.447582     0.000007     2.594238    29.041820
	  134 D(18,14,17,20)  =    -57.772833     0.000009    -2.955295   -60.728128
	  135 D(18,14,17,21)  =     64.295801     0.000012    -2.896525    61.399276
	  136 D(18,14,17,22)  =   -179.842521     0.000008    -3.089735  -182.932257
	  137 D(19,14,17,20)  =     57.919989    -0.000015    -4.059722    53.860268
	  138 D(19,14,17,21)  =    179.988624    -0.000012    -4.000952   175.987672
	  139 D(19,14,17,22)  =    -64.149699    -0.000016    -4.194162   -68.343861
	  140 D(21,17,20,23)  =     57.979045     0.000002    -0.177393    57.801652
	  141 D(21,17,20,24)  =    -62.083508     0.000002     0.045757   -62.037751
	  142 D(21,17,20,25)  =    178.046985     0.000002    -0.117291   177.929694
	  143 D(22,17,20,23)  =    -57.931894    -0.000000    -0.439101   -58.370995
	  144 D(22,17,20,24)  =   -177.994446    -0.000000    -0.215952  -178.210398
	  145 D(22,17,20,25)  =     62.136047     0.000000    -0.379000    61.757047
	 ---------------------------------------------------------------------------
	Successfully symmetrized geometry.

  ==> Convergence Check <==

  Measures of convergence in internal coordinates in au.
  Criteria marked as inactive (o), active & met (*), and active & unmet ( ).
  --------------------------------------------------------------------------------------------- ~
   Step     Total Energy     Delta E     MAX Force     RMS Force      MAX Disp      RMS Disp    ~
  --------------------------------------------------------------------------------------------- ~
    Convergence Criteria    1.00e-06 *    3.00e-04 *             o    1.20e-03 *             o  ~
  --------------------------------------------------------------------------------------------- ~
      1    -501.22097459   -5.01e+02      8.18e-03      7.86e-04 o    9.53e-02      2.74e-02 o  ~
  ---------------------------------------------------------------------------------------------

	Writing optimization data to binary file.
	Structure for next step:
	Cartesian Geometry (in Angstrom)
	    O     3.2766407524   0.7966061856  -0.4875584009
	    C     2.7258726818  -0.0970714663   0.0603523470
	    C     1.2630606797  -0.1353424001   0.4252501426
	    O     3.3415681733  -1.2091628781   0.4297849888
	    C     0.5026846660   1.1208871005   0.0169804840
	    H     0.8486207372  -1.0268126841  -0.0301880015
	    H     1.2057691817  -0.2959104453   1.4976716945
	    C    -0.9599790470   1.1327665981   0.4653138747
	    H     0.5564060381   1.2384865797  -1.0600945709
	    H     1.0093196787   1.9817589157   0.4363282985
	    C    -1.8571292333   0.0951817697  -0.2106547678
	    H    -1.3665468151   2.1190944935   0.2628390763
	    H    -1.0083458266   1.0028659308   1.5450749543
	    C    -3.3175563976   0.1196533517   0.2883390656
	    H    -1.8288854566   0.2309205505  -1.2896125153
	    H    -1.4488024867  -0.8990435667  -0.0438204865
	    C    -4.3460019780  -0.1618843317  -0.8049774526
	    H    -3.5412452945   1.0957459139   0.7116851895
	    H    -3.4477911917  -0.5912729564   1.1006410748
	    C    -5.7866965826  -0.1928952387  -0.2842747464
	    H    -4.2562014224   0.5990297935  -1.5834016643
	    H    -4.1091340027  -1.1153637300  -1.2803944920
	    H    -6.4887033087  -0.3894502287  -1.0872950662
	    H    -6.0638877497   0.7585360143   0.1690448730
	    H    -5.9169703433  -0.9698735771   0.4706875340
	    C     4.7232275832  -1.3101973662   0.1482158862
	    H     4.9012786173  -1.2474323081  -0.9153750303
	    H     5.0335898043  -2.2729492226   0.5217405426
	    H     5.2725974802  -0.5233980694   0.6441211075
			--------------------------
			 OPTKING Finished Execution 
			--------------------------

    Structure for next step:
    Molecular point group: c1
    Full point group: C1

    Geometry (in Angstrom), charge = 0, multiplicity = 1:

    O            3.274003919050     0.796941911956    -0.490092094886
    C            2.723235848497    -0.096735739923     0.057818652928
    C            1.260423846344    -0.135006673756     0.422716448611
    O            3.338931339962    -1.208827151788     0.427251294766
    C            0.500047832682     1.121222826876     0.014446790009
    H            0.845983903868    -1.026476957713    -0.032721695540
    H            1.203132348323    -0.295574718959     1.495138000519
    C           -0.962615880346     1.133102324448     0.462780180683
    H            0.553769204727     1.238822306005    -1.062628264926
    H            1.006682845376     1.982094642075     0.433794604443
    C           -1.859766066634     0.095517496095    -0.213188461811
    H           -1.369183648453     2.119430219871     0.260305382240
    H           -1.010982659933     1.003201657123     1.542541260305
    C           -3.320193230943     0.119989078035     0.285805371623
    H           -1.831522289991     0.231256276818    -1.292146209364
    H           -1.451439320047    -0.898707840333    -0.046354180542
    C           -4.348638811313    -0.161548605352    -0.807511146637
    H           -3.543882127805     1.096081640231     0.709151495494
    H           -3.450428025096    -0.590937230072     1.098107380775
    C           -5.789333415980    -0.192559512364    -0.286808440429
    H           -4.258838255786     0.599365519868    -1.585935358325
    H           -4.111770836031    -1.115028003690    -1.282928186035
    H           -6.491340142096    -0.389114502385    -1.089828760262
    H           -6.066524582997     0.758871740648     0.166511178933
    H           -5.919607176630    -0.969537850780     0.468153839975
    C            4.720590749828    -1.309861639830     0.145682192216
    H            4.898641783971    -1.247096581720    -0.917908724374
    H            5.030952971002    -2.272613496203     0.519206848526
    H            5.269960646838    -0.523062343051     0.641587413472

gradient() will perform analytic gradient computation.

*** tstart() called on cx1-27-3-2
*** at Sat Sep 10 23:36:01 2016


         ---------------------------------------------------------
                                   SCF
            by Justin Turney, Rob Parrish, and Andy Simmonett
                              RHF Reference
                        4 Threads,   2000 MiB Core
         ---------------------------------------------------------

  ==> Geometry <==

    Molecular point group: c1
    Full point group: C1

    Geometry (in Angstrom), charge = 0, multiplicity = 1:

       Center              X                  Y                   Z               Mass       
    ------------   -----------------  -----------------  -----------------  -----------------
           O          3.274003919050     0.796941911956    -0.490092094886    15.994914619560
           C          2.723235848497    -0.096735739923     0.057818652928    12.000000000000
           C          1.260423846344    -0.135006673756     0.422716448611    12.000000000000
           O          3.338931339962    -1.208827151788     0.427251294766    15.994914619560
           C          0.500047832682     1.121222826876     0.014446790009    12.000000000000
           H          0.845983903868    -1.026476957713    -0.032721695540     1.007825032070
           H          1.203132348323    -0.295574718959     1.495138000519     1.007825032070
           C         -0.962615880346     1.133102324448     0.462780180683    12.000000000000
           H          0.553769204727     1.238822306005    -1.062628264926     1.007825032070
           H          1.006682845376     1.982094642075     0.433794604443     1.007825032070
           C         -1.859766066634     0.095517496095    -0.213188461811    12.000000000000
           H         -1.369183648453     2.119430219871     0.260305382240     1.007825032070
           H         -1.010982659933     1.003201657123     1.542541260305     1.007825032070
           C         -3.320193230943     0.119989078035     0.285805371623    12.000000000000
           H         -1.831522289991     0.231256276818    -1.292146209364     1.007825032070
           H         -1.451439320047    -0.898707840333    -0.046354180542     1.007825032070
           C         -4.348638811313    -0.161548605352    -0.807511146637    12.000000000000
           H         -3.543882127805     1.096081640231     0.709151495494     1.007825032070
           H         -3.450428025096    -0.590937230072     1.098107380775     1.007825032070
           C         -5.789333415980    -0.192559512364    -0.286808440429    12.000000000000
           H         -4.258838255786     0.599365519868    -1.585935358325     1.007825032070
           H         -4.111770836031    -1.115028003690    -1.282928186035     1.007825032070
           H         -6.491340142096    -0.389114502385    -1.089828760262     1.007825032070
           H         -6.066524582997     0.758871740648     0.166511178933     1.007825032070
           H         -5.919607176630    -0.969537850780     0.468153839975     1.007825032070
           C          4.720590749828    -1.309861639830     0.145682192216    12.000000000000
           H          4.898641783971    -1.247096581720    -0.917908724374     1.007825032070
           H          5.030952971002    -2.272613496203     0.519206848526     1.007825032070
           H          5.269960646838    -0.523062343051     0.641587413472     1.007825032070

  Running in c1 symmetry.

  Rotational constants: A =      0.12126  B =      0.00910  C =      0.00878 [cm^-1]
  Rotational constants: A =   3635.23922  B =    272.77344  C =    263.06829 [MHz]
  Nuclear repulsion =  609.799871758156428

  Charge       = 0
  Multiplicity = 1
  Electrons    = 88
  Nalpha       = 44
  Nbeta        = 44

  ==> Algorithm <==

  SCF Algorithm Type is DF.
  DIIS enabled.
  MOM disabled.
  Fractional occupation disabled.
  Guess Type is READ.
  Energy threshold   = 1.00e-08
  Density threshold  = 1.00e-08
  Integral threshold = 0.00e+00

  ==> Primary Basis <==

  Basis Set: CC-PVTZ
    Number of shells: 218
    Number of basis function: 582
    Number of Cartesian functions: 655
    Spherical Harmonics?: true
    Max angular momentum: 3

  ==> Pre-Iterations <==

   -------------------------------------------------------
    Irrep   Nso     Nmo     Nalpha   Nbeta   Ndocc  Nsocc
   -------------------------------------------------------
     A        582     582       0       0       0       0
   -------------------------------------------------------
    Total     582     582      44      44      44       0
   -------------------------------------------------------

  ==> Integral Setup <==

  ==> DFJK: Density-Fitted J/K Matrices <==

    J tasked:                  Yes
    K tasked:                  Yes
    wK tasked:                  No
    OpenMP threads:              4
    Integrals threads:           4
    Memory (MB):              1430
    Algorithm:                Core
    Integral Cache:           NONE
    Schwarz Cutoff:          1E-12
    Fitting Condition:       1E-12

   => Auxiliary Basis Set <=

  Basis Set: 
    Number of shells: 455
    Number of basis function: 1409
    Number of Cartesian functions: 1686
    Spherical Harmonics?: true
    Max angular momentum: 4

  Minimum eigenvalue in the overlap matrix is 2.0227432227E-04.
  Using Symmetric Orthogonalization.
  SCF Guess: Reading in previously saved MOs, projecting if necessary.

  Using orbitals from previous SCF, no projection.
  Recomputing DOCC and SOCC from number of alpha and beta electrons from previous calculation.
              A 
    DOCC [    44 ]

  ==> Iterations <==

                           Total Energy        Delta E     RMS |[F,P]|

   @DF-RHF iter   0:  -501.17776287387562   -5.01178e+02   2.90567e-04 
   @DF-RHF iter   1:  -501.22010176819856   -4.23389e-02   5.51535e-05 
   @DF-RHF iter   2:  -501.22096476762169   -8.62999e-04   1.94389e-05 DIIS
   @DF-RHF iter   3:  -501.22107349932628   -1.08732e-04   8.14066e-06 DIIS
   @DF-RHF iter   4:  -501.22109042090017   -1.69216e-05   1.10566e-06 DIIS
   @DF-RHF iter   5:  -501.22109089993444   -4.79034e-07   5.12379e-07 DIIS
   @DF-RHF iter   6:  -501.22109096927454   -6.93401e-08   1.72626e-07 DIIS
   @DF-RHF iter   7:  -501.22109097934015   -1.00656e-08   7.34440e-08 DIIS
   @DF-RHF iter   8:  -501.22109098161843   -2.27828e-09   2.74265e-08 DIIS
   @DF-RHF iter   9:  -501.22109098207727   -4.58840e-10   8.99345e-09 DIIS

  ==> Post-Iterations <==

    Orbital Energies (a.u.)
    -----------------------

    Doubly Occupied:                                                      

       1A    -20.596120     2A    -20.533994     3A    -11.364578  
       4A    -11.278465     5A    -11.233309     6A    -11.217445  
       7A    -11.216471     8A    -11.216325     9A    -11.214820  
      10A    -11.213289    11A    -11.209249    12A     -1.471590  
      13A     -1.365256    14A     -1.097509    15A     -1.066114  
      16A     -1.019348    17A     -0.976662    18A     -0.928483  
      19A     -0.862813    20A     -0.800606    21A     -0.790043  
      22A     -0.765736    23A     -0.703225    24A     -0.685226  
      25A     -0.675752    26A     -0.645154    27A     -0.628159  
      28A     -0.606456    29A     -0.598023    30A     -0.580112  
      31A     -0.564663    32A     -0.552892    33A     -0.532957  
      34A     -0.530724    35A     -0.518587    36A     -0.510736  
      37A     -0.498434    38A     -0.476667    39A     -0.472030  
      40A     -0.462677    41A     -0.459260    42A     -0.452982  
      43A     -0.444025    44A     -0.437706  

    Virtual:                                                              

      45A      0.138211    46A      0.145588    47A      0.157259  
      48A      0.159147    49A      0.162036    50A      0.180271  
      51A      0.187050    52A      0.194685    53A      0.201230  
      54A      0.211800    55A      0.217890    56A      0.224081  
      57A      0.234407    58A      0.236021    59A      0.244662  
      60A      0.246238    61A      0.256024    62A      0.262121  
      63A      0.264427    64A      0.288497    65A      0.311995  
      66A      0.334779    67A      0.353219    68A      0.358024  
      69A      0.364957    70A      0.374851    71A      0.378126  
      72A      0.381402    73A      0.390758    74A      0.404365  
      75A      0.415954    76A      0.423131    77A      0.434397  
      78A      0.447559    79A      0.459447    80A      0.469181  
      81A      0.478162    82A      0.489093    83A      0.498096  
      84A      0.515184    85A      0.522967    86A      0.530592  
      87A      0.553569    88A      0.562080    89A      0.564744  
      90A      0.574871    91A      0.580165    92A      0.589741  
      93A      0.591432    94A      0.604371    95A      0.617313  
      96A      0.621256    97A      0.623984    98A      0.628439  
      99A      0.634232   100A      0.637446   101A      0.640225  
     102A      0.648674   103A      0.651739   104A      0.658239  
     105A      0.660806   106A      0.666213   107A      0.668959  
     108A      0.670978   109A      0.679590   110A      0.697802  
     111A      0.706405   112A      0.713275   113A      0.718992  
     114A      0.723489   115A      0.724559   116A      0.737903  
     117A      0.750289   118A      0.770657   119A      0.773722  
     120A      0.785826   121A      0.803172   122A      0.822329  
     123A      0.844852   124A      0.849698   125A      0.860256  
     126A      0.869482   127A      0.883549   128A      0.891425  
     129A      0.898606   130A      0.912836   131A      0.920845  
     132A      0.934252   133A      0.943858   134A      0.951388  
     135A      0.980192   136A      0.987758   137A      1.000916  
     138A      1.012657   139A      1.014842   140A      1.037790  
     141A      1.044907   142A      1.059718   143A      1.068725  
     144A      1.072739   145A      1.091139   146A      1.093497  
     147A      1.107653   148A      1.118690   149A      1.123113  
     150A      1.138299   151A      1.166584   152A      1.172219  
     153A      1.177693   154A      1.183032   155A      1.196078  
     156A      1.214076   157A      1.227162   158A      1.234034  
     159A      1.237424   160A      1.246980   161A      1.261510  
     162A      1.275286   163A      1.279157   164A      1.287503  
     165A      1.301489   166A      1.303031   167A      1.315471  
     168A      1.321039   169A      1.327697   170A      1.330760  
     171A      1.340446   172A      1.351217   173A      1.353221  
     174A      1.365639   175A      1.376010   176A      1.386906  
     177A      1.393567   178A      1.398874   179A      1.401633  
     180A      1.414562   181A      1.431576   182A      1.436594  
     183A      1.453513   184A      1.456744   185A      1.466817  
     186A      1.469041   187A      1.476273   188A      1.487602  
     189A      1.500222   190A      1.500665   191A      1.510523  
     192A      1.514781   193A      1.523200   194A      1.526665  
     195A      1.531452   196A      1.535175   197A      1.544505  
     198A      1.563976   199A      1.571575   200A      1.575787  
     201A      1.582992   202A      1.587787   203A      1.613916  
     204A      1.618900   205A      1.625255   206A      1.636257  
     207A      1.642648   208A      1.664519   209A      1.681532  
     210A      1.691713   211A      1.704081   212A      1.711821  
     213A      1.737949   214A      1.741220   215A      1.758462  
     216A      1.765866   217A      1.776845   218A      1.779361  
     219A      1.797863   220A      1.816436   221A      1.827195  
     222A      1.831275   223A      1.835448   224A      1.840733  
     225A      1.855077   226A      1.857052   227A      1.885878  
     228A      1.907027   229A      1.931014   230A      1.950954  
     231A      1.978378   232A      2.000324   233A      2.013970  
     234A      2.053463   235A      2.087393   236A      2.101584  
     237A      2.159121   238A      2.258582   239A      2.304712  
     240A      2.331478   241A      2.341996   242A      2.453125  
     243A      2.473733   244A      2.492054   245A      2.519702  
     246A      2.532747   247A      2.573734   248A      2.589709  
     249A      2.604686   250A      2.615724   251A      2.651021  
     252A      2.671351   253A      2.680303   254A      2.683849  
     255A      2.698809   256A      2.701297   257A      2.715365  
     258A      2.744187   259A      2.748784   260A      2.764330  
     261A      2.778026   262A      2.796226   263A      2.810676  
     264A      2.822064   265A      2.838509   266A      2.848034  
     267A      2.853240   268A      2.856572   269A      2.868583  
     270A      2.893791   271A      2.904204   272A      2.917811  
     273A      2.933295   274A      2.937945   275A      2.947661  
     276A      2.959928   277A      2.968179   278A      2.982046  
     279A      2.992473   280A      3.011404   281A      3.015521  
     282A      3.018688   283A      3.031989   284A      3.039895  
     285A      3.052465   286A      3.065665   287A      3.069038  
     288A      3.079290   289A      3.099083   290A      3.111845  
     291A      3.117810   292A      3.133663   293A      3.135137  
     294A      3.140911   295A      3.150263   296A      3.171580  
     297A      3.183451   298A      3.189354   299A      3.211743  
     300A      3.236434   301A      3.243342   302A      3.255873  
     303A      3.273594   304A      3.278290   305A      3.282474  
     306A      3.284227   307A      3.302027   308A      3.318913  
     309A      3.323129   310A      3.331955   311A      3.337005  
     312A      3.343303   313A      3.345636   314A      3.352392  
     315A      3.361384   316A      3.373231   317A      3.380608  
     318A      3.390361   319A      3.403783   320A      3.404964  
     321A      3.415048   322A      3.427555   323A      3.435906  
     324A      3.441447   325A      3.455699   326A      3.460182  
     327A      3.465364   328A      3.477973   329A      3.478935  
     330A      3.483961   331A      3.490452   332A      3.499714  
     333A      3.507730   334A      3.512912   335A      3.519138  
     336A      3.531933   337A      3.532749   338A      3.546672  
     339A      3.552207   340A      3.554640   341A      3.573496  
     342A      3.584345   343A      3.596763   344A      3.603706  
     345A      3.613757   346A      3.627803   347A      3.629253  
     348A      3.641341   349A      3.647390   350A      3.654780  
     351A      3.656025   352A      3.676938   353A      3.682182  
     354A      3.697036   355A      3.725897   356A      3.739593  
     357A      3.746428   358A      3.757486   359A      3.761393  
     360A      3.765831   361A      3.785722   362A      3.791736  
     363A      3.800683   364A      3.832671   365A      3.836477  
     366A      3.841181   367A      3.854120   368A      3.860549  
     369A      3.872178   370A      3.876406   371A      3.887650  
     372A      3.892481   373A      3.913109   374A      3.920808  
     375A      3.933280   376A      3.940738   377A      3.952593  
     378A      3.962121   379A      3.968056   380A      3.982650  
     381A      3.990046   382A      4.006933   383A      4.026769  
     384A      4.034198   385A      4.049594   386A      4.075310  
     387A      4.086253   388A      4.095683   389A      4.098133  
     390A      4.114524   391A      4.114834   392A      4.119353  
     393A      4.138200   394A      4.141171   395A      4.160700  
     396A      4.170149   397A      4.176945   398A      4.181668  
     399A      4.183620   400A      4.189050   401A      4.192170  
     402A      4.197509   403A      4.204751   404A      4.210908  
     405A      4.228800   406A      4.230281   407A      4.245121  
     408A      4.261347   409A      4.265756   410A      4.284018  
     411A      4.290197   412A      4.305704   413A      4.312460  
     414A      4.340443   415A      4.346072   416A      4.360505  
     417A      4.368121   418A      4.371768   419A      4.382686  
     420A      4.386159   421A      4.402184   422A      4.408873  
     423A      4.412523   424A      4.423924   425A      4.429036  
     426A      4.448341   427A      4.451516   428A      4.461674  
     429A      4.464987   430A      4.480008   431A      4.491091  
     432A      4.502606   433A      4.511062   434A      4.520878  
     435A      4.527712   436A      4.540938   437A      4.554249  
     438A      4.559602   439A      4.584744   440A      4.590441  
     441A      4.603377   442A      4.609423   443A      4.622039  
     444A      4.624753   445A      4.640338   446A      4.646581  
     447A      4.654011   448A      4.659616   449A      4.680170  
     450A      4.701307   451A      4.705360   452A      4.718667  
     453A      4.730827   454A      4.744256   455A      4.768873  
     456A      4.782996   457A      4.791827   458A      4.796590  
     459A      4.801764   460A      4.830111   461A      4.853292  
     462A      4.869673   463A      4.903420   464A      4.929979  
     465A      4.946330   466A      4.971946   467A      4.993870  
     468A      5.006675   469A      5.016355   470A      5.034896  
     471A      5.045127   472A      5.058181   473A      5.073056  
     474A      5.083096   475A      5.089183   476A      5.111088  
     477A      5.121919   478A      5.133790   479A      5.146212  
     480A      5.158063   481A      5.188816   482A      5.195040  
     483A      5.224160   484A      5.230947   485A      5.249920  
     486A      5.256799   487A      5.264298   488A      5.306431  
     489A      5.308295   490A      5.326149   491A      5.328888  
     492A      5.356842   493A      5.361384   494A      5.368898  
     495A      5.376750   496A      5.381435   497A      5.392528  
     498A      5.437787   499A      5.445076   500A      5.450939  
     501A      5.483459   502A      5.493548   503A      5.497861  
     504A      5.527434   505A      5.540036   506A      5.554498  
     507A      5.572258   508A      5.584550   509A      5.594886  
     510A      5.604008   511A      5.610277   512A      5.619002  
     513A      5.642732   514A      5.659675   515A      5.668882  
     516A      5.678053   517A      5.716408   518A      5.723995  
     519A      5.735570   520A      5.754665   521A      5.794739  
     522A      5.806946   523A      5.823047   524A      5.840172  
     525A      5.845135   526A      5.856821   527A      5.860755  
     528A      5.881553   529A      5.891607   530A      5.894306  
[...]
	    7 R(4,26)         =      1.413138    -0.000008    -0.000000     1.413138
	    8 R(5,8)          =      1.529171    -0.000062    -0.000010     1.529162
	    9 R(5,9)          =      1.084517     0.000002     0.000000     1.084517
	   10 R(5,10)         =      1.083077    -0.000007    -0.000002     1.083075
	   11 R(8,11)         =      1.526797    -0.000013    -0.000001     1.526795
	   12 R(8,12)         =      1.085815     0.000002     0.000001     1.085816
	   13 R(8,13)         =      1.088086    -0.000005    -0.000002     1.088084
	   14 R(11,14)        =      1.536868    -0.000219    -0.000037     1.536831
	   15 R(11,15)        =      1.086777    -0.000012    -0.000004     1.086773
	   16 R(11,16)        =      1.085770     0.000047     0.000002     1.085772
	   17 R(14,17)        =      1.526660    -0.000019    -0.000007     1.526652
	   18 R(14,18)        =      1.087201     0.000003    -0.000001     1.087200
	   19 R(14,19)        =      1.085883    -0.000007    -0.000002     1.085881
	   20 R(17,20)        =      1.524647     0.000052     0.000011     1.524658
	   21 R(17,21)        =      1.086269    -0.000018    -0.000005     1.086263
	   22 R(17,22)        =      1.087209    -0.000010    -0.000004     1.087205
	   23 R(20,23)        =      1.083986    -0.000031    -0.000006     1.083980
	   24 R(20,24)        =      1.085080    -0.000017    -0.000005     1.085075
	   25 R(20,25)        =      1.084959    -0.000007    -0.000004     1.084955
	   26 R(26,27)        =      1.079929    -0.000006    -0.000002     1.079927
	   27 R(26,28)        =      1.077926    -0.000016    -0.000003     1.077923
	   28 R(26,29)        =      1.079938    -0.000006    -0.000002     1.079937
	   29 B(1,2,3)        =    125.603082    -0.000001    -0.001082   125.602000
	   30 B(1,2,4)        =    123.156050     0.000001     0.001406   123.157457
	   31 B(2,3,5)        =    113.447727    -0.000000    -0.000770   113.446957
	   32 B(2,3,6)        =    106.834747     0.000000    -0.000170   106.834577
	   33 B(2,3,7)        =    107.096611    -0.000000     0.000248   107.096859
	   34 B(2,4,26)       =    117.330103     0.000001     0.001751   117.331855
	   35 B(3,2,4)        =    111.240867    -0.000000    -0.000325   111.240543
	   36 B(3,5,8)        =    113.904474    -0.000001    -0.000701   113.903773
	   37 B(3,5,9)        =    109.306648     0.000000    -0.000513   109.306135
	   38 B(3,5,10)       =    108.517274     0.000000     0.001231   108.518506
	   39 B(4,26,27)      =    110.682244     0.000000     0.000905   110.683148
	   40 B(4,26,28)      =    106.034055    -0.000000    -0.001140   106.032915
	   41 B(4,26,29)      =    110.683481     0.000000     0.000628   110.684110
	   42 B(5,3,6)        =    112.078157    -0.000000    -0.000369   112.077788
	   43 B(5,3,7)        =    111.068691     0.000000     0.000548   111.069239
	   44 B(5,8,11)       =    115.127995    -0.000001    -0.002090   115.125905
	   45 B(5,8,12)       =    108.102620     0.000000     0.000247   108.102867
	   46 B(5,8,13)       =    109.483979     0.000000    -0.000640   109.483339
	   47 B(6,3,7)        =    105.872912     0.000000     0.000604   105.873516
	   48 B(8,5,9)        =    109.776309     0.000000     0.000388   109.776697
	   49 B(8,5,10)       =    109.061500     0.000000    -0.000975   109.060525
	   50 B(8,11,14)      =    113.600050    -0.000000    -0.000201   113.599848
	   51 B(8,11,15)      =    109.937735     0.000000     0.000824   109.938559
	   52 B(8,11,16)      =    109.829587     0.000000     0.001785   109.831372
	   53 B(9,5,10)       =    105.963561    -0.000000     0.000679   105.964240
	   54 B(11,8,12)      =    108.437845     0.000001     0.002985   108.440830
	   55 B(11,8,13)      =    109.286900     0.000000    -0.000723   109.286177
	   56 B(11,14,17)     =    113.603733    -0.000000    -0.000326   113.603407
	   57 B(11,14,18)     =    109.323092    -0.000000    -0.003057   109.320035
	   58 B(11,14,19)     =    109.889946    -0.000000    -0.000293   109.889653
	   59 B(12,8,13)      =    106.000975    -0.000000     0.000480   106.001455
	   60 B(14,11,15)     =    109.685103    -0.000000    -0.003351   109.681752
	   61 B(14,11,16)     =    108.554900    -0.000000    -0.001020   108.553880
	   62 B(14,17,20)     =    113.198529    -0.000001    -0.001800   113.196729
	   63 B(14,17,21)     =    108.870963     0.000000     0.000766   108.871729
	   64 B(14,17,22)     =    109.526974     0.000000    -0.001598   109.525376
	   65 B(15,11,16)     =    104.858934     0.000000     0.002129   104.861063
	   66 B(17,14,18)     =    108.045791     0.000000     0.001726   108.047517
	   67 B(17,14,19)     =    109.777314     0.000000     0.000784   109.778098
	   68 B(17,20,23)     =    111.266643    -0.000000    -0.001903   111.264741
	   69 B(17,20,24)     =    111.122180     0.000000     0.000683   111.122863
	   70 B(17,20,25)     =    111.157922     0.000001     0.003238   111.161159
	   71 B(18,14,19)     =    105.896207     0.000000     0.001284   105.897491
	   72 B(20,17,21)     =    109.462381     0.000000     0.003581   109.465962
	   73 B(20,17,22)     =    109.329548     0.000000    -0.000006   109.329542
	   74 B(21,17,22)     =    106.213317    -0.000000    -0.000879   106.212438
	   75 B(23,20,24)     =    107.740271     0.000000    -0.000261   107.740010
	   76 B(23,20,25)     =    107.740867    -0.000000    -0.001192   107.739675
	   77 B(24,20,25)     =    107.640644    -0.000000    -0.000682   107.639962
	   78 B(27,26,28)     =    110.191343    -0.000000    -0.000748   110.190595
	   79 B(27,26,29)     =    109.036271     0.000000     0.000748   109.037019
	   80 B(28,26,29)     =    110.189880    -0.000000    -0.000452   110.189428
	   81 D(1,2,3,5)      =      0.114491    -0.000000    -0.005225     0.109266
	   82 D(1,2,3,6)      =    124.120821    -0.000000    -0.006325   124.114496
	   83 D(1,2,3,7)      =   -122.798452    -0.000000    -0.005599  -122.804052
	   84 D(1,2,4,26)     =      0.057754     0.000000     0.002610     0.060364
	   85 D(2,3,5,8)      =   -176.229929     0.000000    -0.000783  -176.230712
	   86 D(2,3,5,9)      =     60.579629     0.000000    -0.000403    60.579226
	   87 D(2,3,5,10)     =    -54.549507    -0.000000    -0.001604   -54.551111
	   88 D(2,4,26,27)    =    -60.542390    -0.000000    -0.000715   -60.543105
	   89 D(2,4,26,28)    =    179.961828     0.000000     0.000371   179.962198
	   90 D(2,4,26,29)    =     60.467128     0.000000     0.001250    60.468379
	   91 D(3,2,4,26)     =   -179.941574    -0.000000    -0.005090  -179.946664
	   92 D(3,5,8,11)     =    -67.969708     0.000000     0.006303   -67.963405
	   93 D(3,5,8,12)     =    170.640674     0.000000     0.003662   170.644336
	   94 D(3,5,8,13)     =     55.598595     0.000000     0.003296    55.601891
	   95 D(4,2,3,5)      =   -179.886201     0.000000     0.002702  -179.883498
	   96 D(4,2,3,6)      =    -55.879871     0.000000     0.001603   -55.878268
	   97 D(4,2,3,7)      =     57.200856     0.000000     0.002329    57.203184
	   98 D(5,8,11,14)    =   -179.343141    -0.000000    -0.039417  -179.382559
	   99 D(5,8,11,15)    =    -56.009748    -0.000000    -0.043319   -56.053067
	  100 D(5,8,11,16)    =     58.874763    -0.000000    -0.039274    58.835489
	  101 D(6,3,5,8)      =     62.666541    -0.000000     0.000284    62.666825
	  102 D(6,3,5,9)      =    -60.523902     0.000000     0.000664   -60.523237
	  103 D(6,3,5,10)     =   -175.653037    -0.000000    -0.000537  -175.653574
	  104 D(7,3,5,8)      =    -55.533399    -0.000000    -0.000603   -55.534002
	  105 D(7,3,5,9)      =   -178.723842     0.000000    -0.000222  -178.724064
	  106 D(7,3,5,10)     =     66.147023    -0.000000    -0.001424    66.145599
	  107 D(8,11,14,17)   =    143.471403     0.000000    -0.001615   143.469787
	  108 D(8,11,14,18)   =     22.710132    -0.000000    -0.001414    22.708718
	  109 D(8,11,14,19)   =    -93.108314    -0.000000    -0.001048   -93.109362
	  110 D(9,5,8,11)     =     54.964652     0.000000     0.005426    54.970078
	  111 D(9,5,8,12)     =    -66.424966    -0.000000     0.002785   -66.422181
	  112 D(9,5,8,13)     =    178.532954    -0.000000     0.002419   178.535374
	  113 D(10,5,8,11)    =    170.651671     0.000000     0.005905   170.657576
	  114 D(10,5,8,12)    =     49.262053    -0.000000     0.003264    49.265317
	  115 D(10,5,8,13)    =    -65.780026    -0.000000     0.002898   -65.777128
	  116 D(11,14,17,20)  =    178.468516    -0.000000    -0.002540   178.465976
	  117 D(11,14,17,21)  =    -59.554508    -0.000000     0.001380   -59.553128
	  118 D(11,14,17,22)  =     56.186534    -0.000000    -0.000122    56.186412
	  119 D(12,8,11,14)   =    -58.135557    -0.000000    -0.038267   -58.173824
	  120 D(12,8,11,15)   =     65.197836    -0.000000    -0.042168    65.155668
	  121 D(12,8,11,16)   =   -179.917653    -0.000000    -0.038124  -179.955776
	  122 D(13,8,11,14)   =     56.984262     0.000000    -0.036462    56.947801
	  123 D(13,8,11,15)   =   -179.682345    -0.000000    -0.040363  -179.722708
	  124 D(13,8,11,16)   =    -64.797833     0.000000    -0.036319   -64.834152
	  125 D(14,17,20,23)  =    179.233873     0.000000     0.027983   179.261856
	  126 D(14,17,20,24)  =     59.175890     0.000000     0.029132    59.205022
	  127 D(14,17,20,25)  =    -60.683313     0.000000     0.027375   -60.655938
	  128 *D(15,11,14,17) =     19.999998    -0.000000     0.000000    19.999998
	  129 D(15,11,14,18)  =   -100.761272    -0.000000     0.000201  -100.761071
	  130 D(15,11,14,19)  =    143.420282    -0.000000     0.000568   143.420849
	  131 D(16,11,14,17)  =    -94.040131     0.000000    -0.000206   -94.040337
	  132 D(16,11,14,18)  =    145.198599    -0.000000    -0.000005   145.198594
	  133 D(16,11,14,19)  =     29.380153    -0.000000     0.000362    29.380514
	  134 D(18,14,17,20)  =    -60.054669    -0.000000    -0.005405   -60.060075
	  135 D(18,14,17,21)  =     61.922307    -0.000000    -0.001485    61.920822
	  136 D(18,14,17,22)  =    177.663349    -0.000000    -0.002987   177.660362
	  137 D(19,14,17,20)  =     54.986741    -0.000000    -0.002520    54.984221
	  138 D(19,14,17,21)  =    176.963717     0.000000     0.001400   176.965117
	  139 D(19,14,17,22)  =    -67.295241     0.000000    -0.000102   -67.295343
	  140 D(21,17,20,23)  =     57.588300     0.000000     0.025641    57.613940
	  141 D(21,17,20,24)  =    -62.469683     0.000000     0.026789   -62.442894
	  142 D(21,17,20,25)  =    177.671114     0.000000     0.025033   177.696147
	  143 D(22,17,20,23)  =    -58.374152    -0.000000     0.024685   -58.349467
	  144 D(22,17,20,24)  =   -178.432135     0.000000     0.025834  -178.406302
	  145 D(22,17,20,25)  =     61.708662    -0.000000     0.024077    61.732739
	 ---------------------------------------------------------------------------
	Successfully symmetrized geometry.

  ==> Convergence Check <==

  Measures of convergence in internal coordinates in au.
  Criteria marked as inactive (o), active & met (*), and active & unmet ( ).
  ---------------------------------------------------------------------------------------------
   Step     Total Energy     Delta E     MAX Force     RMS Force      MAX Disp      RMS Disp   
  ---------------------------------------------------------------------------------------------
    Convergence Criteria    1.00e-06 *    3.00e-04 *             o    1.20e-03 *             o
  ---------------------------------------------------------------------------------------------
      8    -501.22130601   -1.10e-07 *    2.66e-05 *    4.14e-06 o    7.56e-04 *    2.08e-04 o  ~
  ---------------------------------------------------------------------------------------------


  **** Optimization is complete! (in 8 steps) ****

  ==> Optimization Summary <==

  Measures of convergence in internal coordinates in au.
  --------------------------------------------------------------------------------------------------------------- ~
   Step         Total Energy             Delta E       MAX Force       RMS Force        MAX Disp        RMS Disp  ~
  --------------------------------------------------------------------------------------------------------------- ~
      1    -501.220974587992   -501.220974587992      0.00817986      0.00078567      0.09531328      0.02736298  ~
      2    -501.221090982077     -0.000116394085      0.00485080      0.00091449      0.03021308      0.01006341  ~
      3    -501.221289992881     -0.000199010804      0.00048447      0.00013888      0.04171560      0.01081495  ~
      4    -501.221002704426      0.000287288456      0.00225724      0.00058967      0.03584435      0.00834444  ~
      5    -501.221303824672     -0.000301120246      0.00023076      0.00005484      0.01356395      0.00453566  ~
      6    -501.221302464818      0.000001359854      0.00037917      0.00006445      0.00991936      0.00287477  ~
      7    -501.221305901932     -0.000003437114      0.00007996      0.00001531      0.00264881      0.00077598  ~
      8    -501.221306011838     -0.000000109905      0.00002661      0.00000414      0.00075606      0.00020848  ~
  --------------------------------------------------------------------------------------------------------------- ~

	Writing optimization data to binary file.
	Final energy is   -501.2213060118377
	Final (previous) structure:
	Cartesian Geometry (in Angstrom)
	    O     3.2548395254   0.8052441791  -0.5200346976
	    C     2.7217314392  -0.0958515157   0.0320612131
	    C     1.2669809267  -0.1479350101   0.4238200731
	    O     3.3533775428  -1.2036260942   0.3855554084
	    C     0.4897488932   1.1042266841   0.0370982903
	    H     0.8520752992  -1.0405707898  -0.0283677188
	    H     1.2309584099  -0.3140106127   1.4959169978
	    C    -0.9645326617   1.1015137640   0.5097739703
	    H     0.5254398861   1.2301988356  -1.0394861160
	    H     0.9958241685   1.9659073113   0.4547709005
	    C    -1.8657893075   0.0745508769  -0.1715420808
	    H    -1.3777842309   2.0903719503   0.3354832746
	    H    -0.9958518580   0.9488855341   1.5866462705
	    C    -3.3220820011   0.1130294119   0.3180436946
	    H    -1.8379877399   0.2139938265  -1.2489774258
	    H    -1.4732287769  -0.9247803870  -0.0098983607
	    C    -4.3446300846  -0.1539904604  -0.7836755348
	    H    -3.5329085391   1.0911239612   0.7433544436
	    H    -3.4589091937  -0.5986818726   1.1266768421
	    C    -5.7839795725  -0.1503655501  -0.2808748576
	    H    -4.2302052419   0.5981515252  -1.5590265184
	    H    -4.1302847465  -1.1102786886  -1.2544116083
	    H    -6.4833645877  -0.3294109350  -1.0894718269
	    H    -6.0379411584   0.8029305440   0.1709302372
	    H    -5.9393813087  -0.9205912921   0.4672820554
	    C     4.7302197426  -1.2912009066   0.0796218721
	    H     4.8891961114  -1.2226137329  -0.9863371765
	    H     5.0554499805  -2.2524266153   0.4432070258
	    H     5.2807561556  -0.5017012054   0.5693834591
	Saving final (previous) structure.
			--------------------------
			 OPTKING Finished Execution 
			--------------------------

    Final optimized geometry and variables:
    Molecular point group: c1
    Full point group: C1

    Geometry (in Angstrom), charge = 0, multiplicity = 1:

    O            3.254839525443     0.805244179080    -0.520034697573
    C            2.721731439235    -0.095851515695     0.032061213129
    C            1.266980926732    -0.147935010111     0.423820073111
    O            3.353377542838    -1.203626094173     0.385555408368
    C            0.489748893188     1.104226684150     0.037098290308
    H            0.852075299190    -1.040570789776    -0.028367718823
    H            1.230958409890    -0.314010612703     1.495916997807
    C           -0.964532661734     1.101513763965     0.509773970322
    H            0.525439886110     1.230198835642    -1.039486116011
    H            0.995824168514     1.965907311266     0.454770900464
    C           -1.865789307531     0.074550876941    -0.171542080778
    H           -1.377784230910     2.090371950304     0.335483274633
    H           -0.995851857955     0.948885534057     1.586646270498
    C           -3.322082001098     0.113029411937     0.318043694563
    H           -1.837987739866     0.213993826507    -1.248977425812
    H           -1.473228776879    -0.924780386979    -0.009898360709
    C           -4.344630084574    -0.153990460413    -0.783675534830
    H           -3.532908539069     1.091123961184     0.743354443601
    H           -3.458909193691    -0.598681872563     1.126676842058
    C           -5.783979572491    -0.150365550143    -0.280874857616
    H           -4.230205241906     0.598151525238    -1.559026518426
    H           -4.130284746468    -1.110278688575    -1.254411608252
    H           -6.483364587693    -0.329410934987    -1.089471826947
    H           -6.037941158427     0.802930543957     0.170930237218
    H           -5.939381308717    -0.920591292132     0.467282055365
    C            4.730219742581    -1.291200906623     0.079621872062
    H            4.889196111377    -1.222613732908    -0.986337176541
    H            5.055449980545    -2.252426615336     0.443207025809
    H            5.280756155586    -0.501701205443     0.569383459100

	Cleaning optimization helper files.


Properties will be evaluated at   0.000000,   0.000000,   0.000000 Bohr

Properties computed using the  density matrix

  Nuclear Dipole Moment: (a.u.)
     X:   -19.3440      Y:    -0.2583      Z:     0.1659

  Electronic Dipole Moment: (a.u.)
     X:    19.1560      Y:    -0.3592      Z:     0.1482

  Dipole Moment: (a.u.)
     X:    -0.1880      Y:    -0.6175      Z:     0.3141     Total:     0.7179

  Dipole Moment: (Debye)
     X:    -0.4779      Y:    -1.5696      Z:     0.7984     Total:     1.8247

  Quadrupole Moment: (Debye Ang)
    XX:   -68.5062     YY:   -71.5306     ZZ:   -70.3156
    XY:    -7.7512     XZ:     3.2607     YZ:     1.8774

  Traceless Quadrupole Moment: (Debye Ang)
    XX:     1.6113     YY:    -1.4131     ZZ:    -0.1982
    XY:    -7.7512     XZ:     3.2607     YZ:     1.8774

  Mulliken Charges: (a.u.)
   Center  Symbol    Alpha    Beta     Spin     Total
       1     O     4.19699  4.19699  0.00000 -0.39397
       2     C     2.80473  2.80473  0.00000  0.39054
       3     C     3.10169  3.10169  0.00000 -0.20338
       4     O     4.14724  4.14724  0.00000 -0.29448
       5     C     3.09266  3.09266  0.00000 -0.18531
       6     H     0.43913  0.43913  0.00000  0.12173
       7     H     0.43995  0.43995  0.00000  0.12010
       8     C     3.10312  3.10312  0.00000 -0.20624
       9     H     0.44610  0.44610  0.00000  0.10781
      10     H     0.43955  0.43955  0.00000  0.12090
      11     C     3.09723  3.09723  0.00000 -0.19446
      12     H     0.44527  0.44527  0.00000  0.10946
      13     H     0.45267  0.45267  0.00000  0.09466
      14     C     3.08823  3.08823  0.00000 -0.17647
      15     H     0.45227  0.45227  0.00000  0.09547
      16     H     0.45247  0.45247  0.00000  0.09506
      17     C     3.08310  3.08310  0.00000 -0.16619
      18     H     0.45572  0.45572  0.00000  0.08856
      19     H     0.45239  0.45239  0.00000  0.09522
      20     C     3.15062  3.15062  0.00000 -0.30125
      21     H     0.45409  0.45409  0.00000  0.09182
      22     H     0.45427  0.45427  0.00000  0.09145
      23     H     0.44841  0.44841  0.00000  0.10318
      24     H     0.45496  0.45496  0.00000  0.09008
      25     H     0.45519  0.45519  0.00000  0.08961
      26     C     3.03810  3.03810  0.00000 -0.07620
      27     H     0.45434  0.45434  0.00000  0.09131
      28     H     0.44528  0.44528  0.00000  0.10944
      29     H     0.45423  0.45423  0.00000  0.09155

   Total alpha = 44.00000, Total beta = 44.00000, Total charge = -0.00000


*** Psi4 exiting successfully. Buy a developer a beer!
