    -----------------------------------------------------------------------
          Psi4: An Open-Source Ab Initio Electronic Structure Package
                              Psi4 (no tag) Driver

                          Git: Rev {detached?}  

    J. M. Turney, A. C. Simmonett, R. M. Parrish, E. G. Hohenstein,
    F. A. Evangelista, J. T. Fermann, B. J. Mintz, L. A. Burns, J. J. Wilke,
    M. L. Abrams, N. J. Russ, M. L. Leininger, C. L. Janssen, E. T. Seidl,
    W. D. Allen, H. F. Schaefer, R. A. King, E. F. Valeev, C. D. Sherrill,
    and T. D. Crawford, WIREs Comput. Mol. Sci. 2, 556-565 (2012)
    (doi: 10.1002/wcms.93)

                         Additional Contributions by
    A. E. DePrince, M. Saitow, U. Bozkaya, A. Yu. Sokolov
    -----------------------------------------------------------------------


    Psi4 started on: Thu Sep  1 23:26:02 2016

    Process ID:  10546
    PSI4DATADIR: /export131/home/mjharvey/miniconda3/share
    Memory level set to 256.000 MB

  ==> Input File <==

--------------------------------------------------------------------------
set {
	reference rhf
	basis 6-31G*
}


set_num_threads( 1 )
memory 2 gb

molecule MOL {
0 1

O	 2.862325	 1.357334	 0.000267
C	 2.843464	 0.164689	 -0.000222
C	 1.546494	 -0.624492	 -0.000609
C	 4.124123	 -0.644674	 -0.000428
C	 0.291004	 0.242674	 0.000989
H	 1.557904	 -1.283758	 -0.867573
H	 1.558622	 -1.285963	 0.864672
C	 -0.992282	 -0.583832	 0.100127
H	 0.273493	 0.844921	 -0.901852
H	 0.343703	 0.943439	 0.828212
C	 -2.257870	 0.275246	 0.101234
H	 -1.036995	 -1.286793	 -0.730471
H	 -0.967394	 -1.186557	 1.006863
C	 -3.545753	 -0.544276	 0.200009
H	 -2.284156	 0.877674	 -0.805083
H	 -2.214670	 0.977767	 0.931653
C	 -4.805615	 0.320844	 0.200305
H	 -3.590640	 -1.246068	 -0.630230
H	 -3.521318	 -1.145762	 1.106362
H	 -4.876738	 0.909986	 -0.709642
H	 -5.701576	 -0.288258	 0.270656
H	 -4.807502	 1.010207	 1.039900
H	 4.165367	 -1.288615	 -0.874074
H	 4.976217	 0.020734	 -0.001915
H	 4.166763	 -1.286207	 0.874930

	symmetry c1
}
set optking {
	frozen_dihedral = ("
		9 5 8 12,
		15 11 8 12,
		15 11 14 18,
		1 2 3 6
	")
}

ee = energy('scf')
oeprop('DIPOLE', 'QUADRUPOLE', 'MULLIKEN_CHARGES')
f=open( 'psi4out.xyz', 'w' )
f.write( "25  " )
f.write( str(ee) + "\n" )
f.write( MOL.save_string_xyz() )
f.close()
--------------------------------------------------------------------------

  Memory set to   2.000 GiB by Python script.

*** tstart() called on cx1-3-6-2.cx1.hpc.ic.ac.uk
*** at Thu Sep  1 23:26:03 2016


         ---------------------------------------------------------
                                   SCF
            by Justin Turney, Rob Parrish, and Andy Simmonett
                              RHF Reference
                        1 Threads,   2000 MiB Core
         ---------------------------------------------------------

  ==> Geometry <==

    Molecular point group: c1
    Full point group: C1

    Geometry (in Angstrom), charge = 0, multiplicity = 1:

       Center              X                  Y                   Z               Mass       
    ------------   -----------------  -----------------  -----------------  -----------------
           O          2.860975289568     1.355504036890    -0.067126886751    15.994914619560
           C          2.842114289568     0.162859036890    -0.067615886751    12.000000000000
           C          1.545144289568    -0.626321963110    -0.068002886751    12.000000000000
           C          4.122773289568    -0.646503963110    -0.067821886751    12.000000000000
           C          0.289654289568     0.240844036890    -0.066404886751    12.000000000000
           H          1.556554289568    -1.285587963110    -0.934966886751     1.007825032070
           H          1.557272289568    -1.287792963110     0.797278113249     1.007825032070
           C         -0.993631710432    -0.585661963110     0.032733113249    12.000000000000
           H          0.272143289568     0.843091036890    -0.969245886751     1.007825032070
           H          0.342353289568     0.941609036890     0.760818113249     1.007825032070
           C         -2.259219710432     0.273416036890     0.033840113249    12.000000000000
           H         -1.038344710432    -1.288622963110    -0.797864886751     1.007825032070
           H         -0.968743710432    -1.188386963110     0.939469113249     1.007825032070
           C         -3.547102710432    -0.546105963110     0.132615113249    12.000000000000
           H         -2.285505710432     0.875844036890    -0.872476886751     1.007825032070
           H         -2.216019710432     0.975937036890     0.864259113249     1.007825032070
           C         -4.806964710432     0.319014036890     0.132911113249    12.000000000000
           H         -3.591989710432    -1.247897963110    -0.697623886751     1.007825032070
           H         -3.522667710432    -1.147591963110     1.038968113249     1.007825032070
           H         -4.878087710432     0.908156036890    -0.777035886751     1.007825032070
           H         -5.702925710432    -0.290087963110     0.203262113249     1.007825032070
           H         -4.808851710432     1.008377036890     0.972506113249     1.007825032070
           H          4.164017289568    -1.290444963110    -0.941467886751     1.007825032070
           H          4.974867289568     0.018904036890    -0.069308886751     1.007825032070
           H          4.165413289568    -1.288036963110     0.807536113249     1.007825032070

  Running in c1 symmetry.

  Rotational constants: A =      0.21463  B =      0.01457  C =      0.01388 [cm^-1]
  Rotational constants: A =   6434.31461  B =    436.64920  C =    416.18690 [MHz]
  Nuclear repulsion =  438.349126946735623

  Charge       = 0
  Multiplicity = 1
  Electrons    = 72
  Nalpha       = 36
  Nbeta        = 36

  ==> Algorithm <==

  SCF Algorithm Type is DF.
  DIIS enabled.
  MOM disabled.
  Fractional occupation disabled.
  Guess Type is CORE.
  Energy threshold   = 1.00e-06
  Density threshold  = 1.00e-06
  Integral threshold = 0.00e+00

  ==> Primary Basis <==

  Basis Set: 6-31G*
    Number of shells: 86
    Number of basis function: 167
    Number of Cartesian functions: 167
    Spherical Harmonics?: false
    Max angular momentum: 2

  ==> Pre-Iterations <==

   -------------------------------------------------------
    Irrep   Nso     Nmo     Nalpha   Nbeta   Ndocc  Nsocc
   -------------------------------------------------------
     A        167     167       0       0       0       0
   -------------------------------------------------------
    Total     167     167      36      36      36       0
   -------------------------------------------------------

 OEINTS: Overlap, kinetic, potential, dipole, and quadrupole integrals
         stored in file 35.

  ==> Integral Setup <==

  ==> DFJK: Density-Fitted J/K Matrices <==

    J tasked:                  Yes
    K tasked:                  Yes
    wK tasked:                  No
    OpenMP threads:              1
    Integrals threads:           1
    Memory (MB):              1430
    Algorithm:                Core
    Integral Cache:           NONE
    Schwarz Cutoff:          1E-12
    Fitting Condition:       1E-12

   => Auxiliary Basis Set <=

  Basis Set: 
    Number of shells: 360
    Number of basis function: 1129
    Number of Cartesian functions: 1129
    Spherical Harmonics?: false
    Max angular momentum: 3

  Minimum eigenvalue in the overlap matrix is 2.4679523833E-03.
  Using Symmetric Orthogonalization.
  SCF Guess: Core (One-Electron) Hamiltonian.

  ==> Iterations <==

                           Total Energy        Delta E     RMS |[F,P]|

   @DF-RHF iter   1:  -285.02017998573933   -2.85020e+02   6.19581e-02 
   @DF-RHF iter   2:  -121.39927995610151    1.63621e+02   7.22314e-02 DIIS
   @DF-RHF iter   3:  -283.83497165357346   -1.62436e+02   4.29231e-02 DIIS
   @DF-RHF iter   4:  -190.91169878667597    9.29233e+01   6.69360e-02 DIIS
   @DF-RHF iter   5:  -356.22035385162519   -1.65309e+02   2.86726e-02 DIIS
   @DF-RHF iter   6:  -371.40623330299536   -1.51859e+01   2.21809e-02 DIIS
   @DF-RHF iter   7:  -386.71837631995800   -1.53121e+01   5.15051e-03 DIIS
   @DF-RHF iter   8:  -387.07244702889614   -3.54071e-01   2.02326e-03 DIIS
   @DF-RHF iter   9:  -387.12728783060652   -5.48408e-02   6.39494e-04 DIIS
   @DF-RHF iter  10:  -387.13486553723010   -7.57771e-03   2.63609e-04 DIIS
   @DF-RHF iter  11:  -387.13621273233878   -1.34720e-03   1.02864e-04 DIIS
   @DF-RHF iter  12:  -387.13645796696426   -2.45235e-04   2.66455e-05 DIIS
   @DF-RHF iter  13:  -387.13648168313875   -2.37162e-05   9.76034e-06 DIIS
   @DF-RHF iter  14:  -387.13648489531784   -3.21218e-06   2.67236e-06 DIIS
   @DF-RHF iter  15:  -387.13648513313456   -2.37817e-07   8.47574e-07 DIIS

  ==> Post-Iterations <==

    Orbital Energies (a.u.)
    -----------------------

    Doubly Occupied:                                                      

       1A    -20.550468     2A    -11.326336     3A    -11.231868  
       4A    -11.228358     5A    -11.217071     6A    -11.216471  
       7A    -11.215353     8A    -11.213503     9A    -11.208305  
      10A     -1.395788    11A     -1.093611    12A     -1.056321  
      13A     -1.014520    14A     -0.969252    15A     -0.890704  
      16A     -0.814086    17A     -0.790810    18A     -0.729922  
      19A     -0.661644    20A     -0.651867    21A     -0.631886  
      22A     -0.624118    23A     -0.595934    24A     -0.584279  
      25A     -0.566401    26A     -0.559923    27A     -0.540167  
      28A     -0.526168    29A     -0.512721    30A     -0.489961  
      31A     -0.487690    32A     -0.473170    33A     -0.463768  
      34A     -0.462297    35A     -0.450741    36A     -0.399445  

    Virtual:                                                              

      37A      0.170615    38A      0.219722    39A      0.233457  
      40A      0.254891    41A      0.267390    42A      0.277140  
      43A      0.292969    44A      0.307173    45A      0.308160  
      46A      0.321791    47A      0.326238    48A      0.339177  
      49A      0.343283    50A      0.344161    51A      0.352393  
      52A      0.362026    53A      0.370968    54A      0.377902  
      55A      0.396059    56A      0.408125    57A      0.435341  
      58A      0.455208    59A      0.471733    60A      0.527915  
      61A      0.550513    62A      0.684813    63A      0.701475  
      64A      0.740556    65A      0.748073    66A      0.757848  
      67A      0.762954    68A      0.779070    69A      0.782276  
      70A      0.814349    71A      0.835300    72A      0.853364  
      73A      0.862272    74A      0.920211    75A      0.951477  
      76A      0.954942    77A      0.967796    78A      0.994257  
      79A      1.016401    80A      1.024880    81A      1.036083  
      82A      1.080556    83A      1.106285    84A      1.111381  
      85A      1.119979    86A      1.125224    87A      1.134514  
      88A      1.141833    89A      1.164016    90A      1.179892  
      91A      1.188235    92A      1.193913    93A      1.207318  
      94A      1.209261    95A      1.215598    96A      1.220109  
      97A      1.223225    98A      1.227805    99A      1.238486  
     100A      1.259866   101A      1.269549   102A      1.273949  
     103A      1.327070   104A      1.340314   105A      1.424642  
     106A      1.442015   107A      1.551153   108A      1.635924  
     109A      1.644917   110A      1.689343   111A      1.702747  
     112A      1.740730   113A      1.746532   114A      1.818769  
     115A      1.841288   116A      1.897220   117A      1.961429  
     118A      1.992564   119A      2.041965   120A      2.072999  
     121A      2.099157   122A      2.116722   123A      2.135756  
     124A      2.200614   125A      2.201318   126A      2.243190  
     127A      2.251133   128A      2.266811   129A      2.282182  
     130A      2.294173   131A      2.309954   132A      2.325215  
     133A      2.356403   134A      2.362959   135A      2.400030  
     136A      2.426846   137A      2.464565   138A      2.522293  
     139A      2.575210   140A      2.597627   141A      2.620313  
     142A      2.661747   143A      2.677268   144A      2.696598  
     145A      2.747020   146A      2.754130   147A      2.784832  
     148A      2.806719   149A      2.909580   150A      2.929711  
     151A      2.964446   152A      2.975325   153A      3.000622  
     154A      3.082172   155A      3.157274   156A      3.240023  
     157A      3.375267   158A      3.414132   159A      4.401017  
     160A      4.535703   161A      4.591944   162A      4.671202  
     163A      4.742678   164A      4.805999   165A      4.853147  
     166A      4.923670   167A      5.025458  

    Final Occupation by Irrep:
              A 
    DOCC [    36 ]

  Energy converged.

  @DF-RHF Final Energy:  -387.13648513313456

   => Energetics <=

    Nuclear Repulsion Energy =            438.3491269467356233
    One-Electron Energy =               -1393.2813572263000879
    Two-Electron Energy =                 567.7957451464309315
    DFT Exchange-Correlation Energy =       0.0000000000000000
    Empirical Dispersion Energy =           0.0000000000000000
    PCM Polarization Energy =               0.0000000000000000
    EFP Energy =                            0.0000000000000000
    Total Energy =                       -387.1364851331335331

    Alert: EFP and PCM quantities not currently incorporated into SCF psivars.

Properties will be evaluated at   0.000000,   0.000000,   0.000000 Bohr
  ==> Properties <==


Properties computed using the SCF density matrix

  Nuclear Dipole Moment: (a.u.)
     X:   -11.2176      Y:    -4.4395      Z:     0.3035

  Electronic Dipole Moment: (a.u.)
     X:    11.1530      Y:     3.2849      Z:    -0.3025

  Dipole Moment: (a.u.)
     X:    -0.0646      Y:    -1.1546      Z:     0.0011     Total:     1.1564

  Dipole Moment: (Debye)
     X:    -0.1641      Y:    -2.9346      Z:     0.0027     Total:     2.9392


  Saving occupied orbitals to File 180.

*** tstop() called on cx1-3-6-2.cx1.hpc.ic.ac.uk at Thu Sep  1 23:26:26 2016
Module time:
	user time   =      22.57 seconds =       0.38 minutes
	system time =       0.23 seconds =       0.00 minutes
	total time  =         23 seconds =       0.38 minutes
Total time:
	user time   =      22.57 seconds =       0.38 minutes
	system time =       0.23 seconds =       0.00 minutes
	total time  =         23 seconds =       0.38 minutes


Properties will be evaluated at   0.000000,   0.000000,   0.000000 Bohr

Properties computed using the  density matrix

  Nuclear Dipole Moment: (a.u.)
     X:   -11.2176      Y:    -4.4395      Z:     0.3035

  Electronic Dipole Moment: (a.u.)
     X:    11.1530      Y:     3.2849      Z:    -0.3025

  Dipole Moment: (a.u.)
     X:    -0.0646      Y:    -1.1546      Z:     0.0011     Total:     1.1564

  Dipole Moment: (Debye)
     X:    -0.1641      Y:    -2.9346      Z:     0.0027     Total:     2.9392

  Quadrupole Moment: (Debye Ang)
    XX:   -58.5815     YY:   -62.9448     ZZ:   -56.9056
    XY:    -8.6139     XZ:     0.0466     YZ:     0.2617

  Traceless Quadrupole Moment: (Debye Ang)
    XX:     0.8958     YY:    -3.4675     ZZ:     2.5717
    XY:    -8.6139     XZ:     0.0466     YZ:     0.2617

  Mulliken Charges: (a.u.)
   Center  Symbol    Alpha    Beta     Spin     Total
       1     O     4.26115  4.26115  0.00000 -0.52229
       2     C     2.73574  2.73574  0.00000  0.52851
       3     C     3.21093  3.21093  0.00000 -0.42185
       4     C     3.28664  3.28664  0.00000 -0.57327
       5     C     3.14811  3.14811  0.00000 -0.29622
       6     H     0.40982  0.40982  0.00000  0.18037
       7     H     0.41011  0.41011  0.00000  0.17979
       8     C     3.15394  3.15394  0.00000 -0.30788
       9     H     0.41327  0.41327  0.00000  0.17347
      10     H     0.41090  0.41090  0.00000  0.17821
      11     C     3.15074  3.15074  0.00000 -0.30147
      12     H     0.42498  0.42498  0.00000  0.15004
      13     H     0.42476  0.42476  0.00000  0.15048
      14     C     3.15150  3.15150  0.00000 -0.30300
      15     H     0.42256  0.42256  0.00000  0.15488
      16     H     0.42231  0.42231  0.00000  0.15538
      17     C     3.23933  3.23933  0.00000 -0.47867
      18     H     0.42356  0.42356  0.00000  0.15288
      19     H     0.42352  0.42352  0.00000  0.15296
      20     H     0.42141  0.42141  0.00000  0.15719
      21     H     0.41953  0.41953  0.00000  0.16093
      22     H     0.42134  0.42134  0.00000  0.15733
      23     H     0.40873  0.40873  0.00000  0.18255
      24     H     0.39645  0.39645  0.00000  0.20709
      25     H     0.40870  0.40870  0.00000  0.18260

   Total alpha = 36.00000, Total beta = 36.00000, Total charge = -0.00000


*** PSI4 exiting successfully. Buy a developer a beer!
