    -----------------------------------------------------------------------
          Psi4: An Open-Source Ab Initio Electronic Structure Package
                              Psi4 (no tag) Driver

                          Git: Rev {detached?}  

    J. M. Turney, A. C. Simmonett, R. M. Parrish, E. G. Hohenstein,
    F. A. Evangelista, J. T. Fermann, B. J. Mintz, L. A. Burns, J. J. Wilke,
    M. L. Abrams, N. J. Russ, M. L. Leininger, C. L. Janssen, E. T. Seidl,
    W. D. Allen, H. F. Schaefer, R. A. King, E. F. Valeev, C. D. Sherrill,
    and T. D. Crawford, WIREs Comput. Mol. Sci. 2, 556-565 (2012)
    (doi: 10.1002/wcms.93)

                         Additional Contributions by
    A. E. DePrince, M. Saitow, U. Bozkaya, A. Yu. Sokolov
    -----------------------------------------------------------------------


    Psi4 started on: Fri Sep  2 17:47:40 2016

    Process ID:   6172
    PSI4DATADIR: /export131/home/mjharvey/miniconda3/share
    Memory level set to 256.000 MB

  ==> Input File <==

--------------------------------------------------------------------------
set {
	reference rhf
	basis 6-31G*
}


set_num_threads( 4 )
memory 2 gb

molecule MOL {
0 1

H	 -3.161908	 -0.840114	 1.446659
C	 -3.253309	 -0.606228	 0.378687
C	 -2.711288	 0.740590	 -0.027398
O	 -3.751208	 -1.389040	 -0.363643
C	 -1.269737	 0.963412	 0.450657
H	 -2.792622	 0.831518	 -1.104350
H	 -3.357773	 1.493980	 0.421061
C	 -0.252658	 0.041456	 -0.226725
H	 -1.000710	 1.998319	 0.261249
H	 -1.222766	 0.831401	 1.530529
C	 1.180775	 0.282413	 0.250794
H	 -0.305388	 0.183963	 -1.304110
H	 -0.520207	 -0.998174	 -0.047488
C	 2.148627	 -0.814315	 -0.201312
H	 1.516199	 1.249228	 -0.115937
H	 1.192670	 0.346017	 1.338083
C	 3.580890	 -0.659131	 0.322722
H	 2.166869	 -0.852443	 -1.289387
H	 1.762857	 -1.776509	 0.128956
C	 4.324889	 0.564933	 -0.213704
H	 4.142010	 -1.551473	 0.056605
H	 3.564836	 -0.624694	 1.410140
H	 4.342616	 0.565491	 -1.300421
H	 3.866655	 1.493402	 0.110242
H	 5.353900	 0.572371	 0.132816

	symmetry c1
}
set optking {
	frozen_dihedral = ("
		12 8 11 14
	")
}

ee = optimize('scf')
oeprop('DIPOLE', 'QUADRUPOLE', 'MULLIKEN_CHARGES')
f=open( 'psi4out.xyz', 'w' )
f.write( "25  " )
f.write( str(ee) + "\n" )
f.write( MOL.save_string_xyz() )
f.close()
--------------------------------------------------------------------------

  Memory set to   2.000 GiB by Python script.
gradient() will perform analytic gradient computation.

*** tstart() called on cx1-1-2-2.cx1.hpc.ic.ac.uk
*** at Fri Sep  2 17:47:40 2016


         ---------------------------------------------------------
                                   SCF
            by Justin Turney, Rob Parrish, and Andy Simmonett
                              RHF Reference
                        4 Threads,   2000 MiB Core
         ---------------------------------------------------------

  ==> Geometry <==

    Molecular point group: c1
    Full point group: C1

    Geometry (in Angstrom), charge = 0, multiplicity = 1:

       Center              X                  Y                   Z               Mass       
    ------------   -----------------  -----------------  -----------------  -----------------
           H         -3.166957261430    -0.737750165630     1.410162276401     1.007825032070
           C         -3.258358261430    -0.503864165630     0.342190276401    12.000000000000
           C         -2.716337261430     0.842953834370    -0.063894723599    12.000000000000
           O         -3.756257261430    -1.286676165630    -0.400139723599    15.994914619560
           C         -1.274786261430     1.065775834370     0.414160276401    12.000000000000
           H         -2.797671261430     0.933881834370    -1.140846723599     1.007825032070
           H         -3.362822261430     1.596343834370     0.384564276401     1.007825032070
           C         -0.257707261430     0.143819834370    -0.263221723599    12.000000000000
           H         -1.005759261430     2.100682834370     0.224752276401     1.007825032070
           H         -1.227815261430     0.933764834370     1.494032276401     1.007825032070
           C          1.175725738570     0.384776834370     0.214297276401    12.000000000000
           H         -0.310437261430     0.286326834370    -1.340606723599     1.007825032070
           H         -0.525256261430    -0.895810165630    -0.083984723599     1.007825032070
           C          2.143577738570    -0.711951165630    -0.237808723599    12.000000000000
           H          1.511149738570     1.351591834370    -0.152433723599     1.007825032070
           H          1.187620738570     0.448380834370     1.301586276401     1.007825032070
           C          3.575840738570    -0.556767165630     0.286225276401    12.000000000000
           H          2.161819738570    -0.750079165630    -1.325883723599     1.007825032070
           H          1.757807738570    -1.674145165630     0.092459276401     1.007825032070
           C          4.319839738570     0.667296834370    -0.250200723599    12.000000000000
           H          4.136960738570    -1.449109165630     0.020108276401     1.007825032070
           H          3.559786738570    -0.522330165630     1.373643276401     1.007825032070
           H          4.337566738570     0.667854834370    -1.336917723599     1.007825032070
           H          3.861605738570     1.595765834370     0.073745276401     1.007825032070
           H          5.348850738570     0.674734834370     0.096319276401     1.007825032070

  Running in c1 symmetry.

  Rotational constants: A =      0.14925  B =      0.01571  C =      0.01479 [cm^-1]
  Rotational constants: A =   4474.29618  B =    470.93375  C =    443.52956 [MHz]
  Nuclear repulsion =  439.356962679343781

  Charge       = 0
  Multiplicity = 1
  Electrons    = 72
  Nalpha       = 36
  Nbeta        = 36

  ==> Algorithm <==

  SCF Algorithm Type is DF.
  DIIS enabled.
  MOM disabled.
  Fractional occupation disabled.
  Guess Type is CORE.
  Energy threshold   = 1.00e-08
  Density threshold  = 1.00e-08
  Integral threshold = 0.00e+00

  ==> Primary Basis <==

  Basis Set: 6-31G*
    Number of shells: 86
    Number of basis function: 167
    Number of Cartesian functions: 167
    Spherical Harmonics?: false
    Max angular momentum: 2

  ==> Pre-Iterations <==

   -------------------------------------------------------
    Irrep   Nso     Nmo     Nalpha   Nbeta   Ndocc  Nsocc
   -------------------------------------------------------
     A        167     167       0       0       0       0
   -------------------------------------------------------
    Total     167     167      36      36      36       0
   -------------------------------------------------------

 OEINTS: Overlap, kinetic, potential, dipole, and quadrupole integrals
         stored in file 35.

  ==> Integral Setup <==

  ==> DFJK: Density-Fitted J/K Matrices <==

    J tasked:                  Yes
    K tasked:                  Yes
    wK tasked:                  No
    OpenMP threads:              4
    Integrals threads:           4
    Memory (MB):              1430
    Algorithm:                Core
    Integral Cache:           NONE
    Schwarz Cutoff:          1E-12
    Fitting Condition:       1E-12

   => Auxiliary Basis Set <=

  Basis Set: 
    Number of shells: 360
    Number of basis function: 1129
    Number of Cartesian functions: 1129
    Spherical Harmonics?: false
    Max angular momentum: 3

  Minimum eigenvalue in the overlap matrix is 3.0929388403E-03.
  Using Symmetric Orthogonalization.
  SCF Guess: Core (One-Electron) Hamiltonian.

  ==> Iterations <==

                           Total Energy        Delta E     RMS |[F,P]|

   @DF-RHF iter   1:  -292.20868085921910   -2.92209e+02   5.76804e-02 
   @DF-RHF iter   2:   -30.67277399848342    2.61536e+02   7.47484e-02 DIIS
   @DF-RHF iter   3:  -267.54554850518633   -2.36873e+02   4.53968e-02 DIIS
   @DF-RHF iter   4:  -214.88986507343117    5.26557e+01   6.40543e-02 DIIS
   @DF-RHF iter   5:  -361.84460283795573   -1.46955e+02   2.76574e-02 DIIS
   @DF-RHF iter   6:  -371.08984211123419   -9.24524e+00   2.60713e-02 DIIS
   @DF-RHF iter   7:  -384.61199507822613   -1.35222e+01   8.01341e-03 DIIS
   @DF-RHF iter   8:  -386.79116860391576   -2.17917e+00   4.74026e-03 DIIS
   @DF-RHF iter   9:  -387.07697576085906   -2.85807e-01   1.53174e-03 DIIS
   @DF-RHF iter  10:  -387.11223739336918   -3.52616e-02   6.64567e-04 DIIS
   @DF-RHF iter  11:  -387.12041187474739   -8.17448e-03   2.10576e-04 DIIS
   @DF-RHF iter  12:  -387.12135550152624   -9.43627e-04   6.48299e-05 DIIS
   @DF-RHF iter  13:  -387.12148258482893   -1.27083e-04   2.78400e-05 DIIS
   @DF-RHF iter  14:  -387.12149811166358   -1.55268e-05   8.16996e-06 DIIS
   @DF-RHF iter  15:  -387.12150049739938   -2.38574e-06   2.69469e-06 DIIS
   @DF-RHF iter  16:  -387.12150071630998   -2.18911e-07   7.98615e-07 DIIS
   @DF-RHF iter  17:  -387.12150073409310   -1.77831e-08   3.27236e-07 DIIS
   @DF-RHF iter  18:  -387.12150073699189   -2.89879e-09   7.39004e-08 DIIS
   @DF-RHF iter  19:  -387.12150073721813   -2.26237e-10   1.77084e-08 DIIS
   @DF-RHF iter  20:  -387.12150073723382   -1.56888e-11   7.76011e-09 DIIS

  ==> Post-Iterations <==

    Orbital Energies (a.u.)
    -----------------------

    Doubly Occupied:                                                      

       1A    -20.561989     2A    -11.326139     3A    -11.235373  
       4A    -11.234618     5A    -11.223779     6A    -11.219743  
       7A    -11.218017     8A    -11.217037     9A    -11.210642  
      10A     -1.401967    11A     -1.104034    12A     -1.069717  
      13A     -1.013373    14A     -0.942422    15A     -0.875325  
      16A     -0.820587    17A     -0.788059    18A     -0.781517  
      19A     -0.664098    20A     -0.662554    21A     -0.632402  
      22A     -0.626071    23A     -0.600683    24A     -0.593519  
      25A     -0.578228    26A     -0.547953    27A     -0.537543  
      28A     -0.525019    29A     -0.507139    30A     -0.495328  
      31A     -0.491593    32A     -0.479731    33A     -0.464016  
      34A     -0.459218    35A     -0.441149    36A     -0.409522  

    Virtual:                                                              

      37A      0.160371    38A      0.223580    39A      0.239763  
      40A      0.253907    41A      0.263134    42A      0.270820  
      43A      0.283244    44A      0.301778    45A      0.304060  
      46A      0.309179    47A      0.315424    48A      0.332396  
      49A      0.336915    50A      0.343268    51A      0.347242  
      52A      0.359635    53A      0.367814    54A      0.381693  
      55A      0.395768    56A      0.423852    57A      0.427483  
      58A      0.466670    59A      0.472658    60A      0.479415  
      61A      0.500292    62A      0.687145    63A      0.698884  
      64A      0.720400    65A      0.728874    66A      0.742715  
      67A      0.750350    68A      0.779286    69A      0.785803  
      70A      0.821530    71A      0.847120    72A      0.870619  
      73A      0.897706    74A      0.919099    75A      0.940800  
      76A      0.953911    77A      0.972815    78A      0.976532  
      79A      0.984510    80A      1.020818    81A      1.057911  
      82A      1.065451    83A      1.097388    84A      1.113395  
      85A      1.120843    86A      1.125693    87A      1.134987  
      88A      1.145392    89A      1.159127    90A      1.168563  
      91A      1.180641    92A      1.192618    93A      1.197689  
      94A      1.206398    95A      1.213875    96A      1.216734  
      97A      1.229173    98A      1.247328    99A      1.251787  
     100A      1.265484   101A      1.285591   102A      1.302085  
     103A      1.327599   104A      1.360347   105A      1.414462  
     106A      1.422853   107A      1.474070   108A      1.610232  
     109A      1.640596   110A      1.697746   111A      1.724447  
     112A      1.773878   113A      1.781163   114A      1.830376  
     115A      1.849174   116A      1.870697   117A      1.897754  
     118A      1.943434   119A      1.962296   120A      2.062257  
     121A      2.087993   122A      2.116927   123A      2.139457  
     124A      2.151335   125A      2.165694   126A      2.204045  
     127A      2.217628   128A      2.247816   129A      2.263922  
     130A      2.288992   131A      2.311367   132A      2.312931  
     133A      2.342829   134A      2.376027   135A      2.400725  
     136A      2.423221   137A      2.462375   138A      2.522745  
     139A      2.573157   140A      2.613208   141A      2.627236  
     142A      2.660242   143A      2.687523   144A      2.713571  
     145A      2.737744   146A      2.767601   147A      2.789509  
     148A      2.827383   149A      2.902189   150A      2.937056  
     151A      2.965045   152A      2.978777   153A      3.004461  
     154A      3.015466   155A      3.131148   156A      3.197227  
     157A      3.265493   158A      3.368931   159A      4.313585  
     160A      4.525224   161A      4.571592   162A      4.640253  
     163A      4.734493   164A      4.823558   165A      4.875931  
     166A      4.915081   167A      5.005913  

    Final Occupation by Irrep:
              A 
    DOCC [    36 ]

  Energy converged.

  @DF-RHF Final Energy:  -387.12150073723382

   => Energetics <=

    Nuclear Repulsion Energy =            439.3569626793437806
    One-Electron Energy =               -1395.0367144489669045
    Two-Electron Energy =                 568.5582510323895349
    DFT Exchange-Correlation Energy =       0.0000000000000000
    Empirical Dispersion Energy =           0.0000000000000000
    PCM Polarization Energy =               0.0000000000000000
    EFP Energy =                            0.0000000000000000
    Total Energy =                       -387.1215007372336459

    Alert: EFP and PCM quantities not currently incorporated into SCF psivars.

Properties will be evaluated at   0.000000,   0.000000,   0.000000 Bohr
  ==> Properties <==


Properties computed using the SCF density matrix

  Nuclear Dipole Moment: (a.u.)
     X:    14.4813      Y:     4.2688      Z:     1.0206

  Electronic Dipole Moment: (a.u.)
     X:   -13.8308      Y:    -3.4126      Z:    -0.4480

  Dipole Moment: (a.u.)
     X:     0.6504      Y:     0.8562      Z:     0.5726     Total:     1.2182

  Dipole Moment: (Debye)
     X:     1.6533      Y:     2.1763      Z:     1.4555     Total:     3.0964


  Saving occupied orbitals to File 180.

*** tstop() called on cx1-1-2-2.cx1.hpc.ic.ac.uk at Fri Sep  2 17:47:50 2016
Module time:
	user time   =      31.19 seconds =       0.52 minutes
	system time =       0.39 seconds =       0.01 minutes
	total time  =         10 seconds =       0.17 minutes
Total time:
	user time   =      31.19 seconds =       0.52 minutes
	system time =       0.39 seconds =       0.01 minutes
	total time  =         10 seconds =       0.17 minutes

*** tstart() called on cx1-1-2-2.cx1.hpc.ic.ac.uk
*** at Fri Sep  2 17:47:50 2016


         ------------------------------------------------------------
                                   SCF GRAD                          
                          Rob Parrish, Justin Turney,                
                       Andy Simmonett, and Alex Sokolov              
         ------------------------------------------------------------

  ==> Geometry <==

    Molecular point group: c1
    Full point group: C1

    Geometry (in Angstrom), charge = 0, multiplicity = 1:

       Center              X                  Y                   Z               Mass       
    ------------   -----------------  -----------------  -----------------  -----------------
           H         -3.166957261430    -0.737750165630     1.410162276401     1.007825032070
           C         -3.258358261430    -0.503864165630     0.342190276401    12.000000000000
           C         -2.716337261430     0.842953834370    -0.063894723599    12.000000000000
           O         -3.756257261430    -1.286676165630    -0.400139723599    15.994914619560
           C         -1.274786261430     1.065775834370     0.414160276401    12.000000000000
           H         -2.797671261430     0.933881834370    -1.140846723599     1.007825032070
           H         -3.362822261430     1.596343834370     0.384564276401     1.007825032070
           C         -0.257707261430     0.143819834370    -0.263221723599    12.000000000000
           H         -1.005759261430     2.100682834370     0.224752276401     1.007825032070
           H         -1.227815261430     0.933764834370     1.494032276401     1.007825032070
           C          1.175725738570     0.384776834370     0.214297276401    12.000000000000
           H         -0.310437261430     0.286326834370    -1.340606723599     1.007825032070
           H         -0.525256261430    -0.895810165630    -0.083984723599     1.007825032070
           C          2.143577738570    -0.711951165630    -0.237808723599    12.000000000000
           H          1.511149738570     1.351591834370    -0.152433723599     1.007825032070
           H          1.187620738570     0.448380834370     1.301586276401     1.007825032070
           C          3.575840738570    -0.556767165630     0.286225276401    12.000000000000
           H          2.161819738570    -0.750079165630    -1.325883723599     1.007825032070
           H          1.757807738570    -1.674145165630     0.092459276401     1.007825032070
           C          4.319839738570     0.667296834370    -0.250200723599    12.000000000000
           H          4.136960738570    -1.449109165630     0.020108276401     1.007825032070
           H          3.559786738570    -0.522330165630     1.373643276401     1.007825032070
           H          4.337566738570     0.667854834370    -1.336917723599     1.007825032070
           H          3.861605738570     1.595765834370     0.073745276401     1.007825032070
           H          5.348850738570     0.674734834370     0.096319276401     1.007825032070

  Nuclear repulsion =  439.356962679343781

  ==> Basis Set <==

  Basis Set: 6-31G*
    Number of shells: 86
    Number of basis function: 167
    Number of Cartesian functions: 167
    Spherical Harmonics?: false
    Max angular momentum: 2

  ==> DFJKGrad: Density-Fitted SCF Gradients <==

    Gradient:                    1
    J tasked:                  Yes
    K tasked:                  Yes
    wK tasked:                  No
    OpenMP threads:              4
    Integrals threads:           4
    Memory (MB):              1430
    Schwarz Cutoff:          0E+00
    Fitting Condition:       1E-12

   => Auxiliary Basis Set <=

  Basis Set: 
    Number of shells: 360
    Number of basis function: 1129
    Number of Cartesian functions: 1129
    Spherical Harmonics?: false
    Max angular momentum: 3


  -Total Gradient:
     Atom            X                  Y                   Z
    ------   -----------------  -----------------  -----------------
       1        0.000293671803    -0.000089277088    -0.000103924912
       2       -0.000867305851     0.000285588425     0.000248208178
       3        0.000304147325    -0.000367499176    -0.000074065056
       4        0.000326578353    -0.000009313326    -0.000058291359
       5        0.000106033126    -0.000362182170     0.000665952602
       6        0.000036801826     0.000032976077     0.000021895263
       7       -0.000026415148    -0.000037476228     0.000060163447
       8        0.000502468650     0.000442437511    -0.000128034726
       9       -0.000063718476    -0.000324656421    -0.000145780116
      10       -0.000030544581     0.000184502841     0.000318708699
      11       -0.000446365005    -0.000228421585    -0.000072754186
      12       -0.000024477486     0.000699355728    -0.000041434581
      13        0.000548902284    -0.000242056504    -0.000541999756
      14       -0.000395114426    -0.000339656018     0.000293411863
      15        0.000245961961    -0.000218937868    -0.000798382165
      16       -0.000401916147     0.000743028475     0.000063925574
      17       -0.000085268037     0.000069591837     0.000398247332
      18       -0.000026259141     0.000113216926     0.000032870590
      19       -0.000030047740    -0.000190173390    -0.000038148118
      20       -0.000165868645    -0.000057566783     0.000025617319
      21        0.000039168719     0.000016212304    -0.000038159548
      22        0.000088068457     0.000008095278    -0.000055992210
      23       -0.000048279149     0.000014145891    -0.000097133766
      24        0.000003784765    -0.000100827468    -0.000002196411
      25        0.000115992574    -0.000041107268     0.000067296043


*** tstop() called on cx1-1-2-2.cx1.hpc.ic.ac.uk at Fri Sep  2 17:48:01 2016
Module time:
	user time   =      36.87 seconds =       0.61 minutes
	system time =       0.30 seconds =       0.01 minutes
	total time  =         11 seconds =       0.18 minutes
Total time:
	user time   =      68.08 seconds =       1.13 minutes
	system time =       0.69 seconds =       0.01 minutes
	total time  =         21 seconds =       0.35 minutes
CURRENT ENERGY: -387.1215007372

			-----------------------------------------
			 OPTKING 2.0: for geometry optimizations 
			  - R.A. King,  Bethel University        
			-----------------------------------------

	Internal coordinates to be generated automatically.
	Detected frag with atoms:  1 2 3 4 5 6 7 8 9 10 11 12 13 14 15 16 17 18 19 20
	 21 22 23 24 25
	---Fragment 1 Bond Connectivity---
	 1 : 2
	 2 : 1 3 4
	 3 : 2 5 6 7
	 4 : 2
	 5 : 3 8 9 10
	 6 : 3
	 7 : 3
	 8 : 5 11 12 13
	 9 : 5
	 10 : 5
	 11 : 8 14 15 16
	 12 : 8
	 13 : 8
	 14 : 11 17 18 19
	 15 : 11
	 16 : 11
	 17 : 14 20 21 22
	 18 : 14
	 19 : 14
	 20 : 17 23 24 25
	 21 : 17
	 22 : 17
	 23 : 20
	 24 : 20
	 25 : 20

	Assuming in current code that numbering for constraints corresponds to unified fragment.
	Frozen dihedral atom list: 
	    12     8    11    14
	---Fragment 1 Geometry and Gradient---
	 H          -5.9846818987       -1.3941457675        2.6648205053
	 C          -6.1574047569       -0.9521652812        0.6466459077
	 C          -5.1331335087        1.5929518896       -0.1207435289
	 O          -7.0982975088       -2.4314655748       -0.7561544925
	 C          -2.4089969121        2.0140244460        0.7826494975
	 H          -5.2868324939        1.7647809074       -2.1558878672
	 H          -6.3548131077        3.0166526609        0.7267211629
	 C          -0.4869961466        0.2717800994       -0.4974169698
	 H          -1.9006095597        3.9697152490        0.4247202501
	 H          -2.3202345859        1.7645598095        2.8233118361
	 C           2.2217996533        0.7271228392        0.4049631634
	 H          -0.5866414055        0.5410793015       -2.5333795595
	 H          -0.9925904837       -1.6928358801       -0.1587081269
	 C           4.0507748704       -1.3453927230       -0.4493933596
	 H           2.8556591517        2.5541384104       -0.2880579910
	 H           2.2442779456        0.8473169802        2.4596416007
	 C           6.7573596907       -1.0521374628        0.5408873847
	 H           4.0852472546       -1.4174442010       -2.5055571217
	 H           3.3217752202       -3.1636758697        0.1747227108
	 C           8.1633140439        1.2610082663       -0.4728108459
	 H           7.8177228184       -2.7384194597        0.0379991354
	 H           6.7270220274       -0.9870609640        2.5958095967
	 H           8.1968132190        1.2620627335       -2.5264083598
	 H           7.2973772791        3.0155603992        0.1393583760
	 H          10.1078630216        1.2750640493        0.1820170537
	             0.0002936718       -0.0000892771       -0.0001039249
	            -0.0008673059        0.0002855884        0.0002482082
	             0.0003041473       -0.0003674992       -0.0000740651
	             0.0003265784       -0.0000093133       -0.0000582914
	             0.0001060331       -0.0003621822        0.0006659526
	             0.0000368018        0.0000329761        0.0000218953
	            -0.0000264151       -0.0000374762        0.0000601634
	             0.0005024686        0.0004424375       -0.0001280347
	            -0.0000637185       -0.0003246564       -0.0001457801
	            -0.0000305446        0.0001845028        0.0003187087
	            -0.0004463650       -0.0002284216       -0.0000727542
	            -0.0000244775        0.0006993557       -0.0000414346
	             0.0005489023       -0.0002420565       -0.0005419998
	            -0.0003951144       -0.0003396560        0.0002934119
	             0.0002459620       -0.0002189379       -0.0007983822
	            -0.0004019161        0.0007430285        0.0000639256
	            -0.0000852680        0.0000695918        0.0003982473
	            -0.0000262591        0.0001132169        0.0000328706
	            -0.0000300477       -0.0001901734       -0.0000381481
	            -0.0001658686       -0.0000575668        0.0000256173
	             0.0000391687        0.0000162123       -0.0000381595
	             0.0000880685        0.0000080953       -0.0000559922
	            -0.0000482791        0.0000141459       -0.0000971338
	             0.0000037848       -0.0001008275       -0.0000021964
	             0.0001159926       -0.0000411073        0.0000672960

	Previous optimization step data not found.  Starting new optimization.

	---Fragment 1 Intrafragment Coordinates---
	 - Coordinate -           - BOHR/RAD -       - ANG/DEG -
	 R(1,2)           =         2.073212	       1.097097
	 R(2,3)           =         2.848796	       1.507518
	 R(2,4)           =         2.245319	       1.188172
	 R(3,5)           =         2.900748	       1.535010
	 R(3,6)           =         2.048160	       1.083840
	 R(3,7)           =         2.058548	       1.089337
	 R(5,8)           =         2.892762	       1.530784
	 R(5,9)           =         2.052145	       1.085948
	 R(5,10)          =         2.057769	       1.088925
	 R(8,11)          =         2.891228	       1.529972
	 R(8,12)          =         2.056112	       1.088047
	 R(8,13)          =         2.056712	       1.088365
	 R(11,14)         =         2.893164	       1.530996
	 R(11,15)         =         2.054274	       1.087075
	 R(11,16)         =         2.058314	       1.089213
	 R(14,17)         =         2.896939	       1.532994
	 R(14,18)         =         2.057715	       1.088896
	 R(14,19)         =         2.055995	       1.087986
	 R(17,20)         =         2.890490	       1.529582
	 R(17,21)         =         2.054462	       1.087174
	 R(17,22)         =         2.056176	       1.088082
	 R(20,23)         =         2.053871	       1.086862
	 R(20,24)         =         2.050134	       1.084884
	 R(20,25)         =         2.051894	       1.085815
	 B(1,2,3)         =         2.007251	     115.006983
	 B(1,2,4)         =         2.097443	     120.174635
	 B(2,3,5)         =         1.964323	     112.547446
	 B(2,3,6)         =         1.891918	     108.398939
	 B(2,3,7)         =         1.868793	     107.073966
	 B(3,2,4)         =         2.178491	     124.818366
	 B(3,5,8)         =         1.980923	     113.498548
	 B(3,5,9)         =         1.893012	     108.461604
	 B(3,5,10)        =         1.908961	     109.375424
	 B(5,3,6)         =         1.947385	     111.576964
	 B(5,3,7)         =         1.905753	     109.191623
	 B(5,8,11)        =         1.970917	     112.925226
	 B(5,8,12)        =         1.904016	     109.092089
	 B(5,8,13)        =         1.916759	     109.822217
	 B(6,3,7)         =         1.882318	     107.848890
	 B(8,5,9)         =         1.909420	     109.401709
	 B(8,5,10)        =         1.914688	     109.703560
	 B(8,11,14)       =         1.968494	     112.786418
	 B(8,11,15)       =         1.900606	     108.896722
	 B(8,11,16)       =         1.908145	     109.328671
	 B(9,5,10)        =         1.852314	     106.129762
	 B(11,8,12)       =         1.911159	     109.501326
	 B(11,8,13)       =         1.906416	     109.229596
	 B(11,14,17)      =         2.001127	     114.656143
	 B(11,14,18)      =         1.907898	     109.314490
	 B(11,14,19)      =         1.896245	     108.646808
	 B(12,8,13)       =         1.850705	     106.037559
	 B(14,11,15)      =         1.920287	     110.024335
	 B(14,11,16)      =         1.906790	     109.251013
	 B(14,17,20)      =         1.999369	     114.555402
	 B(14,17,21)      =         1.891728	     108.388011
	 B(14,17,22)      =         1.908210	     109.332359
	 B(15,11,16)      =         1.856107	     106.347111
	 B(17,14,18)      =         1.906541	     109.236727
	 B(17,14,19)      =         1.893394	     108.483514
	 B(17,20,23)      =         1.937991	     111.038716
	 B(17,20,24)      =         1.954884	     112.006606
	 B(17,20,25)      =         1.933199	     110.764149
	 B(18,14,19)      =         1.852824	     106.158983
	 B(20,17,21)      =         1.896477	     108.660157
	 B(20,17,22)      =         1.909576	     109.410635
	 B(21,17,22)      =         1.852739	     106.154108
	 B(23,20,24)      =         1.880745	     107.758739
	 B(23,20,25)      =         1.879297	     107.675787
	 B(24,20,25)      =         1.874575	     107.405240
	 D(1,2,3,5)       =         0.911725	      52.238012
	 D(1,2,3,6)       =         3.074186	     176.137877
	 D(1,2,3,7)       =        -1.182516	     -67.753180
	 D(2,3,5,8)       =         1.166881	      66.857349
	 D(2,3,5,9)       =        -2.990401	    -171.337366
	 D(2,3,5,10)      =        -0.977463	     -56.004488
	 D(3,5,8,11)      =         3.133357	     179.528137
	 D(3,5,8,12)      =         1.004025	      57.526416
	 D(3,5,8,13)      =        -1.017393	     -58.292347
	 D(4,2,3,5)       =        -2.230679	    -127.808509
	 D(4,2,3,6)       =        -0.068219	      -3.908643
	 D(4,2,3,7)       =         1.958265	     112.200299
	 D(5,8,11,14)     =         2.936143	     168.228606
	 D(5,8,11,15)     =        -1.210124	     -69.335021
	 D(5,8,11,16)     =         0.811074	      46.471097
	 D(6,3,5,8)       =        -0.964519	     -55.262880
	 D(6,3,5,9)       =         1.161384	      66.542405
	 D(6,3,5,10)      =        -3.108863	    -178.124717
	 D(7,3,5,8)       =        -3.043567	    -174.383563
	 D(7,3,5,9)       =        -0.917664	     -52.578279
	 D(7,3,5,10)      =         1.095274	      62.754600
	 D(8,11,14,17)    =        -3.081836	    -176.576209
	 D(8,11,14,18)    =         1.054137	      60.397615
	 D(8,11,14,19)    =        -0.960606	     -55.038673
	 D(9,5,8,11)      =         1.016622	      58.248174
	 D(9,5,8,12)      =        -1.112709	     -63.753547
	 D(9,5,8,13)      =        -3.134128	    -179.572311
	 D(10,5,8,11)     =        -1.008642	     -57.790926
	 D(10,5,8,12)     =        -3.137974	    -179.792646
	 D(10,5,8,13)     =         1.123793	      64.388590
	 D(11,14,17,20)   =        -1.152772	     -66.048997
	 D(11,14,17,21)   =         3.009745	     172.445696
	 D(11,14,17,22)   =         0.997406	      57.147135
	*D(12,8,11,14)    =        -1.221730	     -69.999994
	 D(12,8,11,15)    =         0.915187	      52.436379
	 D(12,8,11,16)    =         2.936386	     168.242497
	 D(13,8,11,14)    =         0.797916	      45.717231
	 D(13,8,11,15)    =         2.934834	     168.153605
	 D(13,8,11,16)    =        -1.327153	     -76.040277
	 D(14,17,20,23)   =        -0.975995	     -55.920410
	 D(14,17,20,24)   =         1.127583	      64.605735
	 D(14,17,20,25)   =        -3.063188	    -175.507770
	 D(15,11,14,17)   =         1.075509	      61.622122
	 D(15,11,14,18)   =        -1.071703	     -61.404054
	 D(15,11,14,19)   =        -3.086446	    -176.840342
	 D(16,11,14,17)   =        -0.956001	     -54.774830
	 D(16,11,14,18)   =        -3.103213	    -177.801006
	 D(16,11,14,19)   =         1.165229	      66.762706
	 D(18,14,17,20)   =         0.995169	      57.018981
	 D(18,14,17,21)   =        -1.125499	     -64.486326
	 D(18,14,17,22)   =        -3.137838	    -179.784888
	 D(19,14,17,20)   =         3.007626	     172.324257
	 D(19,14,17,21)   =         0.886958	      50.818950
	 D(19,14,17,22)   =        -1.125382	     -64.479611
	 D(21,17,20,23)   =         1.142068	      65.435691
	 D(21,17,20,24)   =        -3.037539	    -174.038165
	 D(21,17,20,25)   =        -0.945125	     -54.151669
	 D(22,17,20,23)   =        -3.125439	    -179.074444
	 D(22,17,20,24)   =        -1.021861	     -58.548299
	 D(22,17,20,25)   =         1.070553	      61.338196

	Current energy   :      -387.1215007372

	Generating empirical Hessian (Schlegel '84) for each fragment.
	Taking RFO optimization step.
	Going to follow RFO solution 1.
	Using RFO vector 1.
	Norm of target step-size    0.35711
	Projected energy change by RFO approximation:        -0.0004098655

	Back-transformation to cartesian coordinates...
	Successfully converged to displaced geometry.

	Back-transformation to cartesian coordinates to adjust frozen coordinates...
	Successfully converged to displaced geometry.

	--- Internal Coordinate Step in ANG or DEG, aJ/ANG or AJ/DEG ---
	 ---------------------------------------------------------------------------
	   Coordinate                Previous        Force       Change         New 
	   ----------                --------       ------       ------       ------
	    1 R(1,2)          =      1.097097     0.000475     0.000090     1.097186
	    2 R(2,3)          =      1.507518     0.000454     0.000092     1.507610
	    3 R(2,4)          =      1.188172     0.000777     0.000045     1.188217
	    4 R(3,5)          =      1.535010     0.000542     0.000120     1.535130
	    5 R(3,6)          =      1.083840     0.000179     0.000032     1.083872
	    6 R(3,7)          =      1.089337    -0.000120    -0.000022     1.089315
	    7 R(5,8)          =      1.530784     0.000443     0.000097     1.530881
	    8 R(5,9)          =      1.085948     0.002470     0.000449     1.086397
	    9 R(5,10)         =      1.088925    -0.002409    -0.000442     1.088482
	   10 R(8,11)         =      1.529972     0.009383     0.002046     1.532018
	   11 R(8,12)         =      1.088047    -0.001102    -0.000202     1.087846
	   12 R(8,13)         =      1.088365    -0.000058    -0.000011     1.088355
	   13 R(11,14)        =      1.530996     0.001051     0.000230     1.531226
	   14 R(11,15)        =      1.087075    -0.001240    -0.000226     1.086849
	   15 R(11,16)        =      1.089213    -0.000847    -0.000156     1.089057
	   16 R(14,17)        =      1.532994    -0.000359    -0.000079     1.532915
	   17 R(14,18)        =      1.088896     0.000307     0.000056     1.088952
	   18 R(14,19)        =      1.087986    -0.001378    -0.000252     1.087733
	   19 R(17,20)        =      1.529582     0.001582     0.000344     1.529926
	   20 R(17,21)        =      1.087174    -0.000134    -0.000024     1.087150
	   21 R(17,22)        =      1.088082     0.000470     0.000086     1.088168
	   22 R(20,23)        =      1.086862    -0.000794    -0.000145     1.086717
	   23 R(20,24)        =      1.084884     0.000729     0.000132     1.085017
	   24 R(20,25)        =      1.085815    -0.001080    -0.000196     1.085619
	   25 B(1,2,3)        =    115.006983    -0.000002    -0.070021   114.936962
	   26 B(1,2,4)        =    120.174635    -0.000007    -0.094336   120.080299
	   27 B(2,3,5)        =    112.547446    -0.000009    -0.031843   112.515603
	   28 B(2,3,6)        =    108.398939    -0.000000    -0.026093   108.372846
	   29 B(2,3,7)        =    107.073966     0.000006     0.045711   107.119677
	   30 B(3,2,4)        =    124.818366     0.000008    -0.039797   124.778568
	   31 B(3,5,8)        =    113.498548     0.000012     0.043520   113.542068
	   32 B(3,5,9)        =    108.461604    -0.000009    -0.010537   108.451067
	   33 B(3,5,10)       =    109.375424     0.000005     0.018889   109.394313
	   34 B(5,3,6)        =    111.576964     0.000005     0.007537   111.584501
	   35 B(5,3,7)        =    109.191623     0.000001     0.016734   109.208358
	   36 B(5,8,11)       =    112.925226     0.000004    -0.180200   112.745026
	   37 B(5,8,12)       =    109.092089    -0.000033    -0.985513   108.106576
	   38 B(5,8,13)       =    109.822217    -0.000009     0.133862   109.956079
	   39 B(6,3,7)        =    107.848890    -0.000003    -0.009856   107.839034
	   40 B(8,5,9)        =    109.401709     0.000006     0.074684   109.476393
	   41 B(8,5,10)       =    109.703560    -0.000016    -0.120867   109.582693
	   42 B(8,11,14)      =    112.786418     0.000037     0.154346   112.940763
	   43 B(8,11,15)      =    108.896722    -0.000018     0.233045   109.129767
	   44 B(8,11,16)      =    109.328671     0.000013    -0.137026   109.191644
	   45 B(9,5,10)       =    106.129762     0.000002    -0.007489   106.122273
	   46 B(11,8,12)      =    109.501326    -0.000002    -0.258914   109.242413
	   47 B(11,8,13)      =    109.229596     0.000030     0.696556   109.926152
	   48 B(11,14,17)     =    114.656143     0.000003     0.012382   114.668525
	   49 B(11,14,18)     =    109.314490     0.000007     0.035108   109.349598
	   50 B(11,14,19)     =    108.646808    -0.000007    -0.030923   108.615885
	   51 B(12,8,13)      =    106.037559     0.000011     0.624308   106.661867
	   52 B(14,11,15)     =    110.024335    -0.000001     0.513199   110.537534
	   53 B(14,11,16)     =    109.251013    -0.000034    -0.687155   108.563858
	   54 B(14,17,20)     =    114.555402     0.000008     0.030192   114.585594
	   55 B(14,17,21)     =    108.388011    -0.000002     0.017680   108.405691
	   56 B(14,17,22)     =    109.332359    -0.000009    -0.080744   109.251615
	   57 B(15,11,16)     =    106.347111     0.000001    -0.098282   106.248829
	   58 B(17,14,18)     =    109.236727    -0.000010    -0.066711   109.170015
	   59 B(17,14,19)     =    108.483514     0.000007     0.051605   108.535118
	   60 B(17,20,23)     =    111.038716    -0.000000    -0.004405   111.034311
	   61 B(17,20,24)     =    112.006606     0.000005     0.028474   112.035080
	   62 B(17,20,25)     =    110.764149     0.000004     0.014455   110.778603
	   63 B(18,14,19)     =    106.158983     0.000000    -0.002104   106.156879
	   64 B(20,17,21)     =    108.660157     0.000000     0.045252   108.705408
	   65 B(20,17,22)     =    109.410635     0.000001    -0.009214   109.401421
	   66 B(21,17,22)     =    106.154108     0.000001    -0.004382   106.149726
	   67 B(23,20,24)     =    107.758739    -0.000001     0.000415   107.759154
	   68 B(23,20,25)     =    107.675787    -0.000003    -0.028010   107.647777
	   69 B(24,20,25)     =    107.405240    -0.000004    -0.013702   107.391538
	   70 D(1,2,3,5)      =     52.238012     0.000004     2.674299    54.912311
	   71 D(1,2,3,6)      =    176.137877     0.000003     2.643446   178.781323
	   72 D(1,2,3,7)      =    -67.753180     0.000003     2.642549   -65.110631
	   73 D(2,3,5,8)      =     66.857349    -0.000002     0.574601    67.431951
	   74 D(2,3,5,9)      =   -171.337366     0.000000     0.691231  -170.646135
	   75 D(2,3,5,10)     =    -56.004488     0.000000     0.686689   -55.317799
	   76 D(3,5,8,11)     =    179.528137    -0.000006    -5.314618   174.213520
	   77 D(3,5,8,12)     =     57.526416    -0.000001    -4.180324    53.346092
	   78 D(3,5,8,13)     =    -58.292347     0.000002    -4.443623   -62.735970
	   79 D(4,2,3,5)      =   -127.808509    -0.000003    -2.491981  -130.300489
	   80 D(4,2,3,6)      =     -3.908643    -0.000003    -2.522834    -6.431477
	   81 D(4,2,3,7)      =    112.200299    -0.000003    -2.523730   109.676569
	   82 D(5,8,11,14)    =    168.228606     0.000010     1.554619   169.783225
	   83 D(5,8,11,15)    =    -69.335021     0.000012     2.487225   -66.847796
	   84 D(5,8,11,16)    =     46.471097     0.000012     2.423506    48.894604
	   85 D(6,3,5,8)      =    -55.262880    -0.000001     0.626221   -54.636658
	   86 D(6,3,5,9)      =     66.542405     0.000001     0.742851    67.285256
	   87 D(6,3,5,10)     =   -178.124717     0.000001     0.738309  -177.386407
	   88 D(7,3,5,8)      =   -174.383563    -0.000001     0.622962  -173.760601
	   89 D(7,3,5,9)      =    -52.578279     0.000001     0.739591   -51.838687
	   90 D(7,3,5,10)     =     62.754600     0.000001     0.735050    63.489650
	   91 D(8,11,14,17)   =   -176.576209    -0.000003    -3.599500  -180.175710
	   92 D(8,11,14,18)   =     60.397615    -0.000002    -3.547994    56.849621
	   93 D(8,11,14,19)   =    -55.038673    -0.000002    -3.547485   -58.586158
	   94 D(9,5,8,11)     =     58.248174    -0.000007    -5.384671    52.863503
	   95 D(9,5,8,12)     =    -63.753547    -0.000001    -4.250377   -68.003924
	   96 D(9,5,8,13)     =   -179.572311     0.000002    -4.513676  -184.085986
	   97 D(10,5,8,11)    =    -57.790926    -0.000006    -5.349658   -63.140583
	   98 D(10,5,8,12)    =   -179.792646    -0.000000    -4.215365  -184.008011
	   99 D(10,5,8,13)    =     64.388590     0.000002    -4.478663    59.909927
	  100 D(11,14,17,20)  =    -66.048997    -0.000000    -0.048571   -66.097568
	  101 D(11,14,17,21)  =    172.445696    -0.000001    -0.140219   172.305477
	  102 D(11,14,17,22)  =     57.147135    -0.000000    -0.101596    57.045539
	  103 *D(12,8,11,14)  =    -69.999994    -0.000000    -0.000000   -69.999994
	  104 D(12,8,11,15)   =     52.436379     0.000003     0.932606    53.368985
	  105 D(12,8,11,16)   =    168.242497     0.000002     0.868887   169.111384
	  106 D(13,8,11,14)   =     45.717231     0.000007     0.998801    46.716033
	  107 D(13,8,11,15)   =    168.153605     0.000009     1.931407   170.085012
	  108 D(13,8,11,16)   =    -76.040277     0.000009     1.867688   -74.172589
	  109 D(14,17,20,23)  =    -55.920410    -0.000001    -0.509871   -56.430280
	  110 D(14,17,20,24)  =     64.605735    -0.000001    -0.492901    64.112834
	  111 D(14,17,20,25)  =   -175.507770    -0.000001    -0.481328  -175.989097
	  112 D(15,11,14,17)  =     61.622122    -0.000004    -4.384233    57.237889
	  113 D(15,11,14,18)  =    -61.404054    -0.000003    -4.332727   -65.736781
	  114 D(15,11,14,19)  =   -176.840342    -0.000003    -4.332218  -181.172560
	  115 D(16,11,14,17)  =    -54.774830     0.000000    -4.155932   -58.930762
	  116 D(16,11,14,18)  =   -177.801006     0.000002    -4.104426  -181.905432
	  117 D(16,11,14,19)  =     66.762706     0.000002    -4.103917    62.658789
	  118 D(18,14,17,20)  =     57.018981     0.000001    -0.045341    56.973640
	  119 D(18,14,17,21)  =    -64.486326    -0.000000    -0.136988   -64.623315
	  120 D(18,14,17,22)  =   -179.784888     0.000001    -0.098365  -179.883253
	  121 D(19,14,17,20)  =    172.324257     0.000000    -0.055476   172.268781
	  122 D(19,14,17,21)  =     50.818950    -0.000001    -0.147123    50.671827
	  123 D(19,14,17,22)  =    -64.479611     0.000000    -0.108500   -64.588111
	  124 D(21,17,20,23)  =     65.435691    -0.000000    -0.433097    65.002593
	  125 D(21,17,20,24)  =   -174.038165    -0.000000    -0.416127  -174.454292
	  126 D(21,17,20,25)  =    -54.151669     0.000000    -0.404554   -54.556223
	  127 D(22,17,20,23)  =   -179.074444     0.000000    -0.418358  -179.492801
	  128 D(22,17,20,24)  =    -58.548299     0.000000    -0.401388   -58.949687
	  129 D(22,17,20,25)  =     61.338196     0.000001    -0.389814    60.948382
	 ---------------------------------------------------------------------------

  ==> Convergence Check <==

  Measures of convergence in internal coordinates in au.
  Criteria marked as inactive (o), active & met (*), and active & unmet ( ).
  --------------------------------------------------------------------------------------------- ~
   Step     Total Energy     Delta E     MAX Force     RMS Force      MAX Disp      RMS Disp    ~
  --------------------------------------------------------------------------------------------- ~
    Convergence Criteria    1.00e-06 *    3.00e-04 *             o    1.20e-03 *             o  ~
  --------------------------------------------------------------------------------------------- ~
      1    -387.12150074   -3.87e+02      1.14e-03      2.09e-04 o    9.40e-02      3.14e-02 o  ~
  ---------------------------------------------------------------------------------------------

	Writing optimization data to binary file.
	Structure for next step:
	Cartesian Geometry (in Angstrom)
	    H    -3.3267420298  -0.7068988519   1.3080090936
	    C    -3.3080113350  -0.4593168374   0.2392854646
	    C    -2.6882400179   0.8741049222  -0.0935184930
	    O    -3.8334930333  -1.1778210216  -0.5477848024
	    C    -1.2673592495   1.0188070622   0.4693168262
	    H    -2.7054236118   0.9996929475  -1.1699530978
	    H    -3.3262673182   1.6419728449   0.3422647811
	    C    -0.2503071592   0.0836926453  -0.1900481093
	    H    -0.9493117588   2.0494325031   0.3392543250
	    H    -1.2840349794   0.8408369512   1.5430216758
	    C     1.1840116952   0.3402971533   0.2831991410
	    H    -0.3043192248   0.2305464197  -1.2665817508
	    H    -0.5228883763  -0.9531448445  -0.0024754684
	    C     2.1662010004  -0.7413740499  -0.1749988786
	    H     1.5044102771   1.3186207725  -0.0653232566
	    H     1.1995303618   0.3842973828   1.3712563324
	    C     3.6153600303  -0.5212499177   0.2736800920
	    H     2.1359940476  -0.8196500100  -1.2607138695
	    H     1.8279994736  -1.7019319482   0.2072474205
	    C     4.2932234045   0.7042409307  -0.3422318532
	    H     4.1926846544  -1.4055532400   0.0156120909
	    H     3.6473526395  -0.4449044609   1.3586947371
	    H     4.2682889125   0.6594236155  -1.4277379757
	    H     3.8152748408   1.6296360826  -0.0381428918
	    H     5.3340553981   0.7617121594  -0.0390245367
			--------------------------
			 OPTKING Finished Execution 
			--------------------------

    Structure for next step:
    Molecular point group: c1
    Full point group: C1

    Geometry (in Angstrom), charge = 0, multiplicity = 1:

    H           -3.320888594129    -0.716814903549     1.323312152782
    C           -3.302157900783    -0.469232907872     0.254588605435
    C           -2.682386630953     0.864188749867    -0.078215326801
    O           -3.827639558961    -1.187737037245    -0.532481601445
    C           -1.261505971041     1.008890878832     0.484619949495
    H           -2.699570223527     0.989776765589    -1.154649849348
    H           -3.320413882551     1.632056613890     0.357567914048
    C           -0.244453958432     0.073776533287    -0.174744935745
    H           -0.943458504702     2.039516241043     0.354557458190
    H           -1.278181699689     0.830920781386     1.558324717079
    C            1.189864786391     0.330381021766     0.298502278494
    H           -0.298466019889     0.220630296457    -1.251278495014
    H           -0.517035154745    -0.963060877261     0.012827690859
    C            2.172054016599    -0.751290098848    -0.159695706161
    H            1.510263343837     1.308704566208    -0.050020092517
    H            1.205383451796     0.374381247834     1.386559386811
    C            3.621212935883    -0.531165983457     0.288983230212
    H            2.141847066139    -0.829566052971    -1.245410614160
    H            1.833852515628    -1.711847923862     0.222550563785
    C            4.299076258292     0.694324771320    -0.326928667959
    H            4.198537515838    -1.415469238307     0.030915248827
    H            3.653205542655    -0.454820532558     1.373997792474
    H            4.274141768156     0.649507459593    -1.412434707573
    H            3.821127731115     1.619719852598    -0.022839729807
    H            5.339908172402     0.751795995665    -0.023721374637

gradient() will perform analytic gradient computation.

*** tstart() called on cx1-1-2-2.cx1.hpc.ic.ac.uk
*** at Fri Sep  2 17:48:02 2016


         ---------------------------------------------------------
                                   SCF
            by Justin Turney, Rob Parrish, and Andy Simmonett
                              RHF Reference
                        4 Threads,   2000 MiB Core
         ---------------------------------------------------------

  ==> Geometry <==

    Molecular point group: c1
    Full point group: C1

    Geometry (in Angstrom), charge = 0, multiplicity = 1:

       Center              X                  Y                   Z               Mass       
    ------------   -----------------  -----------------  -----------------  -----------------
           H         -3.320888594129    -0.716814903549     1.323312152782     1.007825032070
           C         -3.302157900783    -0.469232907872     0.254588605435    12.000000000000
           C         -2.682386630953     0.864188749867    -0.078215326801    12.000000000000
           O         -3.827639558961    -1.187737037245    -0.532481601445    15.994914619560
           C         -1.261505971041     1.008890878832     0.484619949495    12.000000000000
           H         -2.699570223527     0.989776765589    -1.154649849348     1.007825032070
           H         -3.320413882551     1.632056613890     0.357567914048     1.007825032070
           C         -0.244453958432     0.073776533287    -0.174744935745    12.000000000000
           H         -0.943458504702     2.039516241043     0.354557458190     1.007825032070
           H         -1.278181699689     0.830920781386     1.558324717079     1.007825032070
           C          1.189864786391     0.330381021766     0.298502278494    12.000000000000
           H         -0.298466019889     0.220630296457    -1.251278495014     1.007825032070
           H         -0.517035154745    -0.963060877261     0.012827690859     1.007825032070
           C          2.172054016599    -0.751290098848    -0.159695706161    12.000000000000
           H          1.510263343837     1.308704566208    -0.050020092517     1.007825032070
           H          1.205383451796     0.374381247834     1.386559386811     1.007825032070
           C          3.621212935883    -0.531165983457     0.288983230212    12.000000000000
           H          2.141847066139    -0.829566052971    -1.245410614160     1.007825032070
           H          1.833852515628    -1.711847923862     0.222550563785     1.007825032070
           C          4.299076258292     0.694324771320    -0.326928667959    12.000000000000
           H          4.198537515838    -1.415469238307     0.030915248827     1.007825032070
           H          3.653205542655    -0.454820532558     1.373997792474     1.007825032070
           H          4.274141768156     0.649507459593    -1.412434707573     1.007825032070
           H          3.821127731115     1.619719852598    -0.022839729807     1.007825032070
           H          5.339908172402     0.751795995665    -0.023721374637     1.007825032070

  Running in c1 symmetry.

  Rotational constants: A =      0.15257  B =      0.01549  C =      0.01468 [cm^-1]
  Rotational constants: A =   4573.80838  B =    464.45219  C =    439.95866 [MHz]
  Nuclear repulsion =  438.757635531548772

  Charge       = 0
  Multiplicity = 1
  Electrons    = 72
  Nalpha       = 36
  Nbeta        = 36

  ==> Algorithm <==

  SCF Algorithm Type is DF.
  DIIS enabled.
  MOM disabled.
  Fractional occupation disabled.
  Guess Type is READ.
  Energy threshold   = 1.00e-08
  Density threshold  = 1.00e-08
  Integral threshold = 0.00e+00

  ==> Primary Basis <==

  Basis Set: 6-31G*
    Number of shells: 86
    Number of basis function: 167
    Number of Cartesian functions: 167
    Spherical Harmonics?: false
    Max angular momentum: 2

  ==> Pre-Iterations <==

   -------------------------------------------------------
    Irrep   Nso     Nmo     Nalpha   Nbeta   Ndocc  Nsocc
   -------------------------------------------------------
     A        167     167       0       0       0       0
   -------------------------------------------------------
    Total     167     167      36      36      36       0
   -------------------------------------------------------

 OEINTS: Overlap, kinetic, potential, dipole, and quadrupole integrals
         stored in file 35.

  ==> Integral Setup <==

  ==> DFJK: Density-Fitted J/K Matrices <==

    J tasked:                  Yes
    K tasked:                  Yes
    wK tasked:                  No
    OpenMP threads:              4
    Integrals threads:           4
    Memory (MB):              1430
    Algorithm:                Core
    Integral Cache:           NONE
    Schwarz Cutoff:          1E-12
    Fitting Condition:       1E-12

   => Auxiliary Basis Set <=

  Basis Set: 
    Number of shells: 360
    Number of basis function: 1129
    Number of Cartesian functions: 1129
    Spherical Harmonics?: false
    Max angular momentum: 3

  Minimum eigenvalue in the overlap matrix is 3.0936368519E-03.
  Using Symmetric Orthogonalization.
  SCF Guess: Reading in previously saved MOs, projecting if necessary.

  Using orbitals from previous SCF, no projection.
  Recomputing DOCC and SOCC from number of alpha and beta electrons from previous calculation.
              A 
    DOCC [    36 ]

  ==> Iterations <==

                           Total Energy        Delta E     RMS |[F,P]|

   @DF-RHF iter   0:  -387.09101567621644   -3.87091e+02   1.24026e-03 
   @DF-RHF iter   1:  -387.11985975744960   -2.88441e-02   2.05626e-04 
   @DF-RHF iter   2:  -387.12094829979981   -1.08854e-03   7.43676e-05 DIIS
   @DF-RHF iter   3:  -387.12113333192292   -1.85032e-04   3.94280e-05 DIIS
   @DF-RHF iter   4:  -387.12117433366177   -4.10017e-05   1.57629e-05 DIIS
   @DF-RHF iter   5:  -387.12119004707108   -1.57134e-05   9.61031e-06 DIIS
   @DF-RHF iter   6:  -387.12119926689456   -9.21982e-06   2.63888e-06 DIIS
   @DF-RHF iter   7:  -387.12119985993900   -5.93044e-07   8.82997e-07 DIIS
   @DF-RHF iter   8:  -387.12119989833673   -3.83977e-08   3.14421e-07 DIIS
   @DF-RHF iter   9:  -387.12119990315671   -4.81998e-09   9.82152e-08 DIIS
   @DF-RHF iter  10:  -387.12119990361441   -4.57703e-10   3.00830e-08 DIIS
   @DF-RHF iter  11:  -387.12119990365375   -3.93356e-11   9.36947e-09 DIIS

  ==> Post-Iterations <==

    Orbital Energies (a.u.)
    -----------------------

    Doubly Occupied:                                                      

       1A    -20.562032     2A    -11.326091     3A    -11.235110  
       4A    -11.234521     5A    -11.224279     6A    -11.220128  
       7A    -11.218210     8A    -11.217174     9A    -11.210813  
      10A     -1.401942    11A     -1.103909    12A     -1.069780  
      13A     -1.013193    14A     -0.942740    15A     -0.875233  
      16A     -0.820577    17A     -0.787863    18A     -0.781646  
      19A     -0.664216    20A     -0.662753    21A     -0.632543  
      22A     -0.626175    23A     -0.600768    24A     -0.593878  
      25A     -0.577740    26A     -0.547811    27A     -0.537742  
      28A     -0.524867    29A     -0.507321    30A     -0.495053  
      31A     -0.492851    32A     -0.479346    33A     -0.463508  
      34A     -0.459821    35A     -0.441281    36A     -0.409383  

    Virtual:                                                              

      37A      0.159263    38A      0.223389    39A      0.239843  
      40A      0.254143    41A      0.262212    42A      0.270527  
      43A      0.283359    44A      0.301640    45A      0.303983  
      46A      0.310865    47A      0.315220    48A      0.331269  
      49A      0.336927    50A      0.343245    51A      0.347405  
      52A      0.356656    53A      0.372965    54A      0.383001  
      55A      0.395000    56A      0.423182    57A      0.427689  
      58A      0.465481    59A      0.473294    60A      0.476086  
      61A      0.499538    62A      0.686735    63A      0.698071  
      64A      0.718938    65A      0.728559    66A      0.742491  
      67A      0.750675    68A      0.779185    69A      0.784087  
      70A      0.821174    71A      0.849623    72A      0.870317  
      73A      0.892974    74A      0.919835    75A      0.939314  
      76A      0.956928    77A      0.970464    78A      0.976611  
      79A      0.983865    80A      1.019652    81A      1.055711  
      82A      1.065206    83A      1.097839    84A      1.114633  
      85A      1.120078    86A      1.125232    87A      1.135807  
      88A      1.144637    89A      1.159010    90A      1.168854  
      91A      1.179495    92A      1.193291    93A      1.198003  
      94A      1.206645    95A      1.214899    96A      1.216728  
      97A      1.228997    98A      1.246318    99A      1.249779  
     100A      1.262659   101A      1.289070   102A      1.299417  
     103A      1.335356   104A      1.357354   105A      1.404586  
     106A      1.432111   107A      1.471091   108A      1.606827  
     109A      1.640377   110A      1.700771   111A      1.725499  
     112A      1.771794   113A      1.778819   114A      1.834051  
     115A      1.852092   116A      1.870844   117A      1.896650  
     118A      1.941983   119A      1.965394   120A      2.064526  
     121A      2.087654   122A      2.111014   123A      2.132644  
     124A      2.155110   125A      2.174127   126A      2.204384  
     127A      2.218921   128A      2.248110   129A      2.264342  
     130A      2.289456   131A      2.308872   132A      2.321017  
     133A      2.342816   134A      2.370400   135A      2.400813  
     136A      2.413559   137A      2.461871   138A      2.525957  
     139A      2.572319   140A      2.610535   141A      2.630622  
     142A      2.659807   143A      2.684774   144A      2.716547  
     145A      2.737539   146A      2.764489   147A      2.784765  
     148A      2.829719   149A      2.902034   150A      2.937310  
     151A      2.962641   152A      2.977981   153A      3.006543  
     154A      3.015048   155A      3.129502   156A      3.196072  
     157A      3.266692   158A      3.369501   159A      4.315013  
     160A      4.525271   161A      4.572152   162A      4.640800  
     163A      4.734475   164A      4.822640   165A      4.875304  
     166A      4.914562   167A      5.006140  

    Final Occupation by Irrep:
              A 
    DOCC [    36 ]

  Energy converged.

  @DF-RHF Final Energy:  -387.12119990365375

   => Energetics <=

    Nuclear Repulsion Energy =            438.7576355315487717
    One-Electron Energy =               -1393.8330747214179155
    Two-Electron Energy =                 567.9542392862150564
    DFT Exchange-Correlation Energy =       0.0000000000000000
    Empirical Dispersion Energy =           0.0000000000000000
    PCM Polarization Energy =               0.0000000000000000
    EFP Energy =                            0.0000000000000000
    Total Energy =                       -387.1211999036540874

    Alert: EFP and PCM quantities not currently incorporated into SCF psivars.

Properties will be evaluated at   0.000000,   0.000000,   0.000000 Bohr
  ==> Properties <==


Properties computed using the SCF density matrix

  Nuclear Dipole Moment: (a.u.)
     X:    14.6064      Y:     4.0493      Z:     1.3664

  Electronic Dipole Moment: (a.u.)
     X:   -13.9262      Y:    -3.2482      Z:    -0.7356

  Dipole Moment: (a.u.)
     X:     0.6802      Y:     0.8011      Z:     0.6308     Total:     1.2257

  Dipole Moment: (Debye)
     X:     1.7288      Y:     2.0362      Z:     1.6033     Total:     3.1153


  Saving occupied orbitals to File 180.

*** tstop() called on cx1-1-2-2.cx1.hpc.ic.ac.uk at Fri Sep  2 17:48:11 2016
Module time:
	user time   =      26.87 seconds =       0.45 minutes
	system time =       0.37 seconds =       0.01 minutes
	total time  =          9 seconds =       0.15 minutes
Total time:
	user time   =      96.72 seconds =       1.61 minutes
	system time =       1.10 seconds =       0.02 minutes
	total time  =         31 seconds =       0.52 minutes

*** tstart() called on cx1-1-2-2.cx1.hpc.ic.ac.uk
*** at Fri Sep  2 17:48:11 2016


         ------------------------------------------------------------
                                   SCF GRAD                          
                          Rob Parrish, Justin Turney,                
                       Andy Simmonett, and Alex Sokolov              
         ------------------------------------------------------------

  ==> Geometry <==

    Molecular point group: c1
    Full point group: C1

    Geometry (in Angstrom), charge = 0, multiplicity = 1:

       Center              X                  Y                   Z               Mass       
    ------------   -----------------  -----------------  -----------------  -----------------
           H         -3.320888594129    -0.716814903549     1.323312152782     1.007825032070
           C         -3.302157900783    -0.469232907872     0.254588605435    12.000000000000
           C         -2.682386630953     0.864188749867    -0.078215326801    12.000000000000
           O         -3.827639558961    -1.187737037245    -0.532481601445    15.994914619560
           C         -1.261505971041     1.008890878832     0.484619949495    12.000000000000
           H         -2.699570223527     0.989776765589    -1.154649849348     1.007825032070
           H         -3.320413882551     1.632056613890     0.357567914048     1.007825032070
           C         -0.244453958432     0.073776533287    -0.174744935745    12.000000000000
           H         -0.943458504702     2.039516241043     0.354557458190     1.007825032070
           H         -1.278181699689     0.830920781386     1.558324717079     1.007825032070
           C          1.189864786391     0.330381021766     0.298502278494    12.000000000000
           H         -0.298466019889     0.220630296457    -1.251278495014     1.007825032070
           H         -0.517035154745    -0.963060877261     0.012827690859     1.007825032070
           C          2.172054016599    -0.751290098848    -0.159695706161    12.000000000000
           H          1.510263343837     1.308704566208    -0.050020092517     1.007825032070
           H          1.205383451796     0.374381247834     1.386559386811     1.007825032070
           C          3.621212935883    -0.531165983457     0.288983230212    12.000000000000
           H          2.141847066139    -0.829566052971    -1.245410614160     1.007825032070
           H          1.833852515628    -1.711847923862     0.222550563785     1.007825032070
           C          4.299076258292     0.694324771320    -0.326928667959    12.000000000000
           H          4.198537515838    -1.415469238307     0.030915248827     1.007825032070
           H          3.653205542655    -0.454820532558     1.373997792474     1.007825032070
           H          4.274141768156     0.649507459593    -1.412434707573     1.007825032070
           H          3.821127731115     1.619719852598    -0.022839729807     1.007825032070
           H          5.339908172402     0.751795995665    -0.023721374637     1.007825032070

  Nuclear repulsion =  438.757635531548772

  ==> Basis Set <==

  Basis Set: 6-31G*
    Number of shells: 86
    Number of basis function: 167
    Number of Cartesian functions: 167
    Spherical Harmonics?: false
    Max angular momentum: 2

  ==> DFJKGrad: Density-Fitted SCF Gradients <==

    Gradient:                    1
    J tasked:                  Yes
    K tasked:                  Yes
    wK tasked:                  No
    OpenMP threads:              4
    Integrals threads:           4
    Memory (MB):              1430
    Schwarz Cutoff:          0E+00
    Fitting Condition:       1E-12

   => Auxiliary Basis Set <=

  Basis Set: 
    Number of shells: 360
    Number of basis function: 1129
    Number of Cartesian functions: 1129
    Spherical Harmonics?: false
    Max angular momentum: 3


  -Total Gradient:
     Atom            X                  Y                   Z
    ------   -----------------  -----------------  -----------------
       1       -0.003561904711     0.001904852867     0.000345920365
       2        0.010413696733    -0.005517455854    -0.001504987718
       3       -0.003630517270     0.001885760820     0.000309406482
       4       -0.003347631225     0.001926703401     0.000688672707
       5        0.000153198452    -0.000738484299    -0.000522621349
       6       -0.000119710959    -0.000126105089     0.000018931160
       7        0.000420956260     0.000827071960    -0.000252116695
       8       -0.000033762079    -0.003745703427     0.001447245296
       9       -0.000206237451     0.000134529150     0.000155162934
      10        0.000097097951    -0.000335302713    -0.000256380424
      11        0.000650937571     0.002520435389    -0.002619562682
      12       -0.000868607205     0.002502778877     0.000530088743
      13       -0.000218130953    -0.000261093564    -0.000066018707
      14       -0.000284478615    -0.001072324454     0.001910084778
      15        0.000641223450     0.000386097377     0.000287058394
      16       -0.000070788699    -0.000256234610    -0.000324971495
      17        0.000088042480    -0.000074111339    -0.000304570806
      18       -0.000169746711     0.000059248222     0.000123416891
      19        0.000246100402    -0.000113799593     0.000052792787
      20        0.000014999357     0.000075144246     0.000068449310
      21        0.000010609767    -0.000039190851    -0.000017080781
      22       -0.000092185227    -0.000030360486    -0.000077502457
      23        0.000019329016    -0.000002253464     0.000005703530
      24       -0.000156169002     0.000055739078     0.000021909288
      25        0.000003678671     0.000034058358    -0.000019029549


*** tstop() called on cx1-1-2-2.cx1.hpc.ic.ac.uk at Fri Sep  2 17:48:21 2016
Module time:
	user time   =      37.63 seconds =       0.63 minutes
	system time =       0.30 seconds =       0.01 minutes
	total time  =         10 seconds =       0.17 minutes
Total time:
	user time   =     134.36 seconds =       2.24 minutes
	system time =       1.40 seconds =       0.02 minutes
	total time  =         41 seconds =       0.68 minutes
CURRENT ENERGY: -387.1211999037

			-----------------------------------------
			 OPTKING 2.0: for geometry optimizations 
			  - R.A. King,  Bethel University        
			-----------------------------------------

	Previous internal coordinate definitions found.
	---Fragment 1 Geometry and Gradient---
	 H          -6.2755699607       -1.3545838557        2.5006975571
	 C          -6.2401740800       -0.8867216884        0.4811027408
	 C          -5.0689761150        1.6330800644       -0.1478055470
	 O          -7.2331905018       -2.2444977183       -1.0062443975
	 C          -2.3839008003        1.9065274590        0.9157989831
	 H          -5.1014483990        1.8704070197       -2.1819719946
	 H          -6.2746728859        3.0841400336        0.6757054315
	 C          -0.4619510335        0.1394174429       -0.3302200717
	 H          -1.7828781916        3.8541271391        0.6700164944
	 H          -2.4154133605        1.5702127149        2.9448069414
	 C           2.2485185814        0.6243296506        0.5640875564
	 H          -0.5640190376        0.4169308369       -2.3645736715
	 H          -0.9770548435       -1.8199213073        0.0242408226
	 C           4.1045872372       -1.4197325332       -0.3017811492
	 H           2.8539841084        2.4730932190       -0.0945242760
	 H           2.2778446090        0.7074780277        2.6202175081
	 C           6.8431007177       -1.0037582398        0.5460991621
	 H           4.0475043735       -1.5676526493       -2.3534849838
	 H           3.4654790226       -3.2349237572        0.4205596163
	 C           8.1240767526        1.3120836651       -0.6178056474
	 H           7.9340860636       -2.6748492099        0.0584213536
	 H           6.9035579828       -0.8594862461        2.5964795350
	 H           8.0769573949        1.2273912199       -2.6691147779
	 H           7.2208849306        3.0608269334       -0.0431608343
	 H          10.0909640206        1.4206885396       -0.0448269016
	            -0.0035619047        0.0019048529        0.0003459204
	             0.0104136967       -0.0055174559       -0.0015049877
	            -0.0036305173        0.0018857608        0.0003094065
	            -0.0033476312        0.0019267034        0.0006886727
	             0.0001531985       -0.0007384843       -0.0005226213
	            -0.0001197110       -0.0001261051        0.0000189312
	             0.0004209563        0.0008270720       -0.0002521167
	            -0.0000337621       -0.0037457034        0.0014472453
	            -0.0002062375        0.0001345291        0.0001551629
	             0.0000970980       -0.0003353027       -0.0002563804
	             0.0006509376        0.0025204354       -0.0026195627
	            -0.0008686072        0.0025027789        0.0005300887
	            -0.0002181310       -0.0002610936       -0.0000660187
	            -0.0002844786       -0.0010723245        0.0019100848
	             0.0006412235        0.0003860974        0.0002870584
	            -0.0000707887       -0.0002562346       -0.0003249715
	             0.0000880425       -0.0000741113       -0.0003045708
	            -0.0001697467        0.0000592482        0.0001234169
	             0.0002461004       -0.0001137996        0.0000527928
	             0.0000149994        0.0000751442        0.0000684493
	             0.0000106098       -0.0000391909       -0.0000170808
	            -0.0000921852       -0.0000303605       -0.0000775025
	             0.0000193290       -0.0000022535        0.0000057035
	            -0.0001561690        0.0000557391        0.0000219093
	             0.0000036787        0.0000340584       -0.0000190295

	---Fragment 1 Intrafragment Coordinates---
	 - Coordinate -           - BOHR/RAD -       - ANG/DEG -
	 R(1,2)           =         2.073382	       1.097186
	 R(2,3)           =         2.848970	       1.507610
	 R(2,4)           =         2.245404	       1.188217
	 R(3,5)           =         2.900975	       1.535130
	 R(3,6)           =         2.048222	       1.083872
	 R(3,7)           =         2.058507	       1.089315
	 R(5,8)           =         2.892945	       1.530881
	 R(5,9)           =         2.052993	       1.086397
	 R(5,10)          =         2.056933	       1.088482
	 R(8,11)          =         2.895094	       1.532018
	 R(8,12)          =         2.055730	       1.087846
	 R(8,13)          =         2.056692	       1.088355
	 R(11,14)         =         2.893598	       1.531226
	 R(11,15)         =         2.053846	       1.086849
	 R(11,16)         =         2.058019	       1.089057
	 R(14,17)         =         2.896790	       1.532915
	 R(14,18)         =         2.057821	       1.088952
	 R(14,19)         =         2.055518	       1.087733
	 R(17,20)         =         2.891141	       1.529926
	 R(17,21)         =         2.054416	       1.087150
	 R(17,22)         =         2.056339	       1.088168
	 R(20,23)         =         2.053597	       1.086717
	 R(20,24)         =         2.050384	       1.085017
	 R(20,25)         =         2.051523	       1.085619
	 B(1,2,3)         =         2.006028	     114.936962
	 B(1,2,4)         =         2.095797	     120.080299
	 B(2,3,5)         =         1.963768	     112.515603
	 B(2,3,6)         =         1.891463	     108.372846
	 B(2,3,7)         =         1.869591	     107.119677
	 B(3,2,4)         =         2.177797	     124.778568
	 B(3,5,8)         =         1.981683	     113.542068
	 B(3,5,9)         =         1.892828	     108.451067
	 B(3,5,10)        =         1.909291	     109.394313
	 B(5,3,6)         =         1.947517	     111.584501
	 B(5,3,7)         =         1.906045	     109.208358
	 B(5,8,11)        =         1.967772	     112.745026
	 B(5,8,12)        =         1.886816	     108.106576
	 B(5,8,13)        =         1.919096	     109.956079
	 B(6,3,7)         =         1.882146	     107.839034
	 B(8,5,9)         =         1.910724	     109.476393
	 B(8,5,10)        =         1.912579	     109.582693
	 B(8,11,14)       =         1.971188	     112.940763
	 B(8,11,15)       =         1.904674	     109.129767
	 B(8,11,16)       =         1.905754	     109.191644
	 B(9,5,10)        =         1.852183	     106.122273
	 B(11,8,12)       =         1.906640	     109.242413
	 B(11,8,13)       =         1.918573	     109.926152
	 B(11,14,17)      =         2.001343	     114.668525
	 B(11,14,18)      =         1.908511	     109.349598
	 B(11,14,19)      =         1.895705	     108.615885
	 B(12,8,13)       =         1.861601	     106.661867
	 B(14,11,15)      =         1.929244	     110.537534
	 B(14,11,16)      =         1.894797	     108.563858
	 B(14,17,20)      =         1.999896	     114.585594
	 B(14,17,21)      =         1.892036	     108.405691
	 B(14,17,22)      =         1.906800	     109.251615
	 B(15,11,16)      =         1.854392	     106.248829
	 B(17,14,18)      =         1.905376	     109.170015
	 B(17,14,19)      =         1.894295	     108.535118
	 B(17,20,23)      =         1.937914	     111.034311
	 B(17,20,24)      =         1.955381	     112.035080
	 B(17,20,25)      =         1.933451	     110.778603
	 B(18,14,19)      =         1.852787	     106.156879
	 B(20,17,21)      =         1.897267	     108.705408
	 B(20,17,22)      =         1.909415	     109.401421
	 B(21,17,22)      =         1.852662	     106.149726
	 B(23,20,24)      =         1.880752	     107.759154
	 B(23,20,25)      =         1.878808	     107.647777
	 B(24,20,25)      =         1.874336	     107.391538
	 D(1,2,3,5)       =         0.958401	      54.912311
	 D(1,2,3,6)       =         3.120323	     178.781323
	 D(1,2,3,7)       =        -1.136395	     -65.110631
	 D(2,3,5,8)       =         1.176910	      67.431951
	 D(2,3,5,9)       =        -2.978337	    -170.646135
	 D(2,3,5,10)      =        -0.965478	     -55.317799
	 D(3,5,8,11)      =         3.040600	     174.213520
	 D(3,5,8,12)      =         0.931065	      53.346092
	 D(3,5,8,13)      =        -1.094949	     -62.735970
	 D(4,2,3,5)       =        -2.274173	    -130.300489
	 D(4,2,3,6)       =        -0.112250	      -6.431477
	 D(4,2,3,7)       =         1.914217	     109.676569
	 D(5,8,11,14)     =         2.963276	     169.783225
	 D(5,8,11,15)     =        -1.166714	     -66.847796
	 D(5,8,11,16)     =         0.853372	      48.894604
	 D(6,3,5,8)       =        -0.953590	     -54.636658
	 D(6,3,5,9)       =         1.174349	      67.285256
	 D(6,3,5,10)      =        -3.095977	    -177.386407
	 D(7,3,5,8)       =        -3.032695	    -173.760601
	 D(7,3,5,9)       =        -0.904756	     -51.838687
	 D(7,3,5,10)      =         1.108103	      63.489650
	 D(8,11,14,17)    =         3.138526	     179.824290
	 D(8,11,14,18)    =         0.992213	      56.849621
	 D(8,11,14,19)    =        -1.022521	     -58.586158
	 D(9,5,8,11)      =         0.922642	      52.863503
	 D(9,5,8,12)      =        -1.186892	     -68.003924
	 D(9,5,8,13)      =         3.070279	     175.914014
	 D(10,5,8,11)     =        -1.102011	     -63.140583
	 D(10,5,8,12)     =         3.071640	     175.991989
	 D(10,5,8,13)     =         1.045625	      59.909927
	 D(11,14,17,20)   =        -1.153620	     -66.097568
	 D(11,14,17,21)   =         3.007298	     172.305477
	 D(11,14,17,22)   =         0.995632	      57.045539
	*D(12,8,11,14)    =        -1.221730	     -69.999994
	 D(12,8,11,15)    =         0.931465	      53.368985
	 D(12,8,11,16)    =         2.951550	     169.111384
	 D(13,8,11,14)    =         0.815349	      46.716033
	 D(13,8,11,15)    =         2.968543	     170.085012
	 D(13,8,11,16)    =        -1.294556	     -74.172589
	 D(14,17,20,23)   =        -0.984894	     -56.430280
	 D(14,17,20,24)   =         1.118980	      64.112834
	 D(14,17,20,25)   =        -3.071589	    -175.989097
	 D(15,11,14,17)   =         0.998990	      57.237889
	 D(15,11,14,18)   =        -1.147323	     -65.736781
	 D(15,11,14,19)   =         3.121128	     178.827440
	 D(16,11,14,17)   =        -1.028536	     -58.930762
	 D(16,11,14,18)   =         3.108337	     178.094568
	 D(16,11,14,19)   =         1.093602	      62.658789
	 D(18,14,17,20)   =         0.994378	      56.973640
	 D(18,14,17,21)   =        -1.127890	     -64.623315
	 D(18,14,17,22)   =        -3.139555	    -179.883253
	 D(19,14,17,20)   =         3.006657	     172.268781
	 D(19,14,17,21)   =         0.884390	      50.671827
	 D(19,14,17,22)   =        -1.127275	     -64.588111
	 D(21,17,20,23)   =         1.134509	      65.002593
	 D(21,17,20,24)   =        -3.044802	    -174.454292
	 D(21,17,20,25)   =        -0.952186	     -54.556223
	 D(22,17,20,23)   =        -3.132740	    -179.492801
	 D(22,17,20,24)   =        -1.028866	     -58.949687
	 D(22,17,20,25)   =         1.063750	      60.948382

	Current energy   :      -387.1211999037

	Energy change for the previous step:
		Projected    :        -0.0004098655
		Actual       :         0.0003008336

	Performing BFGS update.
	Previous computed or guess Hessian on step 1.
	Steps to be used in Hessian update: 1
	Taking RFO optimization step.
	Going to follow RFO solution 1.
	Using RFO vector 1.
	Norm of target step-size    0.24944
	Projected energy change by RFO approximation:         0.0007369726

	Back-transformation to cartesian coordinates...
	Successfully converged to displaced geometry.

	Back-transformation to cartesian coordinates to adjust frozen coordinates...
	Successfully converged to displaced geometry.

	--- Internal Coordinate Step in ANG or DEG, aJ/ANG or AJ/DEG ---
	 ---------------------------------------------------------------------------
	   Coordinate                Previous        Force       Change         New 
	   ----------                --------       ------       ------       ------
	    1 R(1,2)          =      1.097186     0.000264     0.000107     1.097294
	    2 R(2,3)          =      1.507610     0.000439     0.000119     1.507730
	    3 R(2,4)          =      1.188217     0.001160     0.000064     1.188281
	    4 R(3,5)          =      1.535130     0.000843     0.000173     1.535303
	    5 R(3,6)          =      1.083872     0.000260     0.000046     1.083918
	    6 R(3,7)          =      1.089315    -0.001941    -0.000109     1.089206
	    7 R(5,8)          =      1.530881     0.005004     0.000366     1.531247
	    8 R(5,9)          =      1.086397    -0.000401     0.000460     1.086857
	    9 R(5,10)         =      1.088482     0.001644    -0.000398     1.088085
	   10 R(8,11)         =      1.532018    -0.006809     0.001817     1.533835
	   11 R(8,12)         =      1.087846     0.001183    -0.000162     1.087683
	   12 R(8,13)         =      1.088355    -0.002406    -0.000118     1.088237
	   13 R(11,14)        =      1.531226    -0.000408     0.000223     1.531449
	   14 R(11,15)        =      1.086849    -0.003662    -0.000402     1.086447
	   15 R(11,16)        =      1.089057     0.002768    -0.000043     1.089014
	   16 R(14,17)        =      1.532915     0.001624     0.000002     1.532918
	   17 R(14,18)        =      1.088952     0.001010     0.000105     1.089057
	   18 R(14,19)        =      1.087733    -0.000350    -0.000284     1.087450
	   19 R(17,20)        =      1.529926    -0.000387     0.000346     1.530272
	   20 R(17,21)        =      1.087150    -0.000342    -0.000041     1.087109
	   21 R(17,22)        =      1.088168     0.000677     0.000121     1.088289
	   22 R(20,23)        =      1.086717     0.000050    -0.000152     1.086565
	   23 R(20,24)        =      1.085017    -0.001009     0.000097     1.085113
	   24 R(20,25)        =      1.085619    -0.000000    -0.000209     1.085410
	   25 B(1,2,3)        =    114.936962     0.000018     0.039954   114.976916
[...]
	 D(21,17,20,25)   =        -0.952212	     -54.557722
	 D(22,17,20,23)   =        -3.133057	    -179.510935
	 D(22,17,20,24)   =        -1.029117	     -58.964088
	 D(22,17,20,25)   =         1.063430	      60.930058

	Current energy   :      -387.1215895477

	Energy change for the previous step:
		Projected    :        -0.0000005021
		Actual       :        -0.0000005412
	Energy ratio indicates good step: Trust radius increased to 7.031e-02.


	Performing BFGS update.
	Previous computed or guess Hessian on step 1.
	Steps to be used in Hessian update: 9 8
	Taking RFO optimization step.
	Going to follow RFO solution 1.
	Using RFO vector 1.
	Norm of target step-size    0.00775
	Projected energy change by RFO approximation:         0.0000000034

	Back-transformation to cartesian coordinates...
	Successfully converged to displaced geometry.

	Back-transformation to cartesian coordinates to adjust frozen coordinates...
	Successfully converged to displaced geometry.

	--- Internal Coordinate Step in ANG or DEG, aJ/ANG or AJ/DEG ---
	 ---------------------------------------------------------------------------
	   Coordinate                Previous        Force       Change         New 
	   ----------                --------       ------       ------       ------
	    1 R(1,2)          =      1.097185     0.000048     0.000007     1.097192
	    2 R(2,3)          =      1.507601    -0.000166    -0.000021     1.507580
	    3 R(2,4)          =      1.188218    -0.000043    -0.000001     1.188217
	    4 R(3,5)          =      1.535091    -0.000059    -0.000010     1.535081
	    5 R(3,6)          =      1.083878     0.000054     0.000007     1.083884
	    6 R(3,7)          =      1.089278    -0.000046    -0.000005     1.089273
	    7 R(5,8)          =      1.531724     0.000099     0.000016     1.531740
	    8 R(5,9)          =      1.086301    -0.000031    -0.000006     1.086295
	    9 R(5,10)         =      1.088636     0.000024     0.000005     1.088641
	   10 R(8,11)         =      1.531147     0.000097     0.000011     1.531158
	   11 R(8,12)         =      1.087891     0.000011     0.000002     1.087893
	   12 R(8,13)         =      1.087907     0.000005    -0.000002     1.087905
	   13 R(11,14)        =      1.531140    -0.000178    -0.000022     1.531118
	   14 R(11,15)        =      1.086564    -0.000018     0.000000     1.086564
	   15 R(11,16)        =      1.089364    -0.000096    -0.000013     1.089351
	   16 R(14,17)        =      1.532927     0.000338     0.000056     1.532983
	   17 R(14,18)        =      1.089039    -0.000033    -0.000003     1.089036
	   18 R(14,19)        =      1.087713     0.000004    -0.000001     1.087712
	   19 R(17,20)        =      1.529794     0.000072     0.000009     1.529803
	   20 R(17,21)        =      1.087118     0.000025     0.000001     1.087119
	   21 R(17,22)        =      1.088231    -0.000033    -0.000004     1.088227
	   22 R(20,23)        =      1.086713    -0.000062    -0.000009     1.086704
	   23 R(20,24)        =      1.084985    -0.000025    -0.000002     1.084983
	   24 R(20,25)        =      1.085638     0.000003     0.000001     1.085639
	   25 B(1,2,3)        =    115.003219     0.000000     0.000737   115.003956
	   26 B(1,2,4)        =    120.149156     0.000002     0.003383   120.152538
	   27 B(2,3,5)        =    112.531631    -0.000002    -0.004367   112.527264
	   28 B(2,3,6)        =    108.377608     0.000001     0.002749   108.380357
	   29 B(2,3,7)        =    107.093238    -0.000000    -0.001872   107.091366
	   30 B(3,2,4)        =    124.846463    -0.000002    -0.004147   124.842316
	   31 B(3,5,8)        =    113.532673     0.000000     0.000619   113.533291
	   32 B(3,5,9)        =    108.473428    -0.000000    -0.003474   108.469954
	   33 B(3,5,10)       =    109.365703    -0.000000    -0.000834   109.364869
	   34 B(5,3,6)        =    111.580881     0.000000     0.000129   111.581010
	   35 B(5,3,7)        =    109.203476     0.000001     0.002573   109.206049
	   36 B(5,8,11)       =    112.677696     0.000000     0.001615   112.679312
	   37 B(5,8,12)       =    108.409791     0.000000     0.001561   108.411352
	   38 B(5,8,13)       =    109.854303    -0.000000    -0.001595   109.852707
	   39 B(6,3,7)        =    107.852321    -0.000000     0.000895   107.853216
	   40 B(8,5,9)        =    109.410408    -0.000000    -0.001582   109.408826
	   41 B(8,5,10)       =    109.665759     0.000000     0.005054   109.670813
	   42 B(8,11,14)      =    112.922219    -0.000000     0.000348   112.922567
	   43 B(8,11,15)      =    108.947726     0.000000     0.004448   108.952174
	   44 B(8,11,16)      =    109.255620     0.000000    -0.001066   109.254555
	   45 B(9,5,10)       =    106.120375     0.000000     0.000084   106.120459
	   46 B(11,8,12)      =    109.379432    -0.000000    -0.000697   109.378734
	   47 B(11,8,13)      =    109.697664     0.000000     0.000762   109.698426
	   48 B(11,14,17)     =    114.655610     0.000001     0.001035   114.656644
	   49 B(11,14,18)     =    109.477956    -0.000001    -0.003380   109.474575
	   50 B(11,14,19)     =    108.480897    -0.000001    -0.005787   108.475110
	   51 B(12,8,13)      =    106.631007    -0.000000    -0.001832   106.629175
	   52 B(14,11,15)     =    110.534723     0.000000     0.002414   110.537136
	   53 B(14,11,16)     =    108.664063    -0.000001    -0.007308   108.656754
	   54 B(14,17,20)     =    114.568638     0.000001     0.001506   114.570144
	   55 B(14,17,21)     =    108.399515    -0.000000     0.001654   108.401168
	   56 B(14,17,22)     =    109.299549     0.000000     0.003302   109.302851
	   57 B(15,11,16)     =    106.295105     0.000000     0.001130   106.296236
	   58 B(17,14,18)     =    109.186892     0.000000     0.004844   109.191735
	   59 B(17,14,19)     =    108.542978     0.000000     0.004556   108.547533
	   60 B(17,20,23)     =    111.030235    -0.000001    -0.004735   111.025500
	   61 B(17,20,24)     =    112.044437     0.000001     0.003707   112.048144
	   62 B(17,20,25)     =    110.766816     0.000001     0.002669   110.769485
	   63 B(18,14,19)     =    106.149739     0.000000    -0.001478   106.148261
	   64 B(20,17,21)     =    108.665877    -0.000001    -0.003752   108.662126
	   65 B(20,17,22)     =    109.420523    -0.000001    -0.000663   109.419860
	   66 B(21,17,22)     =    106.145206     0.000000    -0.002390   106.142816
	   67 B(23,20,24)     =    107.759280    -0.000000    -0.000188   107.759092
	   68 B(23,20,25)     =    107.656223     0.000000    -0.000554   107.655669
	   69 B(24,20,25)     =    107.389869    -0.000001    -0.001003   107.388866
	   70 D(1,2,3,5)      =     52.573068     0.000000     0.014156    52.587224
	   71 D(1,2,3,6)      =    176.451770     0.000000     0.013344   176.465113
	   72 D(1,2,3,7)      =    -67.436017     0.000000     0.014804   -67.421213
	   73 D(2,3,5,8)      =     66.781848     0.000000    -0.034723    66.747125
	   74 D(2,3,5,9)      =   -171.370629     0.000000    -0.038834  -171.409463
	   75 D(2,3,5,10)     =    -56.047641    -0.000000    -0.041082   -56.088723
	   76 D(3,5,8,11)     =    177.407507    -0.000000    -0.041431   177.366076
	   77 D(3,5,8,12)     =     56.202380    -0.000000    -0.042667    56.159713
	   78 D(3,5,8,13)     =    -59.958670     0.000000    -0.040484   -59.999155
	   79 D(4,2,3,5)      =   -127.820375     0.000000     0.009546  -127.810828
	   80 D(4,2,3,6)      =     -3.941673    -0.000000     0.008734    -3.932939
	   81 D(4,2,3,7)      =    112.170540    -0.000000     0.010194   112.180734
	   82 D(5,8,11,14)    =    169.348802    -0.000000    -0.002555   169.346247
	   83 D(5,8,11,15)    =    -67.432039    -0.000000     0.004035   -67.428004
	   84 D(5,8,11,16)    =     48.300121     0.000000     0.007259    48.307380
	   85 D(6,3,5,8)      =    -55.301948     0.000000    -0.035229   -55.337177
	   86 D(6,3,5,9)      =     66.545575     0.000000    -0.039340    66.506235
	   87 D(6,3,5,10)     =   -178.131437    -0.000000    -0.041588  -178.173025
	   88 D(7,3,5,8)      =   -174.436979    -0.000000    -0.038084  -174.475063
	   89 D(7,3,5,9)      =    -52.589456    -0.000000    -0.042195   -52.631651
	   90 D(7,3,5,10)     =     62.733532    -0.000000    -0.044443    62.689089
	   91 D(8,11,14,17)   =   -178.203963     0.000000     0.084235  -178.119728
	   92 D(8,11,14,18)   =     58.708761    -0.000000     0.079748    58.788508
	   93 D(8,11,14,19)   =    -56.713510     0.000000     0.086509   -56.627001
	   94 D(9,5,8,11)     =     56.082975     0.000000    -0.036243    56.046732
	   95 D(9,5,8,12)     =    -65.122151     0.000000    -0.037480   -65.159631
	   96 D(9,5,8,13)     =    178.716798     0.000000    -0.035297   178.681501
	   97 D(10,5,8,11)    =    -59.928362    -0.000000    -0.038306   -59.966667
	   98 D(10,5,8,12)    =    178.866512    -0.000000    -0.039542   178.826970
	   99 D(10,5,8,13)    =     62.705461     0.000000    -0.037359    62.668102
	  100 D(11,14,17,20)  =    -66.790945    -0.000000     0.033642   -66.757303
	  101 D(11,14,17,21)  =    171.678995    -0.000000     0.036239   171.715234
	  102 D(11,14,17,22)  =     56.402228    -0.000000     0.036413    56.438641
	  103 *D(12,8,11,14)  =    -69.999994     0.000000    -0.000000   -69.999994
	  104 D(12,8,11,15)   =     53.219165     0.000000     0.006590    53.225755
	  105 D(12,8,11,16)   =    168.951324     0.000000     0.009814   168.961139
	  106 D(13,8,11,14)   =     46.627177    -0.000000    -0.002177    46.625001
	  107 D(13,8,11,15)   =    169.846337    -0.000000     0.004413   169.850750
	  108 D(13,8,11,16)   =    -74.421504     0.000000     0.007638   -74.413866
	  109 D(14,17,20,23)  =    -56.382816     0.000000     0.106492   -56.276325
	  110 D(14,17,20,24)  =     64.164030     0.000000     0.105491    64.269521
	  111 D(14,17,20,25)  =   -175.941823     0.000000     0.108530  -175.833293
	  112 D(15,11,14,17)  =     59.461415    -0.000000     0.076434    59.537849
	  113 D(15,11,14,18)  =    -63.625862    -0.000000     0.071946   -63.553915
	  114 D(15,11,14,19)  =   -179.048132     0.000000     0.078708  -178.969425
	  115 D(16,11,14,17)  =    -56.819930     0.000000     0.077987   -56.741944
	  116 D(16,11,14,18)  =   -179.907206    -0.000000     0.073499  -179.833707
	  117 D(16,11,14,19)  =     64.670523     0.000000     0.080260    64.750783
	  118 D(18,14,17,20)  =     56.452584    -0.000000     0.033708    56.486291
	  119 D(18,14,17,21)  =    -65.077476    -0.000000     0.036305   -65.041171
	  120 D(18,14,17,22)  =    179.645757    -0.000000     0.036479   179.682236
	  121 D(19,14,17,20)  =    171.752557     0.000000     0.037025   171.789582
	  122 D(19,14,17,21)  =     50.222498     0.000000     0.039622    50.262120
	  123 D(19,14,17,22)  =    -65.054270     0.000000     0.039796   -65.014474
	  124 D(21,17,20,23)  =     65.001285     0.000000     0.106859    65.108144
	  125 D(21,17,20,24)  =   -174.451868     0.000000     0.105859  -174.346010
	  126 D(21,17,20,25)  =    -54.557722     0.000000     0.108898   -54.448824
	  127 D(22,17,20,23)  =   -179.510935    -0.000000     0.101584  -179.409351
	  128 D(22,17,20,24)  =    -58.964088    -0.000000     0.100583   -58.863505
	  129 D(22,17,20,25)  =     60.930058     0.000000     0.103622    61.033681
	 ---------------------------------------------------------------------------

  ==> Convergence Check <==

  Measures of convergence in internal coordinates in au.
  Criteria marked as inactive (o), active & met (*), and active & unmet ( ).
  ---------------------------------------------------------------------------------------------
   Step     Total Energy     Delta E     MAX Force     RMS Force      MAX Disp      RMS Disp   
  ---------------------------------------------------------------------------------------------
    Convergence Criteria    1.00e-06 *    3.00e-04 *             o    1.20e-03 *             o
  ---------------------------------------------------------------------------------------------
     10    -387.12158955   -5.41e-07 *    4.10e-05 *    8.14e-06 o    1.90e-03      6.83e-04 o  ~
  ---------------------------------------------------------------------------------------------


  **** Optimization is complete! (in 10 steps) ****

  ==> Optimization Summary <==

  Measures of convergence in internal coordinates in au.
  --------------------------------------------------------------------------------------------------------------- ~
   Step         Total Energy             Delta E       MAX Force       RMS Force        MAX Disp        RMS Disp  ~
  --------------------------------------------------------------------------------------------------------------- ~
      1    -387.121500737234   -387.121500737234      0.00113891      0.00020867      0.09398023      0.03144001  ~
      2    -387.121199903654      0.000300833580      0.00273194      0.00059417      0.08138499      0.02194181  ~
      3    -387.121043689861      0.000156213792      0.00246199      0.00064950      0.05578177      0.01966267  ~
      4    -387.121539142622     -0.000495452761      0.00059475      0.00013974      0.03079171      0.01100563  ~
      5    -387.121585565794     -0.000046423171      0.00012469      0.00003633      0.03604515      0.01345687  ~
      6    -387.121559005087      0.000026560707      0.00036597      0.00010008      0.05244003      0.01403258  ~
      7    -387.121581199779     -0.000022194692      0.00023298      0.00005704      0.01769972      0.00702216  ~
      8    -387.121586755037     -0.000005555258      0.00013238      0.00003435      0.00698323      0.00206361  ~
      9    -387.121589006560     -0.000002251523      0.00006120      0.00001392      0.00709659      0.00206356  ~
     10    -387.121589547716     -0.000000541155      0.00004098      0.00000814      0.00190062      0.00068267  ~
  --------------------------------------------------------------------------------------------------------------- ~

	Writing optimization data to binary file.
	Final energy is   -387.1215895477159
	Final (previous) structure:
	Cartesian Geometry (in Angstrom)
	    H    -3.2219540172  -0.7369738000   1.3710610949
	    C    -3.2807153260  -0.4864914725   0.3044677108
	    C    -2.7047705774   0.8562072425  -0.0674319138
	    O    -3.7774259347  -1.2477079955  -0.4608369179
	    C    -1.2698689158   1.0431346415   0.4450315504
	    H    -2.7609452973   0.9657249809  -1.1442981519
	    H    -3.3464231576   1.6146622432   0.3792834006
	    C    -0.2551012892   0.1113691583  -0.2244739962
	    H    -0.9766171241   2.0757388372   0.2783557243
	    H    -1.2491812508   0.8932901652   1.5231075902
	    C     1.1781331369   0.3574827251   0.2547734920
	    H    -0.3070231998   0.2631722451  -1.3004695523
	    H    -0.5295603647  -0.9255374261  -0.0427096986
	    C     2.1554429528  -0.7276269409  -0.2054356382
	    H     1.5030304420   1.3347876456  -0.0915470437
	    H     1.1908005246   0.3991624948   1.3432658529
	    C     3.5947301567  -0.5433046751   0.2888735880
	    H     2.1544863757  -0.7795365062  -1.2932359652
	    H     1.7904732834  -1.6909490133   0.1437450275
	    C     4.3138424039   0.6776303369  -0.2877241550
	    H     4.1622664299  -1.4344566728   0.0327956415
	    H     3.5971147445  -0.4848931869   1.3755331830
	    H     4.3192054151   0.6500637910  -1.3740742632
	    H     3.8457533311   1.6076703275   0.0174159830
	    H     5.3464408640   0.7093350304   0.0459583719
	Saving final (previous) structure.
			--------------------------
			 OPTKING Finished Execution 
			--------------------------

    Final optimized geometry and variables:
    Molecular point group: c1
    Full point group: C1

    Geometry (in Angstrom), charge = 0, multiplicity = 1:

    H           -3.221953771147    -0.736973743737     1.371060990231
    C           -3.280715075479    -0.486491435332     0.304467687566
    C           -2.704770370855     0.856207177165    -0.067431908675
    O           -3.777425646279    -1.247707900242    -0.460836882707
    C           -1.269868818862     1.043134561878     0.445031516440
    H           -2.760945086447     0.965724907178    -1.144298064531
    H           -3.346422902050     1.614662119922     0.379283371596
    C           -0.255101269769     0.111369149814    -0.224473979094
    H           -0.976617049473     2.075738678654     0.278355703065
    H           -1.249181155444     0.893290097023     1.523107473850
    C            1.178133046915     0.357482697850     0.254773472530
    H           -0.307023176390     0.263172224995    -1.300469452975
    H           -0.529560324311    -0.925537355418    -0.042709695343
    C            2.155442788238    -0.727626885354    -0.205435622557
    H            1.503030327248     1.334787543653    -0.091547036697
    H            1.190800433696     0.399162464279     1.343265750279
    C            3.594729882194    -0.543304633605     0.288873565922
    H            2.154486211186    -0.779536446687    -1.293235866436
    H            1.790473146623    -1.690948884211     0.143745016558
    C            4.313842074485     0.677630285143    -0.287724133008
    H            4.162266112084    -1.434456563237     0.032795638980
    H            3.597114469855    -0.484893149830     1.375533077953
    H            4.319205085275     0.650063741347    -1.374074158240
    H            3.845753037458     1.607670204739     0.017415981690
    H            5.346440455745     0.709334976193     0.045958368394

	Cleaning optimization helper files.


Properties will be evaluated at   0.000000,   0.000000,   0.000000 Bohr

Properties computed using the  density matrix

  Nuclear Dipole Moment: (a.u.)
     X:    14.5294      Y:     4.1763      Z:     1.1829

  Electronic Dipole Moment: (a.u.)
     X:   -13.8739      Y:    -3.3408      Z:    -0.5817

  Dipole Moment: (a.u.)
     X:     0.6554      Y:     0.8355      Z:     0.6013     Total:     1.2203

  Dipole Moment: (Debye)
     X:     1.6659      Y:     2.1237      Z:     1.5282     Total:     3.1018

  Quadrupole Moment: (Debye Ang)
    XX:   -68.2369     YY:   -61.1855     ZZ:   -58.2221
    XY:    -8.8855     XZ:    -5.9330     YZ:    -1.9166

  Traceless Quadrupole Moment: (Debye Ang)
    XX:    -5.6888     YY:     1.3627     ZZ:     4.3261
    XY:    -8.8855     XZ:    -5.9330     YZ:    -1.9166

  Mulliken Charges: (a.u.)
   Center  Symbol    Alpha    Beta     Spin     Total
       1     H     0.43265  0.43265  0.00000  0.13471
       2     C     2.83082  2.83082  0.00000  0.33836
       3     C     3.20825  3.20825  0.00000 -0.41650
       4     O     4.23773  4.23773  0.00000 -0.47546
       5     C     3.16683  3.16683  0.00000 -0.33365
       6     H     0.39978  0.39978  0.00000  0.20044
       7     H     0.40665  0.40665  0.00000  0.18669
       8     C     3.15470  3.15470  0.00000 -0.30940
       9     H     0.41299  0.41299  0.00000  0.17402
      10     H     0.41960  0.41960  0.00000  0.16080
      11     C     3.15446  3.15446  0.00000 -0.30892
      12     H     0.41764  0.41764  0.00000  0.16473
      13     H     0.41834  0.41834  0.00000  0.16331
      14     C     3.15316  3.15316  0.00000 -0.30633
      15     H     0.41978  0.41978  0.00000  0.16044
      16     H     0.42434  0.42434  0.00000  0.15131
      17     C     3.15291  3.15291  0.00000 -0.30582
      18     H     0.42283  0.42283  0.00000  0.15433
      19     H     0.42080  0.42080  0.00000  0.15840
      20     C     3.24123  3.24123  0.00000 -0.48246
      21     H     0.41991  0.41991  0.00000  0.16019
      22     H     0.42343  0.42343  0.00000  0.15315
      23     H     0.42170  0.42170  0.00000  0.15661
      24     H     0.42081  0.42081  0.00000  0.15839
      25     H     0.41867  0.41867  0.00000  0.16266

   Total alpha = 36.00000, Total beta = 36.00000, Total charge =  0.00000


*** PSI4 exiting successfully. Buy a developer a beer!
