    -----------------------------------------------------------------------
          Psi4: An Open-Source Ab Initio Electronic Structure Package
                              Psi4 1.0.54 Driver

                          Git: Rev {master} 8d4cec3 dirty

    J. M. Turney, A. C. Simmonett, R. M. Parrish, E. G. Hohenstein,
    F. A. Evangelista, J. T. Fermann, B. J. Mintz, L. A. Burns, J. J. Wilke,
    M. L. Abrams, N. J. Russ, M. L. Leininger, C. L. Janssen, E. T. Seidl,
    W. D. Allen, H. F. Schaefer, R. A. King, E. F. Valeev, C. D. Sherrill,
    and T. D. Crawford, WIREs Comput. Mol. Sci. 2, 556-565 (2012)
    (doi: 10.1002/wcms.93)

                         Additional Contributions by
    A. E. DePrince, U. Bozkaya, A. Yu. Sokolov, D. G. A. Smith, R. Di Remigio,
    R. M. Richard, J. F. Gonthier, H. R. McAlexander, M. Saitow, and
    B. P. Pritchard
    -----------------------------------------------------------------------


    Psi4 started on: Sat Sep 10 17:25:38 2016

    Process ID:  36391
    PSI4DATADIR: /export131/home/mjharvey/miniconda3/share/psi4
    Memory level set to 256.000 MB

  ==> Input File <==

--------------------------------------------------------------------------
set {
	reference rhf
	basis cc-pvtz
}


set_num_threads( 4 )
memory 2 gb

molecule MOL {
0 1

H	 2.462485	 -2.216993	 0.000000
O	 2.777472	 -1.330706	 0.000000
C	 1.763288	 -0.447523	 0.000000
C	 0.520872	 -0.899476	 0.421024
C	 1.922231	 0.862808	 -0.397654
H	 0.419275	 -1.922128	 0.726008
C	 -0.553904	 -0.040545	 0.442164
H	 2.868793	 1.238162	 -0.726936
C	 0.822123	 1.696696	 -0.363585
H	 -1.510271	 -0.398664	 0.769059
C	 -0.419138	 1.280060	 0.047469
N	 0.998641	 3.090012	 -0.788217
H	 -1.244303	 1.958074	 0.058604
O	 2.081566	 3.423923	 -1.138719
O	 0.049765	 3.798021	 -0.755746

	symmetry c1
}
set optking {
	frozen_dihedral = ("
		4 3 2 1
	")
}

ee,wfn = optimize('scf', return_wfn=True)
oeprop( wfn, 'DIPOLE', 'QUADRUPOLE', 'MULLIKEN_CHARGES')
f=open( 'psi4out.xyz', 'w' )
f.write( "15  " )
f.write( str(ee) + "\n" )
f.write( MOL.save_string_xyz() )
f.close()
--------------------------------------------------------------------------

  Memory set to   2.000 GiB by Python script.
gradient() will perform analytic gradient computation.

*** tstart() called on cx1-27-4-1
*** at Sat Sep 10 17:25:38 2016


         ---------------------------------------------------------
                                   SCF
            by Justin Turney, Rob Parrish, and Andy Simmonett
                              RHF Reference
                        4 Threads,   2000 MiB Core
         ---------------------------------------------------------

  ==> Geometry <==

    Molecular point group: c1
    Full point group: C1

    Geometry (in Angstrom), charge = 0, multiplicity = 1:

       Center              X                  Y                   Z               Mass       
    ------------   -----------------  -----------------  -----------------  -----------------
           H          1.425383757664    -3.407925529048     0.278457152532     1.007825032070
           O          1.740370757664    -2.521638529048     0.278457152532    15.994914619560
           C          0.726186757664    -1.638455529048     0.278457152532    12.000000000000
           C         -0.516229242336    -2.090408529048     0.699481152532    12.000000000000
           C          0.885129757664    -0.328124529048    -0.119196847468    12.000000000000
           H         -0.617826242336    -3.113060529048     1.004465152532     1.007825032070
           C         -1.591005242336    -1.231477529048     0.720621152532    12.000000000000
           H          1.831691757664     0.047229470952    -0.448478847468     1.007825032070
           C         -0.214978242336     0.505763470952    -0.085127847468    12.000000000000
           H         -2.547372242336    -1.589596529048     1.047516152532     1.007825032070
           C         -1.456239242336     0.089127470952     0.325926152532    12.000000000000
           N         -0.038460242336     1.899079470952    -0.509759847468    14.003074004780
           H         -2.281404242336     0.767141470952     0.337061152532     1.007825032070
           O          1.044464757664     2.232990470952    -0.860261847468    15.994914619560
           O         -0.987336242336     2.607088470952    -0.477288847468    15.994914619560

  Running in c1 symmetry.

  Rotational constants: A =      0.09604  B =      0.03312  C =      0.02463 [cm^-1]
  Rotational constants: A =   2879.32343  B =    992.84013  C =    738.45894 [MHz]
  Nuclear repulsion =  504.484354589252632

  Charge       = 0
  Multiplicity = 1
  Electrons    = 72
  Nalpha       = 36
  Nbeta        = 36

  ==> Algorithm <==

  SCF Algorithm Type is DF.
  DIIS enabled.
  MOM disabled.
  Fractional occupation disabled.
  Guess Type is SAD.
  Energy threshold   = 1.00e-08
  Density threshold  = 1.00e-08
  Integral threshold = 0.00e+00

  ==> Primary Basis <==

  Basis Set: CC-PVTZ
    Number of shells: 130
    Number of basis function: 370
    Number of Cartesian functions: 425
    Spherical Harmonics?: true
    Max angular momentum: 3

  ==> Pre-Iterations <==

   -------------------------------------------------------
    Irrep   Nso     Nmo     Nalpha   Nbeta   Ndocc  Nsocc
   -------------------------------------------------------
     A        370     370       0       0       0       0
   -------------------------------------------------------
    Total     370     370      36      36      36       0
   -------------------------------------------------------

  ==> Integral Setup <==

  ==> DFJK: Density-Fitted J/K Matrices <==

    J tasked:                  Yes
    K tasked:                  Yes
    wK tasked:                  No
    OpenMP threads:              4
    Integrals threads:           4
    Memory (MB):              1430
    Algorithm:                Core
    Integral Cache:           NONE
    Schwarz Cutoff:          1E-12
    Fitting Condition:       1E-12

   => Auxiliary Basis Set <=

  Basis Set: 
    Number of shells: 300
    Number of basis function: 940
    Number of Cartesian functions: 1135
    Spherical Harmonics?: true
    Max angular momentum: 4

  Minimum eigenvalue in the overlap matrix is 3.7918660250E-05.
  Using Symmetric Orthogonalization.
  SCF Guess: Superposition of Atomic Densities via on-the-fly atomic UHF.

  ==> Iterations <==

                           Total Energy        Delta E     RMS |[F,P]|

   @DF-RHF iter   0:  -515.56294745485434   -5.15563e+02   1.71974e-02 
   @DF-RHF iter   1:  -508.85865249949308    6.70429e+00   2.04289e-03 
   @DF-RHF iter   2:  -509.09185000629901   -2.33198e-01   1.48585e-03 DIIS
   @DF-RHF iter   3:  -509.19871828390950   -1.06868e-01   2.89592e-04 DIIS
   @DF-RHF iter   4:  -509.21247334834612   -1.37551e-02   1.18930e-04 DIIS
   @DF-RHF iter   5:  -509.21484615350931   -2.37281e-03   5.73682e-05 DIIS
   @DF-RHF iter   6:  -509.21546287056657   -6.16717e-04   2.15131e-05 DIIS
   @DF-RHF iter   7:  -509.21558938899688   -1.26518e-04   9.80750e-06 DIIS
   @DF-RHF iter   8:  -509.21561806284859   -2.86739e-05   4.79794e-06 DIIS
   @DF-RHF iter   9:  -509.21562650015443   -8.43731e-06   1.82308e-06 DIIS
   @DF-RHF iter  10:  -509.21562749499986   -9.94845e-07   8.01710e-07 DIIS
   @DF-RHF iter  11:  -509.21562759104592   -9.60461e-08   3.25042e-07 DIIS
   @DF-RHF iter  12:  -509.21562760797877   -1.69329e-08   1.06223e-07 DIIS
   @DF-RHF iter  13:  -509.21562761013450   -2.15573e-09   3.86187e-08 DIIS
   @DF-RHF iter  14:  -509.21562761042361   -2.89106e-10   1.77725e-08 DIIS
   @DF-RHF iter  15:  -509.21562761049751   -7.38964e-11   9.01067e-09 DIIS

  ==> Post-Iterations <==

    Orbital Energies (a.u.)
    -----------------------

    Doubly Occupied:                                                      

       1A    -20.605429     2A    -20.593398     3A    -20.592760  
       4A    -15.849094     5A    -11.327461     6A    -11.308580  
       7A    -11.264926     8A    -11.260773     9A    -11.260400  
      10A    -11.259129    11A     -1.642637    12A     -1.439767  
      13A     -1.424956    14A     -1.202525    15A     -1.095087  
      16A     -1.049257    17A     -0.965695    18A     -0.867909  
      19A     -0.849495    20A     -0.800814    21A     -0.741945  
      22A     -0.738643    23A     -0.724920    24A     -0.713887  
      25A     -0.684892    26A     -0.638221    27A     -0.625201  
      28A     -0.592331    29A     -0.570526    30A     -0.533950  
      31A     -0.519662    32A     -0.493237    33A     -0.492655  
      34A     -0.458207    35A     -0.381549    36A     -0.347161  

    Virtual:                                                              

      37A      0.052799    38A      0.115010    39A      0.122465  
      40A      0.145385    41A      0.171882    42A      0.181999  
      43A      0.192883    44A      0.215738    45A      0.288052  
      46A      0.319466    47A      0.330493    48A      0.338086  
      49A      0.361547    50A      0.395961    51A      0.408710  
      52A      0.430909    53A      0.440057    54A      0.447757  
      55A      0.453411    56A      0.459674    57A      0.469480  
      58A      0.501160    59A      0.509446    60A      0.531788  
      61A      0.540233    62A      0.542319    63A      0.550808  
      64A      0.556798    65A      0.570695    66A      0.584328  
      67A      0.587476    68A      0.593939    69A      0.601022  
      70A      0.618440    71A      0.648074    72A      0.654308  
      73A      0.663277    74A      0.679375    75A      0.684713  
      76A      0.698686    77A      0.707253    78A      0.729368  
      79A      0.752864    80A      0.756880    81A      0.766136  
      82A      0.795260    83A      0.825987    84A      0.836758  
      85A      0.838962    86A      0.861969    87A      0.869388  
      88A      0.872442    89A      0.890559    90A      0.898439  
      91A      0.910788    92A      0.938830    93A      0.946137  
      94A      0.952176    95A      0.958691    96A      0.979035  
      97A      0.997437    98A      1.003552    99A      1.022459  
     100A      1.030069   101A      1.048234   102A      1.066583  
     103A      1.076459   104A      1.085202   105A      1.131715  
     106A      1.159697   107A      1.161693   108A      1.174882  
     109A      1.203556   110A      1.208606   111A      1.243267  
     112A      1.246338   113A      1.280359   114A      1.299399  
     115A      1.334297   116A      1.340966   117A      1.354875  
     118A      1.374940   119A      1.395915   120A      1.446589  
     121A      1.462014   122A      1.470828   123A      1.494325  
     124A      1.508711   125A      1.529026   126A      1.544330  
     127A      1.547469   128A      1.567537   129A      1.572980  
     130A      1.603164   131A      1.616032   132A      1.646670  
     133A      1.657278   134A      1.667940   135A      1.702945  
     136A      1.723293   137A      1.730185   138A      1.753840  
     139A      1.803757   140A      1.806728   141A      1.820444  
     142A      1.904349   143A      1.911819   144A      1.960468  
     145A      1.971318   146A      2.014468   147A      2.047587  
     148A      2.066828   149A      2.113667   150A      2.145597  
     151A      2.162490   152A      2.179898   153A      2.200349  
     154A      2.217742   155A      2.271481   156A      2.301104  
     157A      2.324294   158A      2.342773   159A      2.354710  
     160A      2.403725   161A      2.419396   162A      2.435381  
     163A      2.473775   164A      2.493998   165A      2.512156  
     166A      2.526921   167A      2.547429   168A      2.564493  
     169A      2.580296   170A      2.595440   171A      2.652745  
     172A      2.675687   173A      2.686805   174A      2.695253  
     175A      2.722896   176A      2.742039   177A      2.788392  
     178A      2.815636   179A      2.826892   180A      2.841477  
     181A      2.843117   182A      2.891481   183A      2.925789  
     184A      2.944941   185A      2.953115   186A      2.990955  
     187A      3.017671   188A      3.043488   189A      3.053100  
     190A      3.053960   191A      3.064405   192A      3.076721  
     193A      3.109406   194A      3.123115   195A      3.136802  
     196A      3.158543   197A      3.183300   198A      3.201509  
     199A      3.220073   200A      3.226499   201A      3.240460  
     202A      3.300529   203A      3.308876   204A      3.327880  
     205A      3.335752   206A      3.345659   207A      3.360211  
     208A      3.373029   209A      3.387043   210A      3.391948  
     211A      3.394174   212A      3.407134   213A      3.416281  
     214A      3.443676   215A      3.453224   216A      3.461129  
     217A      3.469514   218A      3.482839   219A      3.561288  
     220A      3.578127   221A      3.599226   222A      3.620243  
     223A      3.632701   224A      3.652909   225A      3.658479  
     226A      3.664196   227A      3.676269   228A      3.710324  
     229A      3.716145   230A      3.729026   231A      3.740571  
     232A      3.766635   233A      3.803855   234A      3.855571  
     235A      3.880257   236A      3.918797   237A      3.956435  
     238A      3.968918   239A      3.990971   240A      4.000821  
     241A      4.019478   242A      4.042338   243A      4.086310  
     244A      4.098777   245A      4.124016   246A      4.130585  
     247A      4.138581   248A      4.139125   249A      4.155868  
     250A      4.166700   251A      4.175761   252A      4.180395  
     253A      4.183964   254A      4.201971   255A      4.232050  
     256A      4.250009   257A      4.294766   258A      4.299829  
     259A      4.314029   260A      4.315380   261A      4.377337  
     262A      4.385212   263A      4.409974   264A      4.437868  
     265A      4.441932   266A      4.462116   267A      4.465962  
     268A      4.522061   269A      4.534261   270A      4.552660  
     271A      4.575580   272A      4.578586   273A      4.595921  
     274A      4.621404   275A      4.642176   276A      4.650338  
     277A      4.660794   278A      4.688753   279A      4.696496  
     280A      4.717400   281A      4.723222   282A      4.730302  
     283A      4.746807   284A      4.780488   285A      4.849180  
     286A      4.890817   287A      4.907715   288A      4.994223  
     289A      5.019154   290A      5.028147   291A      5.037807  
     292A      5.058007   293A      5.067401   294A      5.083406  
     295A      5.095726   296A      5.142981   297A      5.150622  
     298A      5.166442   299A      5.193821   300A      5.245455  
     301A      5.259366   302A      5.272374   303A      5.313252  
     304A      5.335224   305A      5.383387   306A      5.386535  
     307A      5.427444   308A      5.492976   309A      5.512134  
     310A      5.530547   311A      5.547684   312A      5.575054  
     313A      5.595318   314A      5.624322   315A      5.683492  
     316A      5.689130   317A      5.725985   318A      5.794509  
     319A      5.817956   320A      5.826706   321A      5.884082  
     322A      5.910556   323A      6.012612   324A      6.070791  
     325A      6.119798   326A      6.121232   327A      6.165131  
     328A      6.253451   329A      6.306789   330A      6.365573  
     331A      6.442351   332A      6.464996   333A      6.538554  
     334A      6.650745   335A      6.657963   336A      6.780659  
     337A      6.828128   338A      6.942373   339A      6.967148  
     340A      6.970038   341A      6.990621   342A      7.038295  
     343A      7.058237   344A      7.076817   345A      7.117852  
     346A      7.158787   347A      7.242038   348A      7.263199  
     349A      7.328462   350A      7.386807   351A      7.399868  
     352A      7.424529   353A      7.538528   354A      7.615488  
     355A      7.654818   356A      7.730690   357A      7.816869  
     358A      7.840029   359A      8.033323   360A      8.247746  
     361A      9.207450   362A     10.207480   363A     12.819876  
     364A     13.258103   365A     13.412661   366A     13.801176  
     367A     14.030984   368A     15.006603   369A     15.319055  
     370A     16.470150  

    Final Occupation by Irrep:
              A 
    DOCC [    36 ]

  Energy converged.

  @DF-RHF Final Energy:  -509.21562761049751

   => Energetics <=

    Nuclear Repulsion Energy =            504.4843545892526322
    One-Electron Energy =               -1695.5657998616425175
    Two-Electron Energy =                 681.8658176618921516
    DFT Exchange-Correlation Energy =       0.0000000000000000
    Empirical Dispersion Energy =           0.0000000000000000
    PCM Polarization Energy =               0.0000000000000000
    EFP Energy =                            0.0000000000000000
    Total Energy =                       -509.2156276104976769


  Saving occupied orbitals to File 180.

*** tstop() called on cx1-27-4-1 at Sat Sep 10 17:25:51 2016
Module time:
	user time   =      45.68 seconds =       0.76 minutes
	system time =       1.15 seconds =       0.02 minutes
	total time  =         13 seconds =       0.22 minutes
Total time:
	user time   =      45.68 seconds =       0.76 minutes
	system time =       1.15 seconds =       0.02 minutes
	total time  =         13 seconds =       0.22 minutes


Properties will be evaluated at   0.000000,   0.000000,   0.000000 Bohr

Properties computed using the SCF density matrix

  Nuclear Dipole Moment: (a.u.)
     X:    -2.0439      Y:    -6.8344      Z:     2.0767

  Electronic Dipole Moment: (a.u.)
     X:     1.4224      Y:     4.6659      Z:    -1.5385

  Dipole Moment: (a.u.)
     X:    -0.6215      Y:    -2.1685      Z:     0.5382     Total:     2.3191

  Dipole Moment: (Debye)
     X:    -1.5797      Y:    -5.5117      Z:     1.3679     Total:     5.8945


*** tstart() called on cx1-27-4-1
*** at Sat Sep 10 17:25:51 2016


         ------------------------------------------------------------
                                   SCF GRAD                          
                          Rob Parrish, Justin Turney,                
                       Andy Simmonett, and Alex Sokolov              
         ------------------------------------------------------------

  ==> Geometry <==

    Molecular point group: c1
    Full point group: C1

    Geometry (in Angstrom), charge = 0, multiplicity = 1:

       Center              X                  Y                   Z               Mass       
    ------------   -----------------  -----------------  -----------------  -----------------
           H          1.425383757664    -3.407925529048     0.278457152532     1.007825032070
           O          1.740370757664    -2.521638529048     0.278457152532    15.994914619560
           C          0.726186757664    -1.638455529048     0.278457152532    12.000000000000
           C         -0.516229242336    -2.090408529048     0.699481152532    12.000000000000
           C          0.885129757664    -0.328124529048    -0.119196847468    12.000000000000
           H         -0.617826242336    -3.113060529048     1.004465152532     1.007825032070
           C         -1.591005242336    -1.231477529048     0.720621152532    12.000000000000
           H          1.831691757664     0.047229470952    -0.448478847468     1.007825032070
           C         -0.214978242336     0.505763470952    -0.085127847468    12.000000000000
           H         -2.547372242336    -1.589596529048     1.047516152532     1.007825032070
           C         -1.456239242336     0.089127470952     0.325926152532    12.000000000000
           N         -0.038460242336     1.899079470952    -0.509759847468    14.003074004780
           H         -2.281404242336     0.767141470952     0.337061152532     1.007825032070
           O          1.044464757664     2.232990470952    -0.860261847468    15.994914619560
           O         -0.987336242336     2.607088470952    -0.477288847468    15.994914619560

  Nuclear repulsion =  504.484354589252632

  ==> Basis Set <==

  Basis Set: CC-PVTZ
    Number of shells: 130
    Number of basis function: 370
    Number of Cartesian functions: 425
    Spherical Harmonics?: true
    Max angular momentum: 3

  ==> DFJKGrad: Density-Fitted SCF Gradients <==

    Gradient:                    1
    J tasked:                  Yes
    K tasked:                  Yes
    wK tasked:                  No
    OpenMP threads:              4
    Integrals threads:           4
    Memory (MB):              1430
    Schwarz Cutoff:          0E+00
    Fitting Condition:       1E-12

   => Auxiliary Basis Set <=

  Basis Set: 
    Number of shells: 300
    Number of basis function: 940
    Number of Cartesian functions: 1135
    Spherical Harmonics?: true
    Max angular momentum: 4


  -Total Gradient:
     Atom            X                  Y                   Z
    ------   -----------------  -----------------  -----------------
       1        0.000495438170    -0.002112200043    -0.001184403104
       2       -0.014341561883    -0.010188721606     0.006757911660
       3        0.012971097127     0.015000063762    -0.004761217293
       4        0.003370646395    -0.010498504165     0.002304692085
       5       -0.008540642403     0.000453505044     0.001113326576
       6        0.002335734813     0.000843102530    -0.001315020079
       7        0.003427576990     0.000040760229    -0.000318460308
       8        0.000354469738     0.002179092793    -0.000418108823
       9       -0.001682599886     0.002995210600    -0.001441229290
      10        0.000396168338    -0.000328309852    -0.000006037850
      11        0.001290374449     0.001627007028    -0.000786843281
      12       -0.002860532613    -0.000557836155     0.000843671188
      13        0.000134173522     0.000191863104    -0.000121461101
      14        0.001635430419     0.000330765608    -0.000471341554
      15        0.001014226820     0.000024201135    -0.000195478826


*** tstop() called on cx1-27-4-1 at Sat Sep 10 17:26:02 2016
Module time:
	user time   =      40.37 seconds =       0.67 minutes
	system time =       0.77 seconds =       0.01 minutes
	total time  =         11 seconds =       0.18 minutes
Total time:
	user time   =      86.16 seconds =       1.44 minutes
	system time =       1.92 seconds =       0.03 minutes
	total time  =         24 seconds =       0.40 minutes

			-----------------------------------------
			 OPTKING 2.0: for geometry optimizations 
			  - R.A. King,  Bethel University        
			-----------------------------------------

	Internal coordinates to be generated automatically.
	Detected frag 1 with atoms:  1 2 3 4 5 6 7 8 9 10 11 12 13 14 15
	---Fragment 1 Bond Connectivity---
	 1 : 2
	 2 : 1 3
	 3 : 2 4 5
	 4 : 3 6 7
	 5 : 3 8 9
	 6 : 4
	 7 : 4 10 11
	 8 : 5
	 9 : 5 11 12
	 10 : 7
	 11 : 7 9 13
	 12 : 9 14 15
	 13 : 11
	 14 : 12
	 15 : 12

	Assuming in current code that numbering for constraints corresponds to unified fragment.
	Frozen dihedral atom list: 
	     4     3     2     1
	---Fragment 1 Geometry and Gradient---
	 H           2.6935849362       -6.4400459312        0.5262077580
	 O           3.2888241017       -4.7652062260        0.5262077580
	 C           1.3722940933       -3.0962322308        0.5262077580
	 C          -0.9755318898       -3.9502996257        1.3218278134
	 C           1.6726528341       -0.6200654974       -0.2252493976
	 H          -1.1675223957       -5.8828318350        1.8981640483
	 C          -3.0065641840       -2.3271552687        1.3617766239
	 H           3.4613957818        0.0892507655       -0.8475021981
	 C          -0.4062500025        0.9557544481       -0.1608683180
	 H          -4.8138358965       -3.0039021017        1.9795186481
	 C          -2.7518933520        0.1684265110        0.6159111678
	 N          -0.0726793250        3.5887401047       -0.9633065053
	 H          -4.3112292164        1.4496872853        0.6369532683
	 O           1.9737523474        4.2197404474       -1.6256592943
	 O          -1.8657950991        4.9266832143       -0.9019452080
	             0.0004954382       -0.0021122000       -0.0011844031
	            -0.0143415619       -0.0101887216        0.0067579117
	             0.0129710971        0.0150000638       -0.0047612173
	             0.0033706464       -0.0104985042        0.0023046921
	            -0.0085406424        0.0004535050        0.0011133266
	             0.0023357348        0.0008431025       -0.0013150201
	             0.0034275770        0.0000407602       -0.0003184603
	             0.0003544697        0.0021790928       -0.0004181088
	            -0.0016825999        0.0029952106       -0.0014412293
	             0.0003961683       -0.0003283099       -0.0000060378
	             0.0012903744        0.0016270070       -0.0007868433
	            -0.0028605326       -0.0005578362        0.0008436712
	             0.0001341735        0.0001918631       -0.0001214611
	             0.0016354304        0.0003307656       -0.0004713416
	             0.0010142268        0.0000242011       -0.0001954788

	Previous optimization step data not found.  Starting new optimization.

	---Fragment 1 Intrafragment Coordinates---
	 - Coordinate -           - BOHR/RAD -       - ANG/DEG -
	 R(1,2)           =         1.777469	       0.940596
	 R(2,3)           =         2.541370	       1.344835
	 R(3,4)           =         2.621970	       1.387487
	 R(3,5)           =         2.605054	       1.378535
	 R(4,6)           =         2.025760	       1.071986
	 R(4,7)           =         2.600247	       1.375992
	 R(5,8)           =         2.022357	       1.070185
	 R(5,9)           =         2.609443	       1.380858
	 R(7,10)          =         2.026283	       1.072263
	 R(7,11)          =         2.617079	       1.384898
	 R(9,11)          =         2.593321	       1.372326
	 R(9,12)          =         2.772686	       1.467242
	 R(11,13)         =         2.018316	       1.068047
	 R(12,14)         =         2.241597	       1.186202
	 R(12,15)         =         2.238107	       1.184355
	 B(1,2,3)         =         1.945782	     111.485115
	 B(2,3,4)         =         2.050330	     117.475267
	 B(2,3,5)         =         2.138005	     122.498667
	 B(3,4,6)         =         2.073664	     118.812200
	 B(3,4,7)         =         2.095265	     120.049833
	 B(3,5,8)         =         2.122478	     121.609006
	 B(3,5,9)         =         2.065806	     118.361947
	 B(4,3,5)         =         2.094850	     120.026066
	 B(4,7,10)        =         2.086181	     119.529343
	 B(4,7,11)        =         2.111641	     120.988092
	 B(5,9,11)        =         2.146764	     123.000489
	 B(5,9,12)        =         2.060629	     118.065348
	 B(6,4,7)         =         2.114256	     121.137967
	 B(7,11,9)        =         2.052046	     117.573573
	 B(7,11,13)       =         2.126089	     121.815954
	 B(8,5,9)         =         2.094902	     120.029048
	 B(9,11,13)       =         2.105050	     120.610472
	 B(9,12,14)       =         2.051789	     117.558851
	 B(9,12,15)       =         2.052580	     117.604174
	 B(10,7,11)       =         2.085364	     119.482564
	 B(11,9,12)       =         2.075793	     118.934164
	 B(14,12,15)      =         2.178816	     124.836975
	*D(1,2,3,4)       =         0.349066	      19.999989
	 D(1,2,3,5)       =        -2.792527	    -159.999989
	 D(2,3,4,6)       =         0.000000	       0.000000
	 D(2,3,4,7)       =         3.141593	     180.000000
	 D(2,3,5,8)       =        -0.000000	      -0.000000
	 D(2,3,5,9)       =         3.141593	     180.000000
	 D(3,4,7,10)      =         3.141593	     180.000000
	 D(3,4,7,11)      =         0.000000	       0.000000
	 D(3,5,9,11)      =        -0.000000	      -0.000000
	 D(3,5,9,12)      =         3.141593	     180.000000
	 D(4,3,5,8)       =         3.141593	     180.000000
	 D(4,3,5,9)       =         0.000000	       0.000000
	 D(4,7,11,9)      =        -0.000000	      -0.000000
	 D(4,7,11,13)     =         3.141593	     180.000000
	 D(5,3,4,6)       =         3.141593	     180.000000
	 D(5,3,4,7)       =        -0.000000	      -0.000000
	 D(5,9,11,7)      =         0.000000	       0.000000
	 D(5,9,11,13)     =         3.141593	     180.000000
	 D(5,9,12,14)     =         0.000000	       0.000000
	 D(5,9,12,15)     =         3.141593	     180.000000
	 D(6,4,7,10)      =        -0.000000	      -0.000000
	 D(6,4,7,11)      =         3.141593	     180.000000
	 D(7,11,9,12)     =         3.141593	     180.000000
	 D(8,5,9,11)      =         3.141593	     180.000000
	 D(8,5,9,12)      =        -0.000000	      -0.000000
	 D(9,11,7,10)     =         3.141593	     180.000000
	 D(10,7,11,13)    =         0.000000	       0.000000
	 D(11,9,12,14)    =         3.141593	     180.000000
	 D(11,9,12,15)    =        -0.000000	      -0.000000
	 D(12,9,11,13)    =        -0.000000	      -0.000000

	Current energy   :      -509.2156276105

	Generating empirical Hessian (Schlegel '84) for each fragment.
	Taking RFO optimization step.
	Going to follow RFO solution 1.
	Using RFO vector 1.
	Norm of target step-size    0.15611
	Projected energy change by RFO approximation:        -0.0052309990

	Back-transformation to cartesian coordinates...
	Could not converge backtransformation.
	Using first guess instead.

	Back-transformation to cartesian coordinates to adjust frozen coordinates...
	Successfully converged to displaced geometry.

	--- Internal Coordinate Step in ANG or DEG, aJ/ANG or AJ/DEG ---
	 ---------------------------------------------------------------------------
	   Coordinate                Previous        Force       Change         New 
	   ----------                --------       ------       ------       ------
	    1 R(1,2)          =      0.940596    -0.015030     0.000669     0.941265
	    2 R(2,3)          =      1.344835     0.019472     0.006606     1.351441
	    3 R(3,4)          =      1.387487     0.042938     0.005990     1.393477
	    4 R(3,5)          =      1.378535    -0.030649    -0.003899     1.374636
	    5 R(4,6)          =      1.071986     0.011533     0.002380     1.074366
	    6 R(4,7)          =      1.375992     0.005743     0.000838     1.376829
	    7 R(5,8)          =      1.070185    -0.009940    -0.001497     1.068688
	    8 R(5,9)          =      1.380858    -0.005555    -0.000727     1.380131
	    9 R(7,10)         =      1.072263     0.002023     0.000452     1.072715
	   10 R(7,11)         =      1.384898    -0.021572    -0.002657     1.382242
	   11 R(9,11)         =      1.372326     0.017013     0.002220     1.374546
	   12 R(9,12)         =      1.467242     0.002218     0.000444     1.467686
	   13 R(11,13)        =      1.068047    -0.000139     0.000087     1.068134
	   14 R(12,14)        =      1.186202    -0.014215    -0.000792     1.185410
	   15 R(12,15)        =      1.184355     0.006620     0.000380     1.184735
	   16 B(1,2,3)        =    111.485115    -0.000159    -0.720925   110.764190
	   17 B(2,3,4)        =    117.475267     0.001816     5.323358   122.798625
	   18 B(2,3,5)        =    122.498667    -0.001721    -5.086834   117.411833
	   19 B(3,4,6)        =    118.812200     0.000102     0.552156   119.364356
	   20 B(3,4,7)        =    120.049833     0.000163     0.581743   120.631576
	   21 B(3,5,8)        =    121.609006    -0.000110    -0.532599   121.076406
	   22 B(3,5,9)        =    118.361947    -0.000069    -0.257902   118.104045
	   23 B(4,3,5)        =    120.026066    -0.000095    -0.272111   119.753955
	   24 B(4,7,10)       =    119.529343     0.000124     0.440357   119.969701
	   25 B(4,7,11)       =    120.988092    -0.000179    -0.564594   120.423499
	   26 B(5,9,11)       =    123.000489     0.000174     0.484290   123.484778
	   27 B(5,9,12)       =    118.065348    -0.000038    -0.098774   117.966574
	   28 B(6,4,7)        =    121.137967    -0.000265    -1.134498   120.003469
	   29 B(7,11,9)       =    117.573573     0.000006     0.021694   117.595267
	   30 B(7,11,13)      =    121.815954    -0.000023    -0.102043   121.713911
	   31 B(8,5,9)        =    120.029048     0.000179     0.790086   120.819134
	   32 B(9,11,13)      =    120.610472     0.000017     0.079867   120.690339
	   33 B(9,12,14)      =    117.558851     0.000056     0.163848   117.722700
	   34 B(9,12,15)      =    117.604174    -0.000083    -0.245841   117.358333
	   35 B(10,7,11)      =    119.482564     0.000054     0.121308   119.603873
	   36 B(11,9,12)      =    118.934164    -0.000136    -0.386580   118.547584
	   37 B(14,12,15)     =    124.836975     0.000027     0.080230   124.917205
	   38 *D(1,2,3,4)     =     19.999989    -0.000000     0.000000    19.999989
	   39 D(1,2,3,5)      =   -159.999989    -0.000015    -2.178146  -162.178135
	   40 D(2,3,4,6)      =      0.000000    -0.000006    -1.032158    -1.032158
	   41 D(2,3,4,7)      =    180.000000    -0.000009    -1.313696   178.686304
	   42 D(2,3,5,8)      =      0.000000     0.000012     1.540961     1.540961
	   43 D(2,3,5,9)      =    180.000000     0.000014     1.773472   181.773472
	   44 D(3,4,7,10)     =    180.000000    -0.000001    -0.188631   179.811369
	   45 D(3,4,7,11)     =      0.000000    -0.000006    -0.813542    -0.813542
	   46 D(3,5,9,11)     =      0.000000    -0.000003    -0.352166    -0.352166
	   47 D(3,5,9,12)     =    180.000000    -0.000000     0.029134   180.029134
	   48 D(4,3,5,8)      =    180.000000    -0.000004    -0.567924   179.432076
	   49 D(4,3,5,9)      =      0.000000    -0.000002    -0.335413    -0.335413
	   50 D(4,7,11,9)     =      0.000000     0.000001     0.138562     0.138562
	   51 D(4,7,11,13)    =    180.000000     0.000003     0.389640   180.389640
	   52 D(5,3,4,6)      =    180.000000     0.000009     1.195053   181.195053
	   53 D(5,3,4,7)      =      0.000000     0.000006     0.913516     0.913516
	   54 D(5,9,11,7)     =      0.000000     0.000003     0.452934     0.452934
	   55 D(5,9,11,13)    =    180.000000     0.000001     0.204557   180.204557
	   56 D(5,9,12,14)    =      0.000000    -0.000001    -0.104048    -0.104048
	   57 D(5,9,12,15)    =    180.000000    -0.000002    -0.563092   179.436908
	   58 D(6,4,7,10)     =      0.000000    -0.000004    -0.471964    -0.471964
	   59 D(6,4,7,11)     =    180.000000    -0.000009    -1.096875   178.903125
	   60 D(7,11,9,12)    =    180.000000     0.000001     0.069549   180.069549
	   61 D(8,5,9,11)     =    180.000000    -0.000001    -0.120280   179.879720
	   62 D(8,5,9,12)     =      0.000000     0.000001     0.261020     0.261020
	   63 D(9,11,7,10)    =    180.000000    -0.000003    -0.484069   179.515931
	   64 D(10,7,11,13)   =      0.000000    -0.000002    -0.232991    -0.232991
	   65 D(11,9,12,14)   =    180.000000     0.000001     0.257985   180.257985
	   66 D(11,9,12,15)   =      0.000000     0.000000    -0.201060    -0.201060
	   67 D(12,9,11,13)   =      0.000000    -0.000001    -0.178827    -0.178827
	 ---------------------------------------------------------------------------
	Successfully symmetrized geometry.

  ==> Convergence Check <==

  Measures of convergence in internal coordinates in au.
  Criteria marked as inactive (o), active & met (*), and active & unmet ( ).
  --------------------------------------------------------------------------------------------- ~
   Step     Total Energy     Delta E     MAX Force     RMS Force      MAX Disp      RMS Disp    ~
  --------------------------------------------------------------------------------------------- ~
    Convergence Criteria    1.00e-06 *    3.00e-04 *             o    1.20e-03 *             o  ~
  --------------------------------------------------------------------------------------------- ~
      1    -509.21562761   -5.09e+02      2.39e-02      4.24e-03 o    9.29e-02      1.90e-02 o  ~
  ---------------------------------------------------------------------------------------------

	Writing optimization data to binary file.
	Structure for next step:
	Cartesian Geometry (in Angstrom)
	    H     1.5354776296  -3.3672247950   0.2686209054
	    O     1.7899915428  -2.4611600266   0.2528326218
	    C     0.7032535564  -1.6579192098   0.2669298216
	    C    -0.5490369598  -2.0897942444   0.6994016972
	    C     0.8765031992  -0.3518626126  -0.1252743167
	    H    -0.6728350883  -3.1068233172   1.0228040627
	    C    -1.6205340513  -1.2254339525   0.7202517903
	    H     1.8296804169   0.0041654302  -0.4520646720
	    C    -0.2157191469   0.4906545315  -0.0808158941
	    H    -2.5805906169  -1.5699958681   1.0523452702
	    C    -1.4658148614   0.0907781146   0.3275173752
	    N    -0.0274993399   1.8842993274  -0.5008519977
	    H    -2.2813455530   0.7804356292   0.3413588213
	    O     1.0553454434   2.2121776935  -0.8546030211
	    O    -0.9744998059   2.5954363640  -0.4681241760
			--------------------------
			 OPTKING Finished Execution 
			--------------------------

    Structure for next step:
    Molecular point group: c1
    Full point group: C1

    Geometry (in Angstrom), charge = 0, multiplicity = 1:

    H            1.534786857020    -3.364909690042     0.269913288721
    O            1.789300770185    -2.458844921639     0.254125005171
    C            0.702562783824    -1.655604104864     0.268222204920
    C           -0.549727732391    -2.087479139457     0.700694080502
    C            0.875812426594    -0.349547507686    -0.123981933396
    H           -0.673525860907    -3.104508212289     1.024096446003
    C           -1.621224823912    -1.223118847598     0.721544173619
    H            1.828989644232     0.006480535134    -0.450772288694
    C           -0.216409919498     0.492969636444    -0.079523510786
    H           -2.581281389543    -1.567680763196     1.053637653536
    C           -1.466505634059     0.093093219498     0.328809758553
    N           -0.028190112480     1.886614432368    -0.499559614378
    H           -2.282036325659     0.782750734126     0.342651204647
    O            1.054654670772     2.214492798437    -0.853310637795
    O           -0.975190578505     2.597751468897    -0.466831792660

gradient() will perform analytic gradient computation.

*** tstart() called on cx1-27-4-1
*** at Sat Sep 10 17:26:03 2016


         ---------------------------------------------------------
                                   SCF
            by Justin Turney, Rob Parrish, and Andy Simmonett
                              RHF Reference
                        4 Threads,   2000 MiB Core
         ---------------------------------------------------------

  ==> Geometry <==

    Molecular point group: c1
    Full point group: C1

    Geometry (in Angstrom), charge = 0, multiplicity = 1:

       Center              X                  Y                   Z               Mass       
    ------------   -----------------  -----------------  -----------------  -----------------
           H          1.534786857020    -3.364909690042     0.269913288721     1.007825032070
           O          1.789300770185    -2.458844921639     0.254125005171    15.994914619560
           C          0.702562783824    -1.655604104864     0.268222204920    12.000000000000
           C         -0.549727732391    -2.087479139457     0.700694080502    12.000000000000
           C          0.875812426594    -0.349547507686    -0.123981933396    12.000000000000
           H         -0.673525860907    -3.104508212289     1.024096446003     1.007825032070
           C         -1.621224823912    -1.223118847598     0.721544173619    12.000000000000
           H          1.828989644232     0.006480535134    -0.450772288694     1.007825032070
           C         -0.216409919498     0.492969636444    -0.079523510786    12.000000000000
           H         -2.581281389543    -1.567680763196     1.053637653536     1.007825032070
           C         -1.466505634059     0.093093219498     0.328809758553    12.000000000000
           N         -0.028190112480     1.886614432368    -0.499559614378    14.003074004780
           H         -2.282036325659     0.782750734126     0.342651204647     1.007825032070
           O          1.054654670772     2.214492798437    -0.853310637795    15.994914619560
           O         -0.975190578505     2.597751468897    -0.466831792660    15.994914619560

  Running in c1 symmetry.

  Rotational constants: A =      0.09326  B =      0.03372  C =      0.02477 [cm^-1]
  Rotational constants: A =   2795.84229  B =   1010.91706  C =    742.61953 [MHz]
  Nuclear repulsion =  504.522005301462116

  Charge       = 0
  Multiplicity = 1
  Electrons    = 72
  Nalpha       = 36
  Nbeta        = 36

  ==> Algorithm <==

  SCF Algorithm Type is DF.
  DIIS enabled.
  MOM disabled.
  Fractional occupation disabled.
  Guess Type is READ.
  Energy threshold   = 1.00e-08
  Density threshold  = 1.00e-08
  Integral threshold = 0.00e+00

  ==> Primary Basis <==

  Basis Set: CC-PVTZ
    Number of shells: 130
    Number of basis function: 370
    Number of Cartesian functions: 425
    Spherical Harmonics?: true
    Max angular momentum: 3

  ==> Pre-Iterations <==

   -------------------------------------------------------
    Irrep   Nso     Nmo     Nalpha   Nbeta   Ndocc  Nsocc
   -------------------------------------------------------
     A        370     370       0       0       0       0
   -------------------------------------------------------
    Total     370     370      36      36      36       0
   -------------------------------------------------------

  ==> Integral Setup <==

  ==> DFJK: Density-Fitted J/K Matrices <==

    J tasked:                  Yes
    K tasked:                  Yes
    wK tasked:                  No
    OpenMP threads:              4
    Integrals threads:           4
    Memory (MB):              1430
    Algorithm:                Core
    Integral Cache:           NONE
    Schwarz Cutoff:          1E-12
    Fitting Condition:       1E-12

   => Auxiliary Basis Set <=

  Basis Set: 
    Number of shells: 300
    Number of basis function: 940
    Number of Cartesian functions: 1135
    Spherical Harmonics?: true
    Max angular momentum: 4

  Minimum eigenvalue in the overlap matrix is 3.7613770118E-05.
  Using Symmetric Orthogonalization.
  SCF Guess: Reading in previously saved MOs, projecting if necessary.

  Using orbitals from previous SCF, no projection.
  Recomputing DOCC and SOCC from number of alpha and beta electrons from previous calculation.
              A 
    DOCC [    36 ]

  ==> Iterations <==

                           Total Energy        Delta E     RMS |[F,P]|

   @DF-RHF iter   0:  -509.19978092323817   -5.09200e+02   3.45567e-04 
   @DF-RHF iter   1:  -509.21724866072094   -1.74677e-02   6.11053e-05 
   @DF-RHF iter   2:  -509.21757554561822   -3.26885e-04   2.89231e-05 DIIS
   @DF-RHF iter   3:  -509.21763171090623   -5.61653e-05   1.29011e-05 DIIS
   @DF-RHF iter   4:  -509.21764789448088   -1.61836e-05   2.32332e-06 DIIS
   @DF-RHF iter   5:  -509.21764870735677   -8.12876e-07   1.18218e-06 DIIS
   @DF-RHF iter   6:  -509.21764893374137   -2.26385e-07   5.47917e-07 DIIS
   @DF-RHF iter   7:  -509.21764901586340   -8.21220e-08   2.43049e-07 DIIS
   @DF-RHF iter   8:  -509.21764903636000   -2.04966e-08   1.14424e-07 DIIS
   @DF-RHF iter   9:  -509.21764904145442   -5.09442e-09   4.71350e-08 DIIS
   @DF-RHF iter  10:  -509.21764904207652   -6.22094e-10   1.94969e-08 DIIS
   @DF-RHF iter  11:  -509.21764904214814   -7.16227e-11   5.42965e-09 DIIS

  ==> Post-Iterations <==

    Orbital Energies (a.u.)
    -----------------------

    Doubly Occupied:                                                      

       1A    -20.607414     2A    -20.592119     3A    -20.591972  
       4A    -15.847746     5A    -11.327331     6A    -11.307284  
       7A    -11.265183     8A    -11.263037     9A    -11.258657  
      10A    -11.258361    11A     -1.641743    12A     -1.437441  
      13A     -1.424255    14A     -1.202105    15A     -1.094131  
      16A     -1.050465    17A     -0.964139    18A     -0.865695  
      19A     -0.849603    20A     -0.799938    21A     -0.741027  
      22A     -0.737900    23A     -0.721658    24A     -0.712018  
      25A     -0.681448    26A     -0.638998    27A     -0.624908  
      28A     -0.593541    29A     -0.566579    30A     -0.539235  
      31A     -0.519801    32A     -0.492105    33A     -0.491577  
      34A     -0.457450    35A     -0.381090    36A     -0.347328  

    Virtual:                                                              

      37A      0.054058    38A      0.114238    39A      0.123330  
      40A      0.144288    41A      0.173021    42A      0.181868  
      43A      0.192145    44A      0.214957    45A      0.288747  
      46A      0.321449    47A      0.332327    48A      0.337532  
      49A      0.361039    50A      0.397935    51A      0.408460  
      52A      0.432758    53A      0.438518    54A      0.447699  
      55A      0.452645    56A      0.459789    57A      0.467433  
      58A      0.500902    59A      0.504738    60A      0.533346  
      61A      0.539656    62A      0.542767    63A      0.552336  
      64A      0.563283    65A      0.572277    66A      0.584483  
      67A      0.587233    68A      0.593477    69A      0.600331  
      70A      0.615919    71A      0.650591    72A      0.652907  
      73A      0.662249    74A      0.673694    75A      0.685625  
      76A      0.698443    77A      0.711729    78A      0.734209  
      79A      0.752633    80A      0.757866    81A      0.765339  
      82A      0.792372    83A      0.827773    84A      0.836823  
      85A      0.838971    86A      0.861901    87A      0.869955  
      88A      0.873486    89A      0.887187    90A      0.896487  
      91A      0.910223    92A      0.940493    93A      0.945447  
      94A      0.953637    95A      0.955778    96A      0.977846  
      97A      0.994768    98A      1.005851    99A      1.020871  
     100A      1.031137   101A      1.046905   102A      1.067021  
     103A      1.075868   104A      1.091620   105A      1.140890  
     106A      1.159087   107A      1.162177   108A      1.173822  
     109A      1.201670   110A      1.215492   111A      1.244499  
     112A      1.251677   113A      1.269832   114A      1.298691  
     115A      1.334538   116A      1.341382   117A      1.351189  
     118A      1.369794   119A      1.392236   120A      1.447340  
     121A      1.464983   122A      1.474153   123A      1.490206  
     124A      1.503825   125A      1.529536   126A      1.544426  
     127A      1.553055   128A      1.563874   129A      1.572230  
     130A      1.604405   131A      1.616820   132A      1.648955  
     133A      1.655983   134A      1.665589   135A      1.705355  
     136A      1.724963   137A      1.729800   138A      1.756297  
     139A      1.804017   140A      1.809080   141A      1.824225  
     142A      1.889915   143A      1.911441   144A      1.959135  
     145A      1.972230   146A      2.008418   147A      2.047690  
     148A      2.065424   149A      2.115586   150A      2.146195  
     151A      2.165556   152A      2.187499   153A      2.196563  
     154A      2.215701   155A      2.288998   156A      2.301380  
     157A      2.319411   158A      2.333735   159A      2.353066  
     160A      2.392924   161A      2.424190   162A      2.433257  
     163A      2.473500   164A      2.494118   165A      2.514982  
     166A      2.527193   167A      2.546756   168A      2.568951  
     169A      2.585503   170A      2.600817   171A      2.661512  
     172A      2.675420   173A      2.688008   174A      2.694031  
     175A      2.718769   176A      2.741560   177A      2.788505  
     178A      2.807302   179A      2.827712   180A      2.839336  
     181A      2.846324   182A      2.884112   183A      2.920157  
     184A      2.941612   185A      2.953977   186A      2.990478  
     187A      3.013868   188A      3.044606   189A      3.050705  
     190A      3.056636   191A      3.065826   192A      3.075225  
     193A      3.097380   194A      3.126075   195A      3.138426  
     196A      3.152045   197A      3.185255   198A      3.200525  
     199A      3.214181   200A      3.227102   201A      3.234994  
     202A      3.305478   203A      3.311681   204A      3.330851  
     205A      3.336093   206A      3.347954   207A      3.358926  
     208A      3.370443   209A      3.385417   210A      3.388311  
     211A      3.401006   212A      3.406821   213A      3.423939  
     214A      3.442004   215A      3.449470   216A      3.459222  
     217A      3.470027   218A      3.488550   219A      3.558250  
     220A      3.580164   221A      3.601356   222A      3.623154  
     223A      3.632222   224A      3.653841   225A      3.659630  
     226A      3.663000   227A      3.674402   228A      3.712337  
     229A      3.718312   230A      3.732952   231A      3.741274  
     232A      3.757353   233A      3.802564   234A      3.850615  
     235A      3.878178   236A      3.927033   237A      3.950945  
     238A      3.960005   239A      3.976724   240A      3.999350  
     241A      4.021389   242A      4.056271   243A      4.087651  
     244A      4.098491   245A      4.122339   246A      4.128612  
     247A      4.139431   248A      4.140189   249A      4.157339  
     250A      4.162978   251A      4.174079   252A      4.180009  
     253A      4.188254   254A      4.200123   255A      4.220429  
     256A      4.243478   257A      4.283225   258A      4.297828  
     259A      4.307478   260A      4.322450   261A      4.373977  
     262A      4.376322   263A      4.415793   264A      4.439888  
     265A      4.448099   266A      4.464617   267A      4.467155  
     268A      4.509417   269A      4.525899   270A      4.553489  
     271A      4.576612   272A      4.584319   273A      4.590336  
     274A      4.617552   275A      4.640693   276A      4.648690  
     277A      4.660194   278A      4.680482   279A      4.693601  
     280A      4.704922   281A      4.712716   282A      4.738804  
     283A      4.746912   284A      4.788507   285A      4.838442  
     286A      4.889762   287A      4.906342   288A      4.991728  
     289A      5.016330   290A      5.031721   291A      5.041227  
     292A      5.060647   293A      5.066735   294A      5.083989  
     295A      5.091241   296A      5.141773   297A      5.151373  
     298A      5.158242   299A      5.206712   300A      5.222774  
     301A      5.257423   302A      5.276580   303A      5.317556  
     304A      5.337013   305A      5.364659   306A      5.388019  
     307A      5.421465   308A      5.494655   309A      5.513939  
     310A      5.527284   311A      5.549401   312A      5.575865  
     313A      5.595776   314A      5.625115   315A      5.674503  
     316A      5.689223   317A      5.724321   318A      5.786131  
     319A      5.817979   320A      5.827072   321A      5.881729  
     322A      5.905678   323A      6.006538   324A      6.072063  
     325A      6.103928   326A      6.124249   327A      6.165730  
     328A      6.251745   329A      6.300223   330A      6.360750  
     331A      6.437012   332A      6.466910   333A      6.536634  
     334A      6.631923   335A      6.650271   336A      6.781432  
     337A      6.829398   338A      6.943151   339A      6.966964  
     340A      6.971281   341A      6.979700   342A      7.036109  
     343A      7.079172   344A      7.090151   345A      7.138762  
     346A      7.165103   347A      7.246814   348A      7.266004  
     349A      7.307550   350A      7.372139   351A      7.401052  
     352A      7.426385   353A      7.538917   354A      7.584443  
     355A      7.654754   356A      7.730176   357A      7.802855  
     358A      7.823336   359A      8.024094   360A      8.249480  
     361A      9.174798   362A     10.205554   363A     12.836692  
     364A     13.183840   365A     13.404264   366A     13.780208  
     367A     14.049757   368A     15.011713   369A     15.324497  
     370A     16.462416  

    Final Occupation by Irrep:
              A 
    DOCC [    36 ]

  Energy converged.

  @DF-RHF Final Energy:  -509.21764904214814

   => Energetics <=

    Nuclear Repulsion Energy =            504.5220053014621158
    One-Electron Energy =               -1695.6887437505947673
    Two-Electron Energy =                 681.9490894069842852
    DFT Exchange-Correlation Energy =       0.0000000000000000
    Empirical Dispersion Energy =           0.0000000000000000
    PCM Polarization Energy =               0.0000000000000000
    EFP Energy =                            0.0000000000000000
    Total Energy =                       -509.2176490421484232


  Saving occupied orbitals to File 180.

*** tstop() called on cx1-27-4-1 at Sat Sep 10 17:26:13 2016
Module time:
	user time   =      35.55 seconds =       0.59 minutes
	system time =       0.81 seconds =       0.01 minutes
	total time  =         10 seconds =       0.17 minutes
Total time:
	user time   =     123.48 seconds =       2.06 minutes
	system time =       2.81 seconds =       0.05 minutes
	total time  =         35 seconds =       0.58 minutes


Properties will be evaluated at   0.000000,   0.000000,   0.000000 Bohr

Properties computed using the SCF density matrix

  Nuclear Dipole Moment: (a.u.)
     X:    -2.0281      Y:    -6.7888      Z:     2.0958

  Electronic Dipole Moment: (a.u.)
     X:     1.4267      Y:     4.5897      Z:    -1.5386

  Dipole Moment: (a.u.)
     X:    -0.6014      Y:    -2.1991      Z:     0.5572     Total:     2.3469

  Dipole Moment: (Debye)
     X:    -1.5287      Y:    -5.5895      Z:     1.4162     Total:     5.9653


*** tstart() called on cx1-27-4-1
*** at Sat Sep 10 17:26:13 2016


         ------------------------------------------------------------
                                   SCF GRAD                          
                          Rob Parrish, Justin Turney,                
                       Andy Simmonett, and Alex Sokolov              
         ------------------------------------------------------------

  ==> Geometry <==

    Molecular point group: c1
    Full point group: C1

    Geometry (in Angstrom), charge = 0, multiplicity = 1:

       Center              X                  Y                   Z               Mass       
    ------------   -----------------  -----------------  -----------------  -----------------
           H          1.534786857020    -3.364909690042     0.269913288721     1.007825032070
           O          1.789300770185    -2.458844921639     0.254125005171    15.994914619560
           C          0.702562783824    -1.655604104864     0.268222204920    12.000000000000
           C         -0.549727732391    -2.087479139457     0.700694080502    12.000000000000
           C          0.875812426594    -0.349547507686    -0.123981933396    12.000000000000
           H         -0.673525860907    -3.104508212289     1.024096446003     1.007825032070
           C         -1.621224823912    -1.223118847598     0.721544173619    12.000000000000
           H          1.828989644232     0.006480535134    -0.450772288694     1.007825032070
           C         -0.216409919498     0.492969636444    -0.079523510786    12.000000000000
           H         -2.581281389543    -1.567680763196     1.053637653536     1.007825032070
           C         -1.466505634059     0.093093219498     0.328809758553    12.000000000000
           N         -0.028190112480     1.886614432368    -0.499559614378    14.003074004780
           H         -2.282036325659     0.782750734126     0.342651204647     1.007825032070
           O          1.054654670772     2.214492798437    -0.853310637795    15.994914619560
           O         -0.975190578505     2.597751468897    -0.466831792660    15.994914619560

  Nuclear repulsion =  504.522005301462116

  ==> Basis Set <==

  Basis Set: CC-PVTZ
    Number of shells: 130
    Number of basis function: 370
    Number of Cartesian functions: 425
    Spherical Harmonics?: true
    Max angular momentum: 3

  ==> DFJKGrad: Density-Fitted SCF Gradients <==

    Gradient:                    1
    J tasked:                  Yes
    K tasked:                  Yes
    wK tasked:                  No
    OpenMP threads:              4
    Integrals threads:           4
    Memory (MB):              1430
    Schwarz Cutoff:          0E+00
    Fitting Condition:       1E-12

   => Auxiliary Basis Set <=

  Basis Set: 
    Number of shells: 300
    Number of basis function: 940
    Number of Cartesian functions: 1135
    Spherical Harmonics?: true
    Max angular momentum: 4


  -Total Gradient:
     Atom            X                  Y                   Z
    ------   -----------------  -----------------  -----------------
       1       -0.001336808089    -0.000447194335    -0.001391295496
       2        0.005920787840     0.000226731370     0.002018007363
       3        0.002642819820     0.004156196311    -0.005122656890
       4       -0.007304385954     0.003120542746     0.002228452961
       5        0.002050945272    -0.005679306562     0.000886559687
       6        0.000219997431     0.000212359413     0.000080616778
       7       -0.000362728430    -0.002767981244     0.000594617170
       8        0.000101763899     0.000892995117    -0.000164111697
       9       -0.002423677955    -0.000078372158     0.000681559717
      10       -0.000661872765     0.000435995933     0.000156484017
      11        0.000964197181     0.000946877468    -0.000666435804
      12       -0.000273089565     0.000350295034     0.001657199977
      13       -0.000332888032    -0.000074679983     0.000155775574
      14        0.000636833171    -0.000009383234    -0.000790630604
      15        0.000158106176    -0.001285075888    -0.000324142753


*** tstop() called on cx1-27-4-1 at Sat Sep 10 17:26:24 2016
Module time:
	user time   =      40.10 seconds =       0.67 minutes
	system time =       0.73 seconds =       0.01 minutes
	total time  =         11 seconds =       0.18 minutes
Total time:
	user time   =     163.68 seconds =       2.73 minutes
	system time =       3.54 seconds =       0.06 minutes
	total time  =         46 seconds =       0.77 minutes

			-----------------------------------------
			 OPTKING 2.0: for geometry optimizations 
			  - R.A. King,  Bethel University        
			-----------------------------------------

	Previous internal coordinate definitions found.
	---Fragment 1 Geometry and Gradient---
	 H           2.9003268321       -6.3587577761        0.5100621953
	 O           3.3812884250       -4.6465435051        0.4802266633
	 C           1.3276512526       -3.1286383427        0.5068665101
	 C          -1.0388348619       -3.9447638817        1.3241199151
	 C           1.6550456300       -0.6605490600       -0.2342918995
	 H          -1.2727794205       -5.8666702985        1.9352618166
	 C          -3.0636709170       -2.3113596499        1.3635208809
	 H           3.4562895275        0.0122464366       -0.8518361739
	 C          -0.4089554803        0.9315776047       -0.1502776565
	 H          -4.8779148981       -2.9624873062        1.9910866085
	 C          -2.7712940207        0.1759206897        0.6213603935
	 N          -0.0532715922        3.5651845955       -0.9440308582
	 H          -4.3124236808        1.4791845178        0.6475169359
	 O           1.9930084925        4.1847849123       -1.6125234117
	 O          -1.8428431207        4.9090388375       -0.8821842383
	            -0.0013368081       -0.0004471943       -0.0013912955
	             0.0059207878        0.0002267314        0.0020180074
	             0.0026428198        0.0041561963       -0.0051226569
	            -0.0073043860        0.0031205427        0.0022284530
	             0.0020509453       -0.0056793066        0.0008865597
	             0.0002199974        0.0002123594        0.0000806168
	            -0.0003627284       -0.0027679812        0.0005946172
	             0.0001017639        0.0008929951       -0.0001641117
	            -0.0024236780       -0.0000783722        0.0006815597
	            -0.0006618728        0.0004359959        0.0001564840
	             0.0009641972        0.0009468775       -0.0006664358
	            -0.0002730896        0.0003502950        0.0016572000
	            -0.0003328880       -0.0000746800        0.0001557756
	             0.0006368332       -0.0000093832       -0.0007906306
	             0.0001581062       -0.0012850759       -0.0003241428

	---Fragment 1 Intrafragment Coordinates---
	 - Coordinate -           - BOHR/RAD -       - ANG/DEG -
	 R(1,2)           =         1.778733	       0.941265
	 R(2,3)           =         2.553854	       1.351441
	 R(3,4)           =         2.633291	       1.393477
	 R(3,5)           =         2.597685	       1.374636
	 R(4,6)           =         2.030258	       1.074366
	 R(4,7)           =         2.601831	       1.376829
	 R(5,8)           =         2.019528	       1.068688
	 R(5,9)           =         2.608069	       1.380131
	 R(7,10)          =         2.027138	       1.072715
	 R(7,11)          =         2.612059	       1.382242
	 R(9,11)          =         2.597515	       1.374546
	 R(9,12)          =         2.773525	       1.467686
	 R(11,13)         =         2.018480	       1.068134
	 R(12,14)         =         2.240100	       1.185410
	 R(12,15)         =         2.238825	       1.184735
	 B(1,2,3)         =         1.933200	     110.764190
	 B(2,3,4)         =         2.143240	     122.798625
	 B(2,3,5)         =         2.049223	     117.411833
	 B(3,4,6)         =         2.083301	     119.364356
	 B(3,4,7)         =         2.105418	     120.631576
	 B(3,5,8)         =         2.113182	     121.076406
	 B(3,5,9)         =         2.061304	     118.104045
	 B(4,3,5)         =         2.090101	     119.753955
	 B(4,7,10)        =         2.093866	     119.969701
	 B(4,7,11)        =         2.101787	     120.423499
	 B(5,9,11)        =         2.155216	     123.484778
	 B(5,9,12)        =         2.058905	     117.966574
	 B(6,4,7)         =         2.094456	     120.003469
	 B(7,11,9)        =         2.052425	     117.595267
	 B(7,11,13)       =         2.124308	     121.713911
	 B(8,5,9)         =         2.108692	     120.819134
	 B(9,11,13)       =         2.106444	     120.690339
	 B(9,12,14)       =         2.054649	     117.722700
	 B(9,12,15)       =         2.048289	     117.358333
	 B(10,7,11)       =         2.087481	     119.603873
	 B(11,9,12)       =         2.069046	     118.547584
	 B(14,12,15)      =         2.180217	     124.917205
	*D(1,2,3,4)       =         0.349066	      19.999989
	 D(1,2,3,5)       =        -2.830542	    -162.178135
	 D(2,3,4,6)       =        -0.018015	      -1.032158
	 D(2,3,4,7)       =         3.118664	     178.686304
	 D(2,3,5,8)       =         0.026895	       1.540961
	 D(2,3,5,9)       =        -3.110640	    -178.226528
	 D(3,4,7,10)      =         3.138300	     179.811369
	 D(3,4,7,11)      =        -0.014199	      -0.813542
	 D(3,5,9,11)      =        -0.006146	      -0.352166
	 D(3,5,9,12)      =        -3.141084	    -179.970866
	 D(4,3,5,8)       =         3.131681	     179.432076
	 D(4,3,5,9)       =        -0.005854	      -0.335413
	 D(4,7,11,9)      =         0.002418	       0.138562
	 D(4,7,11,13)     =        -3.134792	    -179.610360
	 D(5,3,4,6)       =        -3.120735	    -178.804947
	 D(5,3,4,7)       =         0.015944	       0.913516
	 D(5,9,11,7)      =         0.007905	       0.452934
	 D(5,9,11,13)     =        -3.138022	    -179.795443
	 D(5,9,12,14)     =        -0.001816	      -0.104048
	 D(5,9,12,15)     =         3.131765	     179.436908
	 D(6,4,7,10)      =        -0.008237	      -0.471964
	 D(6,4,7,11)      =         3.122449	     178.903125
	 D(7,11,9,12)     =        -3.140379	    -179.930451
	 D(8,5,9,11)      =         3.139493	     179.879720
	 D(8,5,9,12)      =         0.004556	       0.261020
	 D(9,11,7,10)     =         3.133144	     179.515931
	 D(10,7,11,13)    =        -0.004066	      -0.232991
	 D(11,9,12,14)    =        -3.137090	    -179.742015
	 D(11,9,12,15)    =        -0.003509	      -0.201060
	 D(12,9,11,13)    =        -0.003121	      -0.178827

	Current energy   :      -509.2176490421

	Energy change for the previous step:
		Projected    :        -0.0052309990
		Actual       :        -0.0020214317

	Performing BFGS update.
	Previous computed or guess Hessian on step 1.
	Steps to be used in Hessian update: 1
	Taking RFO optimization step.
	Going to follow RFO solution 1.
	Using RFO vector 1.
	Norm of target step-size    0.31598
	Projected energy change by RFO approximation:        -0.0011867813

	Back-transformation to cartesian coordinates...
	Could not converge backtransformation.
	Using first guess instead.

	Back-transformation to cartesian coordinates to adjust frozen coordinates...
	Successfully converged to displaced geometry.

	--- Internal Coordinate Step in ANG or DEG, aJ/ANG or AJ/DEG ---
	 ---------------------------------------------------------------------------
	   Coordinate                Previous        Force       Change         New 
	   ----------                --------       ------       ------       ------
	    1 R(1,2)          =      0.941265    -0.006332    -0.000575     0.940690
	    2 R(2,3)          =      1.351441    -0.031395    -0.002906     1.348535
	    3 R(3,4)          =      1.393477    -0.059829    -0.006385     1.387092
	    4 R(3,5)          =      1.374636     0.039131     0.004279     1.378915
	    5 R(4,6)          =      1.074366     0.001665     0.000615     1.074982
	    6 R(4,7)          =      1.376829     0.012848     0.001534     1.378364
	    7 R(5,8)          =      1.068688    -0.003612    -0.000595     1.068094
	    8 R(5,9)          =      1.380131    -0.015209    -0.001718     1.378413
	    9 R(7,10)         =      1.072715    -0.004126    -0.000546     1.072169
	   10 R(7,11)         =      1.382242     0.002077     0.000196     1.382438
	   11 R(9,11)         =      1.374546     0.002459     0.000688     1.375233
	   12 R(9,12)         =      1.467686     0.008114     0.001626     1.469312
	   13 R(11,13)        =      1.068134    -0.001713    -0.000208     1.067926
	   14 R(12,14)        =      1.185410    -0.006715     0.009347     1.194757
	   15 R(12,15)        =      1.184735     0.007470     0.010538     1.195273
	   16 B(1,2,3)        =    110.764190     0.000154     0.551007   111.315196
	   17 B(2,3,4)        =    122.798625    -0.000203     0.086686   122.885311
	   18 B(2,3,5)        =    117.411833     0.000091    -0.336951   117.074882
	   19 B(3,4,6)        =    119.364356     0.000086     0.356502   119.720858
	   20 B(3,4,7)        =    120.631576    -0.000147    -0.412619   120.218958
	   21 B(3,5,8)        =    121.076406    -0.000087    -0.388760   120.687647
	   22 B(3,5,9)        =    118.104045     0.000052     0.143135   118.247180
	   23 B(4,3,5)        =    119.753955     0.000113     0.259536   120.013492
	   24 B(4,7,10)       =    119.969701    -0.000117    -0.350385   119.619316
	   25 B(4,7,11)       =    120.423499     0.000137     0.332413   120.755912
	   26 B(5,9,11)       =    123.484778    -0.000157    -0.347598   123.137181
	   27 B(5,9,12)       =    117.966574     0.000081     0.196240   118.162813
	   28 B(6,4,7)        =    120.003469     0.000061     0.056478   120.059947
	   29 B(7,11,9)       =    117.595267     0.000001     0.027874   117.623141
	   30 B(7,11,13)      =    121.713911     0.000023     0.081561   121.795473
	   31 B(8,5,9)        =    120.819134     0.000035     0.246027   121.065161
	   32 B(9,11,13)      =    120.690339    -0.000024    -0.108973   120.581366
	   33 B(9,12,14)      =    117.722700    -0.000034    -0.446942   117.275758
	   34 B(9,12,15)      =    117.358333     0.000083    -0.195625   117.162708
	   35 B(10,7,11)      =    119.603873    -0.000020     0.019834   119.623706
	   36 B(11,9,12)      =    118.547584     0.000076     0.151997   118.699581
	   37 B(14,12,15)     =    124.917205    -0.000049    -1.873513   123.043692
	   38 *D(1,2,3,4)     =     19.999989    -0.000000     0.000000    19.999989
	   39 D(1,2,3,5)      =   -162.178135     0.000005     0.309420  -161.868714
	   40 D(2,3,4,6)      =     -1.032158     0.000001     0.033812    -0.998346
	   41 D(2,3,4,7)      =    178.686304     0.000003     0.138125   178.824430
	   42 D(2,3,5,8)      =      1.540961    -0.000001    -0.022113     1.518848
	   43 D(2,3,5,9)      =   -178.226528    -0.000003    -0.293607  -178.520135
	   44 D(3,4,7,10)     =    179.811369    -0.000001    -0.103478   179.707891
	   45 D(3,4,7,11)     =     -0.813542     0.000002     0.144385    -0.669156
	   46 D(3,5,9,11)     =     -0.352166     0.000002     0.186690    -0.165476
	   47 D(3,5,9,12)     =   -179.970866     0.000000     0.045813  -179.925052
	   48 D(4,3,5,8)      =    179.432076     0.000002     0.274518   179.706594
	   49 D(4,3,5,9)      =     -0.335413    -0.000000     0.003024    -0.332389
	   50 D(4,7,11,9)     =      0.138562    -0.000000     0.039410     0.177971
	   51 D(4,7,11,13)    =   -179.610360    -0.000002    -0.161077  -179.771437
	   52 D(5,3,4,6)      =   -178.804947    -0.000003    -0.271793  -179.076740
	   53 D(5,3,4,7)      =      0.913516    -0.000002    -0.167480     0.746036
	   54 D(5,9,11,7)     =      0.452934    -0.000002    -0.209194     0.243739
	   55 D(5,9,11,13)    =   -179.795443    -0.000000    -0.010765  -179.806208
	   56 D(5,9,12,14)    =     -0.104048    -0.000010    -8.918135    -9.022183
	   57 D(5,9,12,15)    =    179.436908     0.000011     8.968114   188.405022
	   58 D(6,4,7,10)     =     -0.471964     0.000001     0.002028    -0.469937
	   59 D(6,4,7,11)     =    178.903125     0.000003     0.249890   179.153015
	   60 D(7,11,9,12)    =   -179.930451    -0.000001    -0.067456  -179.997907
	   61 D(8,5,9,11)     =    179.879720    -0.000000    -0.084333   179.795387
	   62 D(8,5,9,12)     =      0.261020    -0.000002    -0.225210     0.035811
	   63 D(9,11,7,10)    =    179.515931     0.000002     0.284976   179.800907
	   64 D(10,7,11,13)   =     -0.232991     0.000001     0.084490    -0.148501
	   65 D(11,9,12,14)   =   -179.742015    -0.000011    -9.050649  -188.792664
	   66 D(11,9,12,15)   =     -0.201060     0.000010     8.835600     8.634540
	   67 D(12,9,11,13)   =     -0.178827     0.000001     0.130973    -0.047854
	 ---------------------------------------------------------------------------
	Successfully symmetrized geometry.

  ==> Convergence Check <==

  Measures of convergence in internal coordinates in au.
  Criteria marked as inactive (o), active & met (*), and active & unmet ( ).
  ---------------------------------------------------------------------------------------------
   Step     Total Energy     Delta E     MAX Force     RMS Force      MAX Disp      RMS Disp   
  ---------------------------------------------------------------------------------------------
    Convergence Criteria    1.00e-06 *    3.00e-04 *             o    1.20e-03 *             o
  ---------------------------------------------------------------------------------------------
      2    -509.21764904   -2.02e-03      7.26e-03      1.43e-03 o    1.58e-01      3.87e-02 o  ~
  ---------------------------------------------------------------------------------------------

	Writing optimization data to binary file.
	Structure for next step:
	Cartesian Geometry (in Angstrom)
	    H     1.5461293369  -3.3624719068   0.2877692875
	    O     1.7856216971  -2.4532544466   0.2583619945
	    C     0.6960463461  -1.6587406070   0.2693685400
	    C    -0.5454227839  -2.0891144235   0.7138423955
	    C     0.8648986122  -0.3561048755  -0.1501961493
	    H    -0.6681960983  -3.1014861085   1.0538661303
	    C    -1.6173861112  -1.2226936896   0.7236395250
	    H     1.8171926164  -0.0120034393  -0.4901287974
	    C    -0.2260798584   0.4858188893  -0.1193469710
	    H    -2.5738052098  -1.5668549627   1.0647587930
	    C    -1.4716140050   0.0870545067   0.3059750436
	    N    -0.0444709141   1.8729891412  -0.5684068588
	    H    -2.2898313043   0.7733266905   0.3100532034
	    O     1.0734026269   2.2385502318  -0.7785664181
	    O    -0.9544701751   2.6274446380  -0.3912756802
			--------------------------
			 OPTKING Finished Execution 
			--------------------------

    Structure for next step:
    Molecular point group: c1
    Full point group: C1

    Geometry (in Angstrom), charge = 0, multiplicity = 1:

    H            1.545695762121    -3.365690322641     0.283276356331
    O            1.785188122346    -2.456472862420     0.253869063341
    C            0.695612771375    -1.661959022762     0.264875608789
    C           -0.545856358648    -2.092332839325     0.709349464253
    C            0.864465037434    -0.359323291297    -0.154689080547
    H           -0.668629673016    -3.104704524261     1.049373199119
    C           -1.617819685962    -1.225912105439     0.719146593794
    H            1.816759041654    -0.015221855099    -0.494621728597
    C           -0.226513433127     0.482600473517    -0.123839902155
    H           -2.574238784555    -1.570073378467     1.060265861755
    C           -1.472047579711     0.083836090861     0.301482112379
    N           -0.044904488898     1.869770725433    -0.572899790013
    H           -2.290264879039     0.770108274679     0.305560272151
    O            1.072969052129     2.235331815997    -0.783059349305
    O           -0.954903749815     2.624226222208    -0.395768611402

gradient() will perform analytic gradient computation.

*** tstart() called on cx1-27-4-1
*** at Sat Sep 10 17:26:24 2016


         ---------------------------------------------------------
                                   SCF
            by Justin Turney, Rob Parrish, and Andy Simmonett
                              RHF Reference
                        4 Threads,   2000 MiB Core
         ---------------------------------------------------------

  ==> Geometry <==

    Molecular point group: c1
    Full point group: C1

    Geometry (in Angstrom), charge = 0, multiplicity = 1:

       Center              X                  Y                   Z               Mass       
    ------------   -----------------  -----------------  -----------------  -----------------
           H          1.545695762121    -3.365690322641     0.283276356331     1.007825032070
           O          1.785188122346    -2.456472862420     0.253869063341    15.994914619560
           C          0.695612771375    -1.661959022762     0.264875608789    12.000000000000
           C         -0.545856358648    -2.092332839325     0.709349464253    12.000000000000
           C          0.864465037434    -0.359323291297    -0.154689080547    12.000000000000
           H         -0.668629673016    -3.104704524261     1.049373199119     1.007825032070
           C         -1.617819685962    -1.225912105439     0.719146593794    12.000000000000
           H          1.816759041654    -0.015221855099    -0.494621728597     1.007825032070
           C         -0.226513433127     0.482600473517    -0.123839902155    12.000000000000
           H         -2.574238784555    -1.570073378467     1.060265861755     1.007825032070
           C         -1.472047579711     0.083836090861     0.301482112379    12.000000000000
           N         -0.044904488898     1.869770725433    -0.572899790013    14.003074004780
           H         -2.290264879039     0.770108274679     0.305560272151     1.007825032070
           O          1.072969052129     2.235331815997    -0.783059349305    15.994914619560
           O         -0.954903749815     2.624226222208    -0.395768611402    15.994914619560

  Running in c1 symmetry.

  Rotational constants: A =      0.09339  B =      0.03361  C =      0.02474 [cm^-1]
  Rotational constants: A =   2799.70266  B =   1007.67474  C =    741.76460 [MHz]
  Nuclear repulsion =  503.951471501087553

  Charge       = 0
  Multiplicity = 1
  Electrons    = 72
  Nalpha       = 36
  Nbeta        = 36

  ==> Algorithm <==

  SCF Algorithm Type is DF.
  DIIS enabled.
  MOM disabled.
  Fractional occupation disabled.
  Guess Type is READ.
  Energy threshold   = 1.00e-08
  Density threshold  = 1.00e-08
  Integral threshold = 0.00e+00

  ==> Primary Basis <==

  Basis Set: CC-PVTZ
    Number of shells: 130
    Number of basis function: 370
    Number of Cartesian functions: 425
    Spherical Harmonics?: true
    Max angular momentum: 3

  ==> Pre-Iterations <==

   -------------------------------------------------------
    Irrep   Nso     Nmo     Nalpha   Nbeta   Ndocc  Nsocc
   -------------------------------------------------------
     A        370     370       0       0       0       0
   -------------------------------------------------------
    Total     370     370      36      36      36       0
   -------------------------------------------------------

  ==> Integral Setup <==

  ==> DFJK: Density-Fitted J/K Matrices <==

    J tasked:                  Yes
    K tasked:                  Yes
    wK tasked:                  No
    OpenMP threads:              4
    Integrals threads:           4
    Memory (MB):              1430
    Algorithm:                Core
    Integral Cache:           NONE
    Schwarz Cutoff:          1E-12
    Fitting Condition:       1E-12

   => Auxiliary Basis Set <=

  Basis Set: 
    Number of shells: 300
    Number of basis function: 940
    Number of Cartesian functions: 1135
    Spherical Harmonics?: true
    Max angular momentum: 4

  Minimum eigenvalue in the overlap matrix is 3.7726761736E-05.
  Using Symmetric Orthogonalization.
  SCF Guess: Reading in previously saved MOs, projecting if necessary.

  Using orbitals from previous SCF, no projection.
  Recomputing DOCC and SOCC from number of alpha and beta electrons from previous calculation.
              A 
    DOCC [    36 ]

  ==> Iterations <==

                           Total Energy        Delta E     RMS |[F,P]|

   @DF-RHF iter   0:  -509.11946821661763   -5.09119e+02   9.83174e-04 
   @DF-RHF iter   1:  -509.20569394887866   -8.62257e-02   2.02013e-04 
   @DF-RHF iter   2:  -509.20956209522410   -3.86815e-03   9.90269e-05 DIIS
   @DF-RHF iter   3:  -509.21033309142331   -7.70996e-04   4.22292e-05 DIIS
   @DF-RHF iter   4:  -509.21060579113703   -2.72700e-04   1.90575e-05 DIIS
   @DF-RHF iter   5:  -509.21065880085769   -5.30097e-05   8.23569e-06 DIIS
   @DF-RHF iter   6:  -509.21068681830764   -2.80174e-05   3.90707e-06 DIIS
   @DF-RHF iter   7:  -509.21069378428365   -6.96598e-06   1.24971e-06 DIIS
   @DF-RHF iter   8:  -509.21069409391032   -3.09627e-07   3.93386e-07 DIIS
   @DF-RHF iter   9:  -509.21069410910650   -1.51962e-08   1.83002e-07 DIIS
   @DF-RHF iter  10:  -509.21069411230030   -3.19380e-09   5.09735e-08 DIIS
   @DF-RHF iter  11:  -509.21069411267956   -3.79259e-10   2.10468e-08 DIIS
   @DF-RHF iter  12:  -509.21069411273845   -5.88898e-11   6.41028e-09 DIIS

  ==> Post-Iterations <==

    Orbital Energies (a.u.)
    -----------------------

    Doubly Occupied:                                                      

       1A    -20.607321     2A    -20.592908     3A    -20.592538  
       4A    -15.847375     5A    -11.327359     6A    -11.309812  
       7A    -11.265360     8A    -11.262446     9A    -11.259112  
      10A    -11.258806    11A     -1.633170    12A     -1.438787  
      13A     -1.413582    14A     -1.202267    15A     -1.094605  
      16A     -1.049854    17A     -0.965388    18A     -0.866731  
      19A     -0.850929    20A     -0.797932    21A     -0.735734  
[...]
       7        0.000056032136    -0.000191824341     0.000043747698
       8        0.000028141789    -0.000006719369    -0.000005745218
       9       -0.000226192718    -0.000018607380     0.000069310691
      10       -0.000032093249     0.000033797286    -0.000004319134
      11        0.000165058682     0.000140927111    -0.000066870217
      12        0.000045056053    -0.000032243439    -0.000125513763
      13       -0.000036393604    -0.000020268929     0.000012567707
      14        0.000224150495    -0.000070799196     0.000010955658
      15       -0.000257582959     0.000059878501     0.000091841927


*** tstop() called on cx1-27-4-1 at Sat Sep 10 17:28:30 2016
Module time:
	user time   =      38.71 seconds =       0.65 minutes
	system time =       0.73 seconds =       0.01 minutes
	total time  =         11 seconds =       0.18 minutes
Total time:
	user time   =     617.85 seconds =      10.30 minutes
	system time =      12.78 seconds =       0.21 minutes
	total time  =        172 seconds =       2.87 minutes

			-----------------------------------------
			 OPTKING 2.0: for geometry optimizations 
			  - R.A. King,  Bethel University        
			-----------------------------------------

	Previous internal coordinate definitions found.
	---Fragment 1 Geometry and Gradient---
	 H           2.9038499387       -6.3653088682        0.5037556408
	 O           3.3654046427       -4.6493613094        0.4829642506
	 C           1.3191026017       -3.1359139798        0.5178308314
	 C          -1.0270957712       -3.9576260628        1.3273509740
	 C           1.6479602647       -0.6553610888       -0.2314431494
	 H          -1.2697429478       -5.8803389386        1.9322350550
	 C          -3.0529108739       -2.3110507559        1.3638839392
	 H           3.4559551389       -0.0047166219       -0.8503122699
	 C          -0.4052951079        0.9357300459       -0.1555395882
	 H          -4.8645757723       -2.9701936118        1.9878073933
	 C          -2.7698201070        0.1711738389        0.6228635633
	 N          -0.0523436143        3.5699811503       -0.9528575023
	 H          -4.3130540584        1.4714373305        0.6465803633
	 O           1.9958061711        4.1900521207       -1.6118314613
	 O          -1.8407648585        4.9171369110       -0.8873681881
	            -0.0000387271       -0.0000049828       -0.0015366886
	             0.0001755765        0.0001970651        0.0024986772
	            -0.0001539316       -0.0003170722       -0.0021077334
	            -0.0000096965        0.0003632645        0.0011123177
	             0.0000549945       -0.0001487000        0.0000184569
	             0.0000056076        0.0000162852       -0.0000110051
	             0.0000560321       -0.0001918243        0.0000437477
	             0.0000281418       -0.0000067194       -0.0000057452
	            -0.0002261927       -0.0000186074        0.0000693107
	            -0.0000320932        0.0000337973       -0.0000043191
	             0.0001650587        0.0001409271       -0.0000668702
	             0.0000450561       -0.0000322434       -0.0001255138
	            -0.0000363936       -0.0000202689        0.0000125677
	             0.0002241505       -0.0000707992        0.0000109557
	            -0.0002575830        0.0000598785        0.0000918419

	---Fragment 1 Intrafragment Coordinates---
	 - Coordinate -           - BOHR/RAD -       - ANG/DEG -
	 R(1,2)           =         1.777060	       0.940379
	 R(2,3)           =         2.545406	       1.346971
	 R(3,4)           =         2.614418	       1.383490
	 R(3,5)           =         2.612030	       1.382227
	 R(4,6)           =         2.030169	       1.074319
	 R(4,7)           =         2.610837	       1.381596
	 R(5,8)           =         2.018708	       1.068254
	 R(5,9)           =         2.598690	       1.375168
	 R(7,10)          =         2.026297	       1.072270
	 R(7,11)          =         2.605895	       1.378980
	 R(9,11)          =         2.604119	       1.378040
	 R(9,12)          =         2.774810	       1.468366
	 R(11,13)         =         2.018123	       1.067944
	 R(12,14)         =         2.239119	       1.184891
	 R(12,15)         =         2.239993	       1.185353
	 B(1,2,3)         =         1.944613	     111.418095
	 B(2,3,4)         =         2.139818	     122.602562
	 B(2,3,5)         =         2.048237	     117.355358
	 B(3,4,6)         =         2.091140	     119.813519
	 B(3,4,7)         =         2.097209	     120.161198
	 B(3,5,8)         =         2.102246	     120.449833
	 B(3,5,9)         =         2.064163	     118.267808
	 B(4,3,5)         =         2.094725	     120.018883
	 B(4,7,10)        =         2.086207	     119.530858
	 B(4,7,11)        =         2.108852	     120.828334
	 B(5,9,11)        =         2.148843	     123.119647
	 B(5,9,12)        =         2.062761	     118.187490
	 B(6,4,7)         =         2.094834	     120.025144
	 B(7,11,9)        =         2.052513	     117.600310
	 B(7,11,13)       =         2.126220	     121.823424
	 B(8,5,9)         =         2.116776	     121.282353
	 B(9,11,13)       =         2.104451	     120.576187
	 B(9,12,14)       =         2.053091	     117.633451
	 B(9,12,15)       =         2.049906	     117.450972
	 B(10,7,11)       =         2.088106	     119.639644
	 B(11,9,12)       =         2.071574	     118.692466
	 B(14,12,15)      =         2.180188	     124.915570
	*D(1,2,3,4)       =         0.349066	      19.999989
	 D(1,2,3,5)       =        -2.823138	    -161.753884
	 D(2,3,4,6)       =        -0.016914	      -0.969110
	 D(2,3,4,7)       =         3.122307	     178.895027
	 D(2,3,5,8)       =         0.024585	       1.408612
	 D(2,3,5,9)       =        -3.116553	    -178.565314
	 D(3,4,7,10)      =         3.137294	     179.753679
	 D(3,4,7,11)      =        -0.011172	      -0.640123
	 D(3,5,9,11)      =        -0.003787	      -0.217001
	 D(3,5,9,12)      =        -3.141322	    -179.984500
	 D(4,3,5,8)       =         3.136395	     179.702218
	 D(4,3,5,9)       =        -0.004742	      -0.271708
	 D(4,7,11,9)      =         0.002800	       0.160422
	 D(4,7,11,13)     =        -3.137014	    -179.737660
	 D(5,3,4,6)       =        -3.127107	    -179.170026
	 D(5,3,4,7)       =         0.012115	       0.694111
	 D(5,9,11,7)      =         0.004763	       0.272898
	 D(5,9,11,13)     =        -3.138585	    -179.827685
	 D(5,9,12,14)     =        -0.005711	      -0.327234
	 D(5,9,12,15)     =         3.136363	     179.700388
	 D(6,4,7,10)      =        -0.006675	      -0.382473
	 D(6,4,7,11)      =         3.128044	     179.223724
	 D(7,11,9,12)     =        -3.140907	    -179.960715
	 D(8,5,9,11)      =         3.138264	     179.809300
	 D(8,5,9,12)      =         0.000730	       0.041802
	 D(9,11,7,10)     =         3.137512	     179.766194
	 D(10,7,11,13)    =        -0.002302	      -0.131887
	 D(11,9,12,14)    =         3.139756	     179.894751
	 D(11,9,12,15)    =        -0.001355	      -0.077627
	 D(12,9,11,13)    =        -0.001070	      -0.061299

	Current energy   :      -509.2178659485

	Energy change for the previous step:
		Projected    :        -0.0000042961
		Actual       :        -0.0000024525

	Performing BFGS update.
	Previous computed or guess Hessian on step 1.
	Steps to be used in Hessian update: 7 6
	Taking RFO optimization step.
	Going to follow RFO solution 1.
	Using RFO vector 1.
	Norm of target step-size    0.00229
	Projected energy change by RFO approximation:        -0.0000009293

	Back-transformation to cartesian coordinates...
	Could not converge backtransformation.
	Using first guess instead.

	Back-transformation to cartesian coordinates to adjust frozen coordinates...
	Successfully converged to displaced geometry.

	--- Internal Coordinate Step in ANG or DEG, aJ/ANG or AJ/DEG ---
	 ---------------------------------------------------------------------------
	   Coordinate                Previous        Force       Change         New 
	   ----------                --------       ------       ------       ------
	    1 R(1,2)          =      0.940379     0.000026     0.000006     0.940386
	    2 R(2,3)          =      1.346971     0.000143     0.000001     1.346971
	    3 R(3,4)          =      1.383490    -0.001784    -0.000371     1.383119
	    4 R(3,5)          =      1.382227     0.001305     0.000319     1.382546
	    5 R(4,6)          =      1.074319     0.000160     0.000025     1.074344
	    6 R(4,7)          =      1.381596     0.000843     0.000274     1.381869
	    7 R(5,8)          =      1.068254    -0.000204    -0.000019     1.068235
	    8 R(5,9)          =      1.375168    -0.000742    -0.000275     1.374892
	    9 R(7,10)         =      1.072270    -0.000135    -0.000020     1.072250
	   10 R(7,11)         =      1.378980    -0.000532    -0.000234     1.378746
	   11 R(9,11)         =      1.378040     0.000992     0.000272     1.378313
	   12 R(9,12)         =      1.468366     0.000272     0.000015     1.468381
	   13 R(11,13)        =      1.067944    -0.000123    -0.000014     1.067931
	   14 R(12,14)        =      1.184891    -0.001501    -0.000087     1.184804
	   15 R(12,15)        =      1.185353    -0.002013    -0.000106     1.185248
	   16 B(1,2,3)        =    111.418095     0.000001     0.003392   111.421487
	   17 B(2,3,4)        =    122.602562    -0.000001     0.012009   122.614570
	   18 B(2,3,5)        =    117.355358    -0.000001    -0.014562   117.340796
	   19 B(3,4,6)        =    119.813519     0.000001     0.011274   119.824793
	   20 B(3,4,7)        =    120.161198    -0.000002    -0.007150   120.154048
	   21 B(3,5,8)        =    120.449833     0.000000    -0.006764   120.443070
	   22 B(3,5,9)        =    118.267808     0.000002     0.006420   118.274228
	   23 B(4,3,5)        =    120.018883     0.000002     0.001369   120.020252
	   24 B(4,7,10)       =    119.530858    -0.000005    -0.023464   119.507394
	   25 B(4,7,11)       =    120.828334     0.000003     0.009194   120.837529
	   26 B(5,9,11)       =    123.119647    -0.000004    -0.007414   123.112233
	   27 B(5,9,12)       =    118.187490     0.000006     0.014774   118.202263
	   28 B(6,4,7)        =    120.025144     0.000001    -0.004126   120.021017
	   29 B(7,11,9)       =    117.600310    -0.000000    -0.002630   117.597680
	   30 B(7,11,13)      =    121.823424     0.000003     0.019695   121.843118
	   31 B(8,5,9)        =    121.282353    -0.000002     0.000342   121.282696
	   32 B(9,11,13)      =    120.576187    -0.000003    -0.017078   120.559109
	   33 B(9,12,14)      =    117.633451     0.000009     0.013334   117.646786
	   34 B(9,12,15)      =    117.450972     0.000007     0.008719   117.459691
	   35 B(10,7,11)      =    119.639644     0.000002     0.014224   119.653868
	   36 B(11,9,12)      =    118.692466    -0.000002    -0.007389   118.685077
	   37 B(14,12,15)     =    124.915570    -0.000015    -0.022047   124.893523
	   38 *D(1,2,3,4)     =     19.999989     0.000000     0.000000    19.999989
	   39 D(1,2,3,5)      =   -161.753884    -0.000000    -0.044207  -161.798090
	   40 D(2,3,4,6)      =     -0.969110    -0.000000    -0.022529    -0.991638
	   41 D(2,3,4,7)      =    178.895027    -0.000000    -0.023674   178.871353
	   42 D(2,3,5,8)      =      1.408612     0.000000     0.025031     1.433643
	   43 D(2,3,5,9)      =   -178.565314     0.000000     0.027635  -178.537679
	   44 D(3,4,7,10)     =    179.753679    -0.000000    -0.004817   179.748863
	   45 D(3,4,7,11)     =     -0.640123    -0.000000    -0.012454    -0.652578
	   46 D(3,5,9,11)     =     -0.217001    -0.000000    -0.001278    -0.218279
	   47 D(3,5,9,12)     =   -179.984500     0.000000     0.007177  -179.977322
	   48 D(4,3,5,8)      =    179.702218    -0.000000    -0.017768   179.684450
	   49 D(4,3,5,9)      =     -0.271708    -0.000000    -0.015163    -0.286872
	   50 D(4,7,11,9)     =      0.160422    -0.000000    -0.003614     0.156808
	   51 D(4,7,11,13)    =   -179.737660     0.000000     0.004868  -179.732792
	   52 D(5,3,4,6)      =   -179.170026     0.000000     0.023086  -179.146939
	   53 D(5,3,4,7)      =      0.694111     0.000000     0.021941     0.716052
	   54 D(5,9,11,7)     =      0.272898     0.000000     0.010568     0.283466
	   55 D(5,9,11,13)    =   -179.827685     0.000000     0.002240  -179.825445
	   56 D(5,9,12,14)    =     -0.327234     0.000001     0.005688    -0.321546
	   57 D(5,9,12,15)    =    179.700388    -0.000001    -0.020917   179.679471
	   58 D(6,4,7,10)     =     -0.382473    -0.000000    -0.005943    -0.388417
	   59 D(6,4,7,11)     =    179.223724    -0.000000    -0.013581   179.210143
	   60 D(7,11,9,12)    =   -179.960715     0.000000     0.002123  -179.958592
	   61 D(8,5,9,11)     =    179.809300     0.000000     0.001352   179.810652
	   62 D(8,5,9,12)     =      0.041802     0.000000     0.009807     0.051608
	   63 D(9,11,7,10)    =    179.766194    -0.000000    -0.011410   179.754785
	   64 D(10,7,11,13)   =     -0.131887    -0.000000    -0.002928    -0.134816
	   65 D(11,9,12,14)   =    179.894751     0.000001     0.013763   179.908514
	   66 D(11,9,12,15)   =     -0.077627    -0.000001    -0.012841    -0.090468
	   67 D(12,9,11,13)   =     -0.061299    -0.000000    -0.006205    -0.067504
	 ---------------------------------------------------------------------------
	Successfully symmetrized geometry.

  ==> Convergence Check <==

  Measures of convergence in internal coordinates in au.
  Criteria marked as inactive (o), active & met (*), and active & unmet ( ).
  ---------------------------------------------------------------------------------------------
   Step     Total Energy     Delta E     MAX Force     RMS Force      MAX Disp      RMS Disp   
  ---------------------------------------------------------------------------------------------
    Convergence Criteria    1.00e-06 *    3.00e-04 *             o    1.20e-03 *             o
  ---------------------------------------------------------------------------------------------
      8    -509.21786595   -2.45e-06      2.44e-04 *    6.66e-05 o    7.72e-04 *    2.80e-04 o  ~
  ---------------------------------------------------------------------------------------------


  **** Optimization is complete! (in 8 steps) ****

  ==> Optimization Summary <==

  Measures of convergence in internal coordinates in au.
  --------------------------------------------------------------------------------------------------------------- ~
   Step         Total Energy             Delta E       MAX Force       RMS Force        MAX Disp        RMS Disp  ~
  --------------------------------------------------------------------------------------------------------------- ~
      1    -509.215627610498   -509.215627610498      0.02386974      0.00424271      0.09291012      0.01899794  ~
      2    -509.217649042148     -0.002021431651      0.00726192      0.00143370      0.15796363      0.03868354  ~
      3    -509.210694112738      0.006954929410      0.02199077      0.00595483      0.13813624      0.03409226  ~
      4    -509.217683482830     -0.006989370092      0.00529288      0.00117761      0.02692950      0.00850039  ~
      5    -509.217523527177      0.000159955654      0.01426239      0.00267342      0.01910506      0.00483241  ~
      6    -509.217835537658     -0.000312010482      0.00237287      0.00065450      0.00620155      0.00153700  ~
      7    -509.217863496009     -0.000027958351      0.00061645      0.00017265      0.00136072      0.00057247  ~
      8    -509.217865948470     -0.000002452461      0.00024435      0.00006658      0.00077155      0.00028007  ~
  --------------------------------------------------------------------------------------------------------------- ~

	Writing optimization data to binary file.
	Final energy is   -509.2178659484697
	Final (previous) structure:
	Cartesian Geometry (in Angstrom)
	    H     1.5366512047  -3.3683763787   0.2665760038
	    O     1.7808954346  -2.4603360394   0.2555736740
	    C     0.6980390326  -1.6594542062   0.2740242739
	    C    -0.5435156732  -2.0942855126   0.7024038832
	    C     0.8720630127  -0.3468021516  -0.1224744398
	    H    -0.6719190287  -3.1117413451   1.0224947527
	    C    -1.6155308543  -1.2229553879   0.7217362958
	    H     1.8288126934  -0.0024959288  -0.4499658734
	    C    -0.2144729339   0.4951670137  -0.0823080051
	    H    -2.5742226282  -1.5717587645   1.0519023676
	    C    -1.4657256725   0.0905812942   0.3296052018
	    N    -0.0276990477   1.8891526598  -0.5042304733
	    H    -2.2823699071   0.7786510992   0.3421555918
	    O     1.0561351385   2.2172800851  -0.8529444734
	    O    -0.9740908095   2.6020367848  -0.4695750208
	Saving final (previous) structure.
			--------------------------
			 OPTKING Finished Execution 
			--------------------------

    Final optimized geometry and variables:
    Molecular point group: c1
    Full point group: C1

    Geometry (in Angstrom), charge = 0, multiplicity = 1:

    H            1.536651204716    -3.368376378679     0.266576003795
    O            1.780895434602    -2.460336039435     0.255573673971
    C            0.698039032586    -1.659454206234     0.274024273895
    C           -0.543515673154    -2.094285512565     0.702403883223
    C            0.872063012747    -0.346802151578    -0.122474439759
    H           -0.671919028739    -3.111741345071     1.022494752720
    C           -1.615530854327    -1.222955387928     0.721736295774
    H            1.828812693393    -0.002495928815    -0.449965873437
    C           -0.214472933875     0.495167013706    -0.082308005125
    H           -2.574222628150    -1.571758764463     1.051902367617
    C           -1.465725672523     0.090581294248     0.329605201781
    N           -0.027699047678     1.889152659846    -0.504230473269
    H           -2.282369907130     0.778651099184     0.342155591792
    O            1.056135138503     2.217280085105    -0.852944473433
    O           -0.974090809495     2.602036784802    -0.469575020761

	Cleaning optimization helper files.


Properties will be evaluated at   0.000000,   0.000000,   0.000000 Bohr

Properties computed using the  density matrix

  Nuclear Dipole Moment: (a.u.)
     X:    -2.0188      Y:    -6.8149      Z:     2.0899

  Electronic Dipole Moment: (a.u.)
     X:     1.4406      Y:     4.6046      Z:    -1.5431

  Dipole Moment: (a.u.)
     X:    -0.5782      Y:    -2.2103      Z:     0.5467     Total:     2.3492

  Dipole Moment: (Debye)
     X:    -1.4696      Y:    -5.6180      Z:     1.3896     Total:     5.9710

  Quadrupole Moment: (Debye Ang)
    XX:   -56.7969     YY:   -55.2935     ZZ:   -58.3054
    XY:     0.7200     XZ:    -1.4511     YZ:     0.8921

  Traceless Quadrupole Moment: (Debye Ang)
    XX:     0.0017     YY:     1.5051     ZZ:    -1.5068
    XY:     0.7200     XZ:    -1.4511     YZ:     0.8921

  Mulliken Charges: (a.u.)
   Center  Symbol    Alpha    Beta     Spin     Total
       1     H     0.38536  0.38536  0.00000  0.22928
       2     O     4.16918  4.16918  0.00000 -0.33837
       3     C     2.85196  2.85196  0.00000  0.29608
       4     C     3.11879  3.11879  0.00000 -0.23758
       5     C     3.10801  3.10801  0.00000 -0.21602
       6     H     0.42667  0.42667  0.00000  0.14666
       7     C     3.06312  3.06312  0.00000 -0.12625
       8     H     0.39394  0.39394  0.00000  0.21212
       9     C     2.96920  2.96920  0.00000  0.06160
      10     H     0.41597  0.41597  0.00000  0.16806
      11     C     3.09634  3.09634  0.00000 -0.19268
      12     N     3.25114  3.25114  0.00000  0.49772
      13     H     0.39943  0.39943  0.00000  0.20114
      14     O     4.17466  4.17466  0.00000 -0.34932
      15     O     4.17622  4.17622  0.00000 -0.35243

   Total alpha = 36.00000, Total beta = 36.00000, Total charge = -0.00000


*** Psi4 exiting successfully. Buy a developer a beer!
