    -----------------------------------------------------------------------
          Psi4: An Open-Source Ab Initio Electronic Structure Package
                              Psi4 1.0.54 Driver

                          Git: Rev {master} 8d4cec3 dirty

    J. M. Turney, A. C. Simmonett, R. M. Parrish, E. G. Hohenstein,
    F. A. Evangelista, J. T. Fermann, B. J. Mintz, L. A. Burns, J. J. Wilke,
    M. L. Abrams, N. J. Russ, M. L. Leininger, C. L. Janssen, E. T. Seidl,
    W. D. Allen, H. F. Schaefer, R. A. King, E. F. Valeev, C. D. Sherrill,
    and T. D. Crawford, WIREs Comput. Mol. Sci. 2, 556-565 (2012)
    (doi: 10.1002/wcms.93)

                         Additional Contributions by
    A. E. DePrince, U. Bozkaya, A. Yu. Sokolov, D. G. A. Smith, R. Di Remigio,
    R. M. Richard, J. F. Gonthier, H. R. McAlexander, M. Saitow, and
    B. P. Pritchard
    -----------------------------------------------------------------------


    Psi4 started on: Sat Sep 10 17:56:31 2016

    Process ID:  42535
    PSI4DATADIR: /export131/home/mjharvey/miniconda3/share/psi4
    Memory level set to 256.000 MB

  ==> Input File <==

--------------------------------------------------------------------------
set {
	reference rhf
	basis cc-pvtz
}


set_num_threads( 4 )
memory 2 gb

molecule MOL {
0 1

H	 3.951972	 -0.470856	 2.173382
C	 3.369280	 -0.774779	 1.311866
C	 2.067229	 0.013681	 1.224425
H	 3.980826	 -0.619884	 0.429224
H	 3.181213	 -1.839620	 1.399973
C	 1.215950	 -0.382441	 0.027187
H	 2.277711	 1.075686	 1.164370
H	 1.493627	 -0.136689	 2.135987
N	 0.000002	 0.398953	 -0.040851
H	 1.778502	 -0.209473	 -0.885384
H	 1.014298	 -1.457120	 0.065729
C	 -1.215959	 -0.382435	 0.027143
H	 -0.000012	 1.086078	 0.683841
C	 -2.451944	 0.502410	 -0.038737
H	 -1.221867	 -1.069392	 -0.813828
H	 -1.259993	 -0.999709	 0.929424
C	 -3.752217	 -0.292550	 0.005776
H	 -2.407325	 1.093801	 -0.946480
H	 -2.431979	 1.206234	 0.790023
H	 -3.817783	 -0.982946	 -0.828547
H	 -4.612613	 0.364348	 -0.042306
H	 -3.830160	 -0.871666	 0.919868

	symmetry c1
}
set optking {
	frozen_dihedral = ("
		10 6 9 12
	")
}

ee,wfn = optimize('scf', return_wfn=True)
oeprop( wfn, 'DIPOLE', 'QUADRUPOLE', 'MULLIKEN_CHARGES')
f=open( 'psi4out.xyz', 'w' )
f.write( "22  " )
f.write( str(ee) + "\n" )
f.write( MOL.save_string_xyz() )
f.close()
--------------------------------------------------------------------------

  Memory set to   2.000 GiB by Python script.
gradient() will perform analytic gradient computation.

*** tstart() called on cx1-27-1-1
*** at Sat Sep 10 17:56:32 2016


         ---------------------------------------------------------
                                   SCF
            by Justin Turney, Rob Parrish, and Andy Simmonett
                              RHF Reference
                        4 Threads,   2000 MiB Core
         ---------------------------------------------------------

  ==> Geometry <==

    Molecular point group: c1
    Full point group: C1

    Geometry (in Angstrom), charge = 0, multiplicity = 1:

       Center              X                  Y                   Z               Mass       
    ------------   -----------------  -----------------  -----------------  -----------------
           H          4.062042541107    -0.331734912094     1.804007621439     1.007825032070
           C          3.479350541107    -0.635657912094     0.942491621439    12.000000000000
           C          2.177299541107     0.152802087906     0.855050621439    12.000000000000
           H          4.090896541107    -0.480762912094     0.059849621439     1.007825032070
           H          3.291283541107    -1.700498912094     1.030598621439     1.007825032070
           C          1.326020541107    -0.243319912094    -0.342187378561    12.000000000000
           H          2.387781541107     1.214807087906     0.794995621439     1.007825032070
           H          1.603697541107     0.002432087906     1.766612621439     1.007825032070
           N          0.110072541107     0.538074087906    -0.410225378561    14.003074004780
           H          1.888572541107    -0.070351912094    -1.254758378561     1.007825032070
           H          1.124368541107    -1.317998912094    -0.303645378561     1.007825032070
           C         -1.105888458893    -0.243313912094    -0.342231378561    12.000000000000
           H          0.110058541107     1.225199087906     0.314466621439     1.007825032070
           C         -2.341873458893     0.641531087906    -0.408111378561    12.000000000000
           H         -1.111796458893    -0.930270912094    -1.183202378561     1.007825032070
           H         -1.149922458893    -0.860587912094     0.560049621439     1.007825032070
           C         -3.642146458893    -0.153428912094    -0.363598378561    12.000000000000
           H         -2.297254458893     1.232922087906    -1.315854378561     1.007825032070
           H         -2.321908458893     1.345355087906     0.420648621439     1.007825032070
           H         -3.707712458893    -0.843824912094    -1.197921378561     1.007825032070
           H         -4.502542458893     0.503469087906    -0.411680378561     1.007825032070
           H         -3.720089458893    -0.732544912094     0.550493621439     1.007825032070

  Running in c1 symmetry.

  Rotational constants: A =      0.33636  B =      0.02682  C =      0.02659 [cm^-1]
  Rotational constants: A =  10083.74624  B =    804.08492  C =    797.17790 [MHz]
  Nuclear repulsion =  315.646114701154374

  Charge       = 0
  Multiplicity = 1
  Electrons    = 58
  Nalpha       = 29
  Nbeta        = 29

  ==> Algorithm <==

  SCF Algorithm Type is DF.
  DIIS enabled.
  MOM disabled.
  Fractional occupation disabled.
  Guess Type is SAD.
  Energy threshold   = 1.00e-08
  Density threshold  = 1.00e-08
  Integral threshold = 0.00e+00

  ==> Primary Basis <==

  Basis Set: CC-PVTZ
    Number of shells: 160
    Number of basis function: 420
    Number of Cartesian functions: 470
    Spherical Harmonics?: true
    Max angular momentum: 3

  ==> Pre-Iterations <==

   -------------------------------------------------------
    Irrep   Nso     Nmo     Nalpha   Nbeta   Ndocc  Nsocc
   -------------------------------------------------------
     A        420     420       0       0       0       0
   -------------------------------------------------------
    Total     420     420      29      29      29       0
   -------------------------------------------------------

  ==> Integral Setup <==

  ==> DFJK: Density-Fitted J/K Matrices <==

    J tasked:                  Yes
    K tasked:                  Yes
    wK tasked:                  No
    OpenMP threads:              4
    Integrals threads:           4
    Memory (MB):              1430
    Algorithm:                Core
    Integral Cache:           NONE
    Schwarz Cutoff:          1E-12
    Fitting Condition:       1E-12

   => Auxiliary Basis Set <=

  Basis Set: 
    Number of shells: 325
    Number of basis function: 1003
    Number of Cartesian functions: 1197
    Spherical Harmonics?: true
    Max angular momentum: 4

  Minimum eigenvalue in the overlap matrix is 3.9381305653E-04.
  Using Symmetric Orthogonalization.
  SCF Guess: Superposition of Atomic Densities via on-the-fly atomic UHF.

  ==> Iterations <==

                           Total Energy        Delta E     RMS |[F,P]|

   @DF-RHF iter   0:  -293.85807204506989   -2.93858e+02   1.27206e-02 
   @DF-RHF iter   1:  -290.32683560558871    3.53124e+00   1.06365e-03 
   @DF-RHF iter   2:  -290.46694221919790   -1.40107e-01   3.55815e-04 DIIS
   @DF-RHF iter   3:  -290.48127099119938   -1.43288e-02   1.45937e-04 DIIS
   @DF-RHF iter   4:  -290.48398630706924   -2.71532e-03   2.99481e-05 DIIS
   @DF-RHF iter   5:  -290.48414192173504   -1.55615e-04   9.01129e-06 DIIS
   @DF-RHF iter   6:  -290.48415494987569   -1.30281e-05   2.57877e-06 DIIS
   @DF-RHF iter   7:  -290.48415606979734   -1.11992e-06   6.80496e-07 DIIS
   @DF-RHF iter   8:  -290.48415615676549   -8.69682e-08   2.17613e-07 DIIS
   @DF-RHF iter   9:  -290.48415616577392   -9.00843e-09   6.23120e-08 DIIS
   @DF-RHF iter  10:  -290.48415616665386   -8.79936e-10   1.65439e-08 DIIS
   @DF-RHF iter  11:  -290.48415616671059   -5.67297e-11   3.57470e-09 DIIS

  ==> Post-Iterations <==

    Orbital Energies (a.u.)
    -----------------------

    Doubly Occupied:                                                      

       1A    -15.524502     2A    -11.235988     3A    -11.234916  
       4A    -11.215959     5A    -11.210769     6A    -11.209623  
       7A    -11.206984     8A     -1.206994     9A     -1.061029  
      10A     -1.027307    11A     -0.929088    12A     -0.868498  
      13A     -0.814486    14A     -0.798664    15A     -0.653124  
      16A     -0.644553    17A     -0.615686    18A     -0.609665  
      19A     -0.575601    20A     -0.555946    21A     -0.545290  
      22A     -0.521565    23A     -0.516984    24A     -0.486637  
      25A     -0.483244    26A     -0.478627    27A     -0.470543  
      28A     -0.452279    29A     -0.354980  

    Virtual:                                                              

      30A      0.140441    31A      0.148340    32A      0.158834  
      33A      0.171731    34A      0.181764    35A      0.195139  
      36A      0.198808    37A      0.214493    38A      0.230243  
      39A      0.232324    40A      0.240871    41A      0.249269  
      42A      0.255975    43A      0.267390    44A      0.274192  
      45A      0.302825    46A      0.319909    47A      0.346652  
      48A      0.352688    49A      0.366735    50A      0.387415  
      51A      0.399141    52A      0.404829    53A      0.418663  
      54A      0.444564    55A      0.455538    56A      0.460549  
      57A      0.477542    58A      0.487671    59A      0.506378  
      60A      0.519625    61A      0.549240    62A      0.567982  
      63A      0.576803    64A      0.583095    65A      0.587507  
      66A      0.595927    67A      0.616645    68A      0.620997  
      69A      0.623217    70A      0.641161    71A      0.646707  
      72A      0.654571    73A      0.658663    74A      0.659512  
      75A      0.668627    76A      0.674208    77A      0.679259  
      78A      0.694126    79A      0.700721    80A      0.706280  
      81A      0.714154    82A      0.726630    83A      0.737179  
      84A      0.742976    85A      0.765000    86A      0.791053  
      87A      0.821862    88A      0.845367    89A      0.861311  
      90A      0.873674    91A      0.899856    92A      0.908584  
      93A      0.913467    94A      0.934463    95A      0.954750  
      96A      0.959508    97A      0.986542    98A      0.989596  
      99A      1.003255   100A      1.043076   101A      1.056127  
     102A      1.079293   103A      1.096917   104A      1.100969  
     105A      1.115382   106A      1.135617   107A      1.145998  
     108A      1.177889   109A      1.188006   110A      1.211331  
     111A      1.224475   112A      1.234590   113A      1.243333  
     114A      1.249799   115A      1.265826   116A      1.274805  
     117A      1.285904   118A      1.292227   119A      1.303818  
     120A      1.310603   121A      1.325402   122A      1.336262  
     123A      1.349158   124A      1.352671   125A      1.358644  
     126A      1.372259   127A      1.385007   128A      1.389208  
     129A      1.399550   130A      1.409207   131A      1.424895  
     132A      1.430096   133A      1.441401   134A      1.460770  
     135A      1.465126   136A      1.483641   137A      1.499225  
     138A      1.500357   139A      1.510903   140A      1.527364  
     141A      1.543906   142A      1.555603   143A      1.568297  
     144A      1.573101   145A      1.582896   146A      1.584775  
     147A      1.606275   148A      1.618240   149A      1.634068  
     150A      1.650499   151A      1.657170   152A      1.683375  
     153A      1.695315   154A      1.702986   155A      1.719520  
     156A      1.745017   157A      1.750846   158A      1.779268  
     159A      1.802738   160A      1.815656   161A      1.824636  
     162A      1.835251   163A      1.850309   164A      1.880130  
     165A      1.883814   166A      1.934192   167A      1.952832  
     168A      2.008708   169A      2.065901   170A      2.093182  
     171A      2.146095   172A      2.186096   173A      2.204781  
     174A      2.516396   175A      2.529142   176A      2.584785  
     177A      2.608595   178A      2.615217   179A      2.628975  
     180A      2.658651   181A      2.675200   182A      2.696302  
     183A      2.721219   184A      2.741399   185A      2.748441  
     186A      2.791708   187A      2.809849   188A      2.821131  
     189A      2.831979   190A      2.835938   191A      2.843940  
     192A      2.853295   193A      2.861302   194A      2.873005  
     195A      2.904157   196A      2.914847   197A      2.966379  
     198A      2.977915   199A      2.985525   200A      3.005267  
     201A      3.036112   202A      3.051711   203A      3.057673  
     204A      3.065759   205A      3.083796   206A      3.098029  
     207A      3.116978   208A      3.137971   209A      3.139855  
     210A      3.156904   211A      3.171562   212A      3.177446  
     213A      3.188732   214A      3.199797   215A      3.223304  
     216A      3.230352   217A      3.251863   218A      3.264658  
     219A      3.280259   220A      3.306135   221A      3.330240  
     222A      3.340706   223A      3.344889   224A      3.364424  
     225A      3.367557   226A      3.377406   227A      3.397007  
     228A      3.401336   229A      3.407340   230A      3.411821  
     231A      3.422159   232A      3.427503   233A      3.439736  
     234A      3.447606   235A      3.452444   236A      3.462631  
     237A      3.478068   238A      3.484694   239A      3.500061  
     240A      3.510795   241A      3.521463   242A      3.532052  
     243A      3.548730   244A      3.558143   245A      3.571339  
     246A      3.587658   247A      3.599199   248A      3.599658  
     249A      3.612178   250A      3.636320   251A      3.659494  
     252A      3.670383   253A      3.679835   254A      3.700878  
     255A      3.726286   256A      3.732303   257A      3.756419  
     258A      3.766907   259A      3.788348   260A      3.797140  
     261A      3.805394   262A      3.817233   263A      3.820371  
     264A      3.831729   265A      3.851431   266A      3.862189  
     267A      3.869734   268A      3.877967   269A      3.896158  
     270A      3.912174   271A      3.915573   272A      3.949322  
     273A      3.970913   274A      3.984455   275A      3.995069  
     276A      4.008555   277A      4.020078   278A      4.055686  
     279A      4.065358   280A      4.083937   281A      4.088089  
     282A      4.121543   283A      4.124086   284A      4.133355  
     285A      4.142627   286A      4.149557   287A      4.153067  
     288A      4.169553   289A      4.171196   290A      4.194345  
     291A      4.198257   292A      4.213030   293A      4.224835  
     294A      4.237416   295A      4.246408   296A      4.270083  
     297A      4.279016   298A      4.284925   299A      4.305917  
     300A      4.309613   301A      4.326075   302A      4.348922  
     303A      4.355601   304A      4.364096   305A      4.373515  
     306A      4.383945   307A      4.401272   308A      4.412355  
     309A      4.418912   310A      4.433487   311A      4.439959  
     312A      4.452796   313A      4.463622   314A      4.471146  
     315A      4.493355   316A      4.511354   317A      4.515831  
     318A      4.524978   319A      4.540155   320A      4.559737  
     321A      4.574574   322A      4.585414   323A      4.604382  
     324A      4.620391   325A      4.630155   326A      4.642020  
     327A      4.650314   328A      4.657831   329A      4.671924  
     330A      4.684757   331A      4.716894   332A      4.738060  
     333A      4.746052   334A      4.751558   335A      4.778578  
     336A      4.800000   337A      4.817285   338A      4.827968  
     339A      4.888473   340A      4.908058   341A      4.932390  
     342A      4.968911   343A      4.984885   344A      5.042803  
     345A      5.047651   346A      5.074035   347A      5.108074  
     348A      5.112011   349A      5.124968   350A      5.141106  
     351A      5.153412   352A      5.182691   353A      5.211435  
     354A      5.233511   355A      5.245658   356A      5.258484  
     357A      5.261999   358A      5.271375   359A      5.293332  
     360A      5.333179   361A      5.345733   362A      5.347889  
     363A      5.362447   364A      5.369201   365A      5.376668  
     366A      5.450234   367A      5.459091   368A      5.477585  
     369A      5.499351   370A      5.535245   371A      5.541698  
     372A      5.568867   373A      5.589931   374A      5.594239  
     375A      5.610136   376A      5.649023   377A      5.695875  
     378A      5.732360   379A      5.743815   380A      5.747790  
     381A      5.750865   382A      5.761349   383A      5.772314  
     384A      5.797007   385A      5.810455   386A      5.830633  
     387A      5.839082   388A      5.858771   389A      5.874856  
     390A      5.899046   391A      5.910190   392A      5.920918  
     393A      5.937826   394A      5.947613   395A      5.983833  
     396A      6.001416   397A      6.041212   398A      6.076279  
     399A      6.160593   400A      6.202923   401A      6.262751  
     402A      6.304857   403A      6.319898   404A      6.324698  
     405A      6.330769   406A      6.338137   407A      6.371884  
     408A      6.407961   409A      6.463318   410A      6.470674  
     411A      6.555434   412A      6.573131   413A      7.108339  
     414A     12.441368   415A     13.336170   416A     13.379386  
     417A     13.888913   418A     14.072331   419A     14.248244  
     420A     14.295622  

    Final Occupation by Irrep:
              A 
    DOCC [    29 ]

  Energy converged.

  @DF-RHF Final Energy:  -290.48415616671059

   => Energetics <=

    Nuclear Repulsion Energy =            315.6461147011543744
    One-Electron Energy =               -1017.2414760313304214
    Two-Electron Energy =                 411.1112051634653426
    DFT Exchange-Correlation Energy =       0.0000000000000000
    Empirical Dispersion Energy =           0.0000000000000000
    PCM Polarization Energy =               0.0000000000000000
    EFP Energy =                            0.0000000000000000
    Total Energy =                       -290.4841561667107044


  Saving occupied orbitals to File 180.

*** tstop() called on cx1-27-1-1 at Sat Sep 10 17:56:44 2016
Module time:
	user time   =      44.62 seconds =       0.74 minutes
	system time =       0.91 seconds =       0.02 minutes
	total time  =         12 seconds =       0.20 minutes
Total time:
	user time   =      44.62 seconds =       0.74 minutes
	system time =       0.91 seconds =       0.02 minutes
	total time  =         12 seconds =       0.20 minutes


Properties will be evaluated at   0.000000,   0.000000,   0.000000 Bohr

Properties computed using the SCF density matrix

  Nuclear Dipole Moment: (a.u.)
     X:    -0.2371      Y:    -1.6369      Z:     1.5336

  Electronic Dipole Moment: (a.u.)
     X:     0.2679      Y:     1.5149      Z:    -1.1518

  Dipole Moment: (a.u.)
     X:     0.0308      Y:    -0.1220      Z:     0.3819     Total:     0.4021

  Dipole Moment: (Debye)
     X:     0.0783      Y:    -0.3101      Z:     0.9706     Total:     1.0220


*** tstart() called on cx1-27-1-1
*** at Sat Sep 10 17:56:44 2016


         ------------------------------------------------------------
                                   SCF GRAD                          
                          Rob Parrish, Justin Turney,                
                       Andy Simmonett, and Alex Sokolov              
         ------------------------------------------------------------

  ==> Geometry <==

    Molecular point group: c1
    Full point group: C1

    Geometry (in Angstrom), charge = 0, multiplicity = 1:

       Center              X                  Y                   Z               Mass       
    ------------   -----------------  -----------------  -----------------  -----------------
           H          4.062042541107    -0.331734912094     1.804007621439     1.007825032070
           C          3.479350541107    -0.635657912094     0.942491621439    12.000000000000
           C          2.177299541107     0.152802087906     0.855050621439    12.000000000000
           H          4.090896541107    -0.480762912094     0.059849621439     1.007825032070
           H          3.291283541107    -1.700498912094     1.030598621439     1.007825032070
           C          1.326020541107    -0.243319912094    -0.342187378561    12.000000000000
           H          2.387781541107     1.214807087906     0.794995621439     1.007825032070
           H          1.603697541107     0.002432087906     1.766612621439     1.007825032070
           N          0.110072541107     0.538074087906    -0.410225378561    14.003074004780
           H          1.888572541107    -0.070351912094    -1.254758378561     1.007825032070
           H          1.124368541107    -1.317998912094    -0.303645378561     1.007825032070
           C         -1.105888458893    -0.243313912094    -0.342231378561    12.000000000000
           H          0.110058541107     1.225199087906     0.314466621439     1.007825032070
           C         -2.341873458893     0.641531087906    -0.408111378561    12.000000000000
           H         -1.111796458893    -0.930270912094    -1.183202378561     1.007825032070
           H         -1.149922458893    -0.860587912094     0.560049621439     1.007825032070
           C         -3.642146458893    -0.153428912094    -0.363598378561    12.000000000000
           H         -2.297254458893     1.232922087906    -1.315854378561     1.007825032070
           H         -2.321908458893     1.345355087906     0.420648621439     1.007825032070
           H         -3.707712458893    -0.843824912094    -1.197921378561     1.007825032070
           H         -4.502542458893     0.503469087906    -0.411680378561     1.007825032070
           H         -3.720089458893    -0.732544912094     0.550493621439     1.007825032070

  Nuclear repulsion =  315.646114701154374

  ==> Basis Set <==

  Basis Set: CC-PVTZ
    Number of shells: 160
    Number of basis function: 420
    Number of Cartesian functions: 470
    Spherical Harmonics?: true
    Max angular momentum: 3

  ==> DFJKGrad: Density-Fitted SCF Gradients <==

    Gradient:                    1
    J tasked:                  Yes
    K tasked:                  Yes
    wK tasked:                  No
    OpenMP threads:              4
    Integrals threads:           4
    Memory (MB):              1430
    Schwarz Cutoff:          0E+00
    Fitting Condition:       1E-12

   => Auxiliary Basis Set <=

  Basis Set: 
    Number of shells: 325
    Number of basis function: 1003
    Number of Cartesian functions: 1197
    Spherical Harmonics?: true
    Max angular momentum: 4


  -Total Gradient:
     Atom            X                  Y                   Z
    ------   -----------------  -----------------  -----------------
       1       -0.000327408002     0.000134656542    -0.000045550689
       2       -0.001414412637    -0.001840395508    -0.000199243616
       3       -0.002693457292     0.005676982482    -0.001064426022
       4        0.000075205234     0.000108066261    -0.000072125996
       5        0.000519703833    -0.000284289829    -0.000002402742
       6       -0.007518714312    -0.001260499287     0.001886381533
       7       -0.001471631017    -0.001295042171     0.000041109330
       8        0.000443652009     0.000170438205     0.000484355538
       9        0.008623350063     0.001857144767    -0.002357711966
      10       -0.003264613444     0.002866358870    -0.000320290522
      11        0.002519320726    -0.006047909924    -0.000857678848
      12        0.002582479828    -0.001335436014     0.000996370894
      13        0.001134364036     0.001110409682     0.001628012574
      14        0.000092333436     0.000527586508    -0.000018236845
      15        0.000475716428    -0.000330859212    -0.000085319660
      16        0.000236518079     0.000027685471     0.000018249504
      17        0.000060005595    -0.000060000523     0.000015087048
      18       -0.000066792392    -0.000007214673     0.000018882868
      19       -0.000066404229    -0.000030442185    -0.000043264870
      20       -0.000006375185    -0.000003591646     0.000010154819
      21        0.000053706865     0.000014161623    -0.000002810012
      22        0.000013452380     0.000002190563    -0.000029542319


*** tstop() called on cx1-27-1-1 at Sat Sep 10 17:56:58 2016
Module time:
	user time   =      49.87 seconds =       0.83 minutes
	system time =       0.86 seconds =       0.01 minutes
	total time  =         14 seconds =       0.23 minutes
Total time:
	user time   =      94.60 seconds =       1.58 minutes
	system time =       1.77 seconds =       0.03 minutes
	total time  =         26 seconds =       0.43 minutes

			-----------------------------------------
			 OPTKING 2.0: for geometry optimizations 
			  - R.A. King,  Bethel University        
			-----------------------------------------

	Internal coordinates to be generated automatically.
	Detected frag 1 with atoms:  1 2 3 4 5 6 7 8 9 10 11 12 13 14 15 16 17 18 19 20
	 21 22
	---Fragment 1 Bond Connectivity---
	 1 : 2
	 2 : 1 3 4 5
	 3 : 2 6 7 8
	 4 : 2
	 5 : 2
	 6 : 3 9 10 11
	 7 : 3
	 8 : 3
	 9 : 6 12 13
	 10 : 6
	 11 : 6
	 12 : 9 14 15 16
	 13 : 9
	 14 : 12 17 18 19
	 15 : 12
	 16 : 12
	 17 : 14 20 21 22
	 18 : 14
	 19 : 14
	 20 : 17
	 21 : 17
	 22 : 17

	Assuming in current code that numbering for constraints corresponds to unified fragment.
	Frozen dihedral atom list: 
	    10     6     9    12
	---Fragment 1 Geometry and Gradient---
	 H           7.6761479428       -0.6268881326        3.4090803462
	 C           6.5750196430       -1.2012193681        1.7810510471
	 C           4.1144998419        0.2887540987        1.6158115043
	 H           7.7306741007       -0.9085102387        0.1130993937
	 H           6.2196245184       -3.2134772331        1.9475491474
	 C           2.5058156693       -0.4598079965       -0.6466404316
	 H           4.5122531779        2.2956527004        1.5023240014
	 H           3.0305491527        0.0045959801        3.3384140374
	 N           0.2080069574        1.0168126653       -0.7752136182
	 H           3.5688848848       -0.1329458468       -2.3711496984
	 H           2.1247486151       -2.4906569873       -0.5738066070
	 C          -2.0898263208       -0.4597966582       -0.6467235796
	 H           0.2079805013        2.3152907344        0.5942557925
	 C          -4.4254994752        1.2123180619       -0.7712187372
	 H          -2.1009908228       -1.7579572532       -2.2359284553
	 H          -2.1730385214       -1.6262754671        1.0583404053
	 C          -6.8826593432       -0.2899386247       -0.6871013578
	 H          -4.3411817849        2.3298850893       -2.4866044062
	 H          -4.3877710929        2.5423526676        0.7949106927
	 H          -7.0065611268       -1.5945979880       -2.2637433342
	 H          -8.5085721490        0.9514186925       -0.7779631698
	 H          -7.0299502671       -1.3843092639        1.0402821824
	            -0.0003274080        0.0001346565       -0.0000455507
	            -0.0014144126       -0.0018403955       -0.0001992436
	            -0.0026934573        0.0056769825       -0.0010644260
	             0.0000752052        0.0001080663       -0.0000721260
	             0.0005197038       -0.0002842898       -0.0000024027
	            -0.0075187143       -0.0012604993        0.0018863815
	            -0.0014716310       -0.0012950422        0.0000411093
	             0.0004436520        0.0001704382        0.0004843555
	             0.0086233501        0.0018571448       -0.0023577120
	            -0.0032646134        0.0028663589       -0.0003202905
	             0.0025193207       -0.0060479099       -0.0008576788
	             0.0025824798       -0.0013354360        0.0009963709
	             0.0011343640        0.0011104097        0.0016280126
	             0.0000923334        0.0005275865       -0.0000182368
	             0.0004757164       -0.0003308592       -0.0000853197
	             0.0002365181        0.0000276855        0.0000182495
	             0.0000600056       -0.0000600005        0.0000150870
	            -0.0000667924       -0.0000072147        0.0000188829
	            -0.0000664042       -0.0000304422       -0.0000432649
	            -0.0000063752       -0.0000035916        0.0000101548
	             0.0000537069        0.0000141616       -0.0000028100
	             0.0000134524        0.0000021906       -0.0000295423

	Previous optimization step data not found.  Starting new optimization.

	---Fragment 1 Intrafragment Coordinates---
	 - Coordinate -           - BOHR/RAD -       - ANG/DEG -
	 R(1,2)           =         2.047637	       1.083563
	 R(2,3)           =         2.881229	       1.524681
	 R(2,4)           =         2.050190	       1.084914
	 R(2,5)           =         2.050173	       1.084905
	 R(3,6)           =         2.875222	       1.521502
	 R(3,7)           =         2.049080	       1.084326
	 R(3,8)           =         2.055007	       1.087463
	 R(6,9)           =         2.734386	       1.446975
	 R(6,10)          =         2.052045	       1.085895
	 R(6,11)          =         2.067575	       1.094113
	 R(9,12)          =         2.734396	       1.446980
	 R(9,13)          =         1.887192	       0.998659
	 R(12,14)         =         2.875211	       1.521496
	 R(12,15)         =         2.052052	       1.085899
	 R(12,16)         =         2.067569	       1.094110
	 R(14,17)         =         2.881230	       1.524681
	 R(14,18)         =         2.049052	       1.084312
	 R(14,19)         =         2.055037	       1.087479
	 R(17,20)         =         2.050192	       1.084915
	 R(17,21)         =         2.047637	       1.083563
	 R(17,22)         =         2.050170	       1.084903
	 B(1,2,3)         =         1.938833	     111.086953
	 B(1,2,4)         =         1.879343	     107.678421
	 B(1,2,5)         =         1.879630	     107.694846
	 B(2,3,6)         =         1.969578	     112.848491
	 B(2,3,7)         =         1.921856	     110.114223
	 B(2,3,8)         =         1.908020	     109.321469
	 B(3,2,4)         =         1.940013	     111.154539
	 B(3,2,5)         =         1.943557	     111.357629
	 B(3,6,9)         =         1.946121	     111.504522
	 B(3,6,10)        =         1.907059	     109.266438
	 B(3,6,11)        =         1.908292	     109.337070
	 B(4,2,5)         =         1.879596	     107.692930
	 B(6,3,7)         =         1.896542	     108.663836
	 B(6,3,8)         =         1.905491	     109.176584
	 B(6,9,12)        =         1.995824	     114.352309
	 B(6,9,13)        =         1.915002	     109.721554
	 B(7,3,8)         =         1.859014	     106.513659
	 B(9,6,10)        =         1.885786	     108.047604
	 B(9,6,11)        =         1.957571	     112.160585
	 B(9,12,14)       =         1.946112	     111.504004
	 B(9,12,15)       =         1.885780	     108.047255
	 B(9,12,16)       =         1.957607	     112.162597
	 B(10,6,11)       =         1.856196	     106.352217
	 B(12,9,13)       =         1.914996	     109.721210
	 B(12,14,17)      =         1.969579	     112.848552
	 B(12,14,18)      =         1.896535	     108.663470
	 B(12,14,19)      =         1.905489	     109.176501
	 B(14,12,15)      =         1.907050	     109.265911
	 B(14,12,16)      =         1.908286	     109.336714
	 B(14,17,20)      =         1.940010	     111.154371
	 B(14,17,21)      =         1.938837	     111.087194
	 B(14,17,22)      =         1.943554	     111.357450
	 B(15,12,16)      =         1.856191	     106.351912
	 B(17,14,18)      =         1.921870	     110.115025
	 B(17,14,19)      =         1.908009	     109.320840
	 B(18,14,19)      =         1.859018	     106.513882
	 B(20,17,21)      =         1.879343	     107.678409
	 B(20,17,22)      =         1.879597	     107.692996
	 B(21,17,22)      =         1.879631	     107.694905
	 D(1,2,3,6)       =        -3.141031	    -179.967842
	 D(1,2,3,7)       =         1.019662	      58.422306
	 D(1,2,3,8)       =        -1.016981	     -58.268718
	 D(2,3,6,9)       =        -3.123961	    -178.989768
	 D(2,3,6,10)      =        -1.040546	     -59.618905
	 D(2,3,6,11)      =         0.984441	      56.404339
	 D(3,6,9,12)      =        -2.092799	    -119.908544
	 D(3,6,9,13)      =         0.067240	       3.852582
	 D(4,2,3,6)       =         1.049834	      60.151031
	 D(4,2,3,7)       =        -1.072659	     -61.458821
	 D(4,2,3,8)       =        -3.109301	    -178.149845
	 D(5,2,3,6)       =        -1.045976	     -59.930015
	 D(5,2,3,7)       =         3.114717	     178.460134
	 D(5,2,3,8)       =         1.078074	      61.769109
	 D(6,9,12,14)     =         3.133736	     179.549867
	 D(6,9,12,15)     =        -1.053478	     -60.359857
	 D(6,9,12,16)     =         0.986826	      56.540990
	 D(7,3,6,9)       =        -0.987220	     -56.563568
	 D(7,3,6,10)      =         1.096194	      62.807295
	 D(7,3,6,11)      =         3.121182	     178.830539
	 D(8,3,6,9)       =         1.033747	      59.229318
	 D(8,3,6,10)      =         3.117161	     178.600181
	 D(8,3,6,11)      =        -1.141036	     -65.376575
	 D(9,12,14,17)    =         3.123905	     178.986582
	 D(9,12,14,18)    =         0.987151	      56.559580
	 D(9,12,14,19)    =        -1.033817	     -59.233325
	*D(10,6,9,12)     =         2.094395	     119.999992
	 D(10,6,9,13)     =        -2.028751	    -116.238883
	 D(11,6,9,12)     =         0.054100	       3.099705
	 D(11,6,9,13)     =         2.214139	     126.860831
	 D(12,14,17,20)   =        -1.049744	     -60.145892
	 D(12,14,17,21)   =         3.141120	     179.972947
	 D(12,14,17,22)   =         1.046063	      59.935002
	 D(13,9,12,14)    =         0.973694	      55.788557
	 D(13,9,12,15)    =         3.069665	     175.878833
	 D(13,9,12,16)    =        -1.173216	     -67.220320
	 D(15,12,14,17)   =         1.040510	      59.616817
	 D(15,12,14,18)   =        -1.096245	     -62.810185
	 D(15,12,14,19)   =        -3.117212	    -178.603090
	 D(16,12,14,17)   =        -0.984463	     -56.405565
	 D(16,12,14,18)   =        -3.121217	    -178.832567
	 D(16,12,14,19)   =         1.141001	      65.374528
	 D(18,14,17,20)   =         1.072751	      61.464109
	 D(18,14,17,21)   =        -1.019570	     -58.417052
	 D(18,14,17,22)   =        -3.114627	    -178.454997
	 D(19,14,17,20)   =         3.109400	     178.155497
	 D(19,14,17,21)   =         1.017079	      58.274336
	 D(19,14,17,22)   =        -1.077978	     -61.763609

	Current energy   :      -290.4841561667

	Generating empirical Hessian (Schlegel '84) for each fragment.
	Taking RFO optimization step.
	Going to follow RFO solution 1.
	Using RFO vector 1.
	Norm of target step-size    0.18081
	Projected energy change by RFO approximation:        -0.0005482546

	Back-transformation to cartesian coordinates...
	Successfully converged to displaced geometry.

	Back-transformation to cartesian coordinates to adjust frozen coordinates...
	Successfully converged to displaced geometry.

	--- Internal Coordinate Step in ANG or DEG, aJ/ANG or AJ/DEG ---
	 ---------------------------------------------------------------------------
	   Coordinate                Previous        Force       Change         New 
	   ----------                --------       ------       ------       ------
	    1 R(1,2)          =      1.083563     0.001438     0.000258     1.083821
	    2 R(2,3)          =      1.524681     0.000202     0.000043     1.524724
	    3 R(2,4)          =      1.084914    -0.000960    -0.000173     1.084741
	    4 R(2,5)          =      1.084905    -0.001555    -0.000281     1.084624
	    5 R(3,6)          =      1.521502     0.022277     0.004705     1.526207
	    6 R(3,7)          =      1.084326     0.012822     0.002309     1.086636
	    7 R(3,8)          =      1.087463    -0.001223    -0.000223     1.087240
	    8 R(6,9)          =      1.446975     0.083095     0.013744     1.460719
	    9 R(6,10)         =      1.085895     0.007955     0.001440     1.087335
	   10 R(6,11)         =      1.094113    -0.044868    -0.008346     1.085767
	   11 R(9,12)         =      1.446980     0.017703     0.002928     1.449908
	   12 R(9,13)         =      0.998659    -0.016028    -0.002140     0.996519
	   13 R(12,14)        =      1.521496    -0.001604    -0.000339     1.521157
	   14 R(12,15)        =      1.085899    -0.002247    -0.000407     1.085492
	   15 R(12,16)        =      1.094110     0.000083     0.000015     1.094126
	   16 R(14,17)        =      1.524681     0.000647     0.000138     1.524819
	   17 R(14,18)        =      1.084312     0.000185     0.000033     1.084345
	   18 R(14,19)        =      1.087479     0.000444     0.000081     1.087560
	   19 R(17,20)        =      1.084915     0.000042     0.000008     1.084923
	   20 R(17,21)        =      1.083563     0.000280     0.000050     1.083613
	   21 R(17,22)        =      1.084903     0.000223     0.000040     1.084943
	   22 B(1,2,3)        =    111.086953     0.000046     0.242316   111.329268
	   23 B(1,2,4)        =    107.678421    -0.000015     0.044265   107.722686
	   24 B(1,2,5)        =    107.694846     0.000010     0.028766   107.723612
	   25 B(2,3,6)        =    112.848491     0.000154     0.500624   113.349115
	   26 B(2,3,7)        =    110.114223    -0.000134    -0.889359   109.224864
	   27 B(2,3,8)        =    109.321469     0.000014     0.371086   109.692556
	   28 B(3,2,4)        =    111.154539     0.000010     0.050851   111.205390
	   29 B(3,2,5)        =    111.357629    -0.000071    -0.372417   110.985212
	   30 B(3,6,9)        =    111.504522     0.000576     2.027880   113.532403
	   31 B(3,6,10)       =    109.266438    -0.000358    -1.086632   108.179805
	   32 B(3,6,11)       =    109.337070    -0.000068    -0.801440   108.535630
	   33 B(4,2,5)        =    107.692930     0.000021     0.010985   107.703916
	   34 B(6,3,7)        =    108.663836     0.000007     0.028960   108.692797
	   35 B(6,3,8)        =    109.176584    -0.000088    -0.173047   109.003537
	   36 B(6,9,12)       =    114.352309     0.000453     1.585407   115.937716
	   37 B(6,9,13)       =    109.721554    -0.000074     0.287209   110.008763
	   38 B(7,3,8)        =    106.513659     0.000041     0.141942   106.655601
	   39 B(9,6,10)       =    108.047604     0.000139     2.420897   110.468501
	   40 B(9,6,11)       =    112.160585    -0.000429    -2.797286   109.363299
	   41 B(9,12,14)      =    111.504004     0.000019     0.065499   111.569503
	   42 B(9,12,15)      =    108.047255     0.000015     0.143046   108.190302
	   43 B(9,12,16)      =    112.162597     0.000006     0.097672   112.260269
	   44 B(10,6,11)      =    106.352217     0.000115     0.151305   106.503522
	   45 B(12,9,13)      =    109.721210    -0.000202    -0.584800   109.136410
	   46 B(12,14,17)     =    112.848552     0.000016     0.058769   112.907321
	   47 B(12,14,18)     =    108.663470    -0.000008    -0.039089   108.624382
	   48 B(12,14,19)     =    109.176501    -0.000007    -0.039496   109.137004
	   49 B(14,12,15)     =    109.265911    -0.000030    -0.207527   109.058384
	   50 B(14,12,16)     =    109.336714    -0.000020    -0.130642   109.206072
	   51 B(14,17,20)     =    111.154371    -0.000002    -0.005665   111.148706
	   52 B(14,17,21)     =    111.087194     0.000005     0.026648   111.113842
	   53 B(14,17,22)     =    111.357450    -0.000000     0.001643   111.359093
	   54 B(15,12,16)     =    106.351912     0.000009     0.023551   106.375463
	   55 B(17,14,18)     =    110.115025    -0.000001     0.014399   110.129424
	   56 B(17,14,19)     =    109.320840    -0.000002     0.013117   109.333957
	   57 B(18,14,19)     =    106.513882     0.000002    -0.012469   106.501413
	   58 B(20,17,21)     =    107.678409    -0.000001    -0.009139   107.669270
	   59 B(20,17,22)     =    107.692996     0.000001    -0.004478   107.688518
	   60 B(21,17,22)     =    107.694905    -0.000002    -0.010396   107.684509
	   61 D(1,2,3,6)      =   -179.967842     0.000003    -0.631803  -180.599645
	   62 D(1,2,3,7)      =     58.422306    -0.000002    -0.370071    58.052236
	   63 D(1,2,3,8)      =    -58.268718     0.000003    -0.243978   -58.512697
	   64 D(2,3,6,9)      =   -178.989768    -0.000026     0.451168  -178.538600
	   65 D(2,3,6,10)     =    -59.618905     0.000042     4.068251   -55.550654
	   66 D(2,3,6,11)     =     56.404339     0.000019     3.225068    59.629407
	   67 D(3,6,9,12)     =   -119.908544    -0.000001     1.629486  -118.279057
	   68 D(3,6,9,13)     =      3.852582     0.000001     2.275511     6.128093
	   69 D(4,2,3,6)      =     60.151031    -0.000002    -0.884715    59.266316
	   70 D(4,2,3,7)      =    -61.458821    -0.000006    -0.622983   -62.081803
	   71 D(4,2,3,8)      =   -178.149845    -0.000002    -0.496890  -178.646736
	   72 D(5,2,3,6)      =    -59.930015     0.000002    -0.682912   -60.612927
	   73 D(5,2,3,7)      =    178.460134    -0.000003    -0.421180   178.038954
	   74 D(5,2,3,8)      =     61.769109     0.000002    -0.295088    61.474022
	   75 D(6,9,12,14)    =    179.549867     0.000008    -0.303373   179.246494
	   76 D(6,9,12,15)    =    -60.359857     0.000004    -0.427530   -60.787386
	   77 D(6,9,12,16)    =     56.540990     0.000009    -0.253149    56.287841
	   78 D(7,3,6,9)      =    -56.563568    -0.000040    -0.328613   -56.892181
	   79 D(7,3,6,10)     =     62.807295     0.000028     3.288470    66.095765
	   80 D(7,3,6,11)     =    178.830539     0.000005     2.445287   181.275826
	   81 D(8,3,6,9)      =     59.229318    -0.000039    -0.237899    58.991419
	   82 D(8,3,6,10)     =    178.600181     0.000029     3.379184   181.979364
	   83 D(8,3,6,11)     =    -65.376575     0.000006     2.536001   -62.840574
	   84 D(9,12,14,17)   =    178.986582     0.000000     0.033707   179.020289
	   85 D(9,12,14,18)   =     56.559580    -0.000000     0.004025    56.563605
	   86 D(9,12,14,19)   =    -59.233325     0.000001     0.061719   -59.171607
	   87 *D(10,6,9,12)   =    119.999992     0.000000    -0.000000   119.999992
	   88 D(10,6,9,13)    =   -116.238883     0.000002     0.646025  -115.592858
	   89 D(11,6,9,12)    =      3.099705     0.000004    -0.008673     3.091032
	   90 D(11,6,9,13)    =    126.860831     0.000006     0.637352   127.498182
	   91 D(12,14,17,20)  =    -60.145892     0.000000     0.037884   -60.108008
	   92 D(12,14,17,21)  =    179.972947     0.000000     0.035406   180.008353
	   93 D(12,14,17,22)  =     59.935002     0.000000     0.029486    59.964488
	   94 D(13,9,12,14)   =     55.788557    -0.000010    -1.398291    54.390266
	   95 D(13,9,12,15)   =    175.878833    -0.000014    -1.522448   174.356385
	   96 D(13,9,12,16)   =    -67.220320    -0.000008    -1.348067   -68.568387
	   97 D(15,12,14,17)  =     59.616817    -0.000002    -0.049946    59.566872
	   98 D(15,12,14,18)  =    -62.810185    -0.000003    -0.079627   -62.889812
	   99 D(15,12,14,19)  =   -178.603090    -0.000001    -0.021934  -178.625024
	  100 D(16,12,14,17)  =    -56.405565     0.000002     0.110350   -56.295215
	  101 D(16,12,14,18)  =   -178.832567     0.000001     0.080668  -178.751898
	  102 D(16,12,14,19)  =     65.374528     0.000003     0.138362    65.512890
	  103 D(18,14,17,20)  =     61.464109    -0.000000     0.038539    61.502648
	  104 D(18,14,17,21)  =    -58.417052    -0.000000     0.036061   -58.380990
	  105 D(18,14,17,22)  =   -178.454997    -0.000000     0.030141  -178.424856
	  106 D(19,14,17,20)  =    178.155497     0.000000     0.039434   178.194931
	  107 D(19,14,17,21)  =     58.274336     0.000000     0.036956    58.311293
	  108 D(19,14,17,22)  =    -61.763609     0.000000     0.031036   -61.732573
	 ---------------------------------------------------------------------------
	Successfully symmetrized geometry.

  ==> Convergence Check <==

  Measures of convergence in internal coordinates in au.
  Criteria marked as inactive (o), active & met (*), and active & unmet ( ).
  --------------------------------------------------------------------------------------------- ~
   Step     Total Energy     Delta E     MAX Force     RMS Force      MAX Disp      RMS Disp    ~
  --------------------------------------------------------------------------------------------- ~
    Convergence Criteria    1.00e-06 *    3.00e-04 *             o    1.20e-03 *             o  ~
  --------------------------------------------------------------------------------------------- ~
      1    -290.48415617   -2.90e+02      1.01e-02      1.80e-03 o    7.10e-02      1.74e-02 o  ~
  ---------------------------------------------------------------------------------------------

	Writing optimization data to binary file.
	Structure for next step:
	Cartesian Geometry (in Angstrom)
	    H     4.0911033210  -0.4231171359   1.8104855558
	    C     3.5018891853  -0.6969135511   0.9430001174
	    C     2.1994431308   0.0937063155   0.8852254468
	    H     4.1087673575  -0.5182298376   0.0618456941
	    H     3.3073079002  -1.7624734085   0.9989461233
	    C     1.3390374177  -0.2458807303  -0.3287309500
	    H     2.4264235448   1.1561784358   0.8649775768
	    H     1.6222855049  -0.0844751440   1.7892343871
	    N     0.1060824524   0.5335623136  -0.4061293691
	    H     1.9397995124  -0.0969193774  -1.2227071897
	    H     1.0948896931  -1.3032666698  -0.2938398755
	    C    -1.1283066729  -0.2249248421  -0.3494295361
	    H     0.0960864666   1.2277402741   0.3087603362
	    C    -2.3465027064   0.6833915322  -0.4192782933
	    H    -1.1459442422  -0.9070890164  -1.1936063590
	    H    -1.1927971927  -0.8450524881   0.5496776288
	    C    -3.6628490927  -0.0854999779  -0.3859325765
	    H    -2.2841266952   1.2773992507  -1.3243020239
	    H    -2.3173257174   1.3835631243   0.4124032355
	    H    -3.7366883536  -0.7716506114  -1.2230717842
	    H    -4.5099105513   0.5883454945  -0.4372760069
	    H    -3.7583543580  -0.6660990163   0.5255965340
			--------------------------
			 OPTKING Finished Execution 
			--------------------------

    Structure for next step:
    Molecular point group: c1
    Full point group: C1

    Geometry (in Angstrom), charge = 0, multiplicity = 1:

    H            4.090534601973    -0.423109774037     1.809585173935
    C            3.501320466319    -0.696906189309     0.942099735547
    C            2.198874411859     0.093713677383     0.884325064980
    H            4.108198638516    -0.518222475729     0.060945312214
    H            3.306739181263    -1.762466046667     0.998045741467
    C            1.338468698732    -0.245873368498    -0.329631331833
    H            2.425854825837     1.156185797668     0.864077194994
    H            1.621716785964    -0.084467782204     1.788334005203
    N            0.105513733375     0.533569675406    -0.407029750948
    H            1.939230793429    -0.096912015597    -1.223607571543
    H            1.094320974124    -1.303259307932    -0.294740257402
    C           -1.128875391926    -0.224917480221    -0.350329917960
    H            0.095517747640     1.227747635939     0.307859954340
    C           -2.347071425338     0.683398893985    -0.420178675145
    H           -1.146512961180    -0.907081654615    -1.194506740829
    H           -1.193365911705    -0.845045126289     0.548777246992
    C           -3.663417811697    -0.085492616066    -0.386832958367
    H           -2.284695414212     1.277406612547    -1.325202405788
    H           -2.317894436411     1.383570486177     0.411502853648
    H           -3.737257072604    -0.771643249531    -1.223972166064
    H           -4.510479270248     0.588352856303    -0.438176388765
    H           -3.758923076977    -0.666091654424     0.524696152173

gradient() will perform analytic gradient computation.

*** tstart() called on cx1-27-1-1
*** at Sat Sep 10 17:56:59 2016


         ---------------------------------------------------------
                                   SCF
            by Justin Turney, Rob Parrish, and Andy Simmonett
                              RHF Reference
                        4 Threads,   2000 MiB Core
         ---------------------------------------------------------

  ==> Geometry <==

    Molecular point group: c1
    Full point group: C1

    Geometry (in Angstrom), charge = 0, multiplicity = 1:

       Center              X                  Y                   Z               Mass       
    ------------   -----------------  -----------------  -----------------  -----------------
           H          4.090534601973    -0.423109774037     1.809585173935     1.007825032070
           C          3.501320466319    -0.696906189309     0.942099735547    12.000000000000
           C          2.198874411859     0.093713677383     0.884325064980    12.000000000000
           H          4.108198638516    -0.518222475729     0.060945312214     1.007825032070
           H          3.306739181263    -1.762466046667     0.998045741467     1.007825032070
           C          1.338468698732    -0.245873368498    -0.329631331833    12.000000000000
           H          2.425854825837     1.156185797668     0.864077194994     1.007825032070
           H          1.621716785964    -0.084467782204     1.788334005203     1.007825032070
           N          0.105513733375     0.533569675406    -0.407029750948    14.003074004780
           H          1.939230793429    -0.096912015597    -1.223607571543     1.007825032070
           H          1.094320974124    -1.303259307932    -0.294740257402     1.007825032070
           C         -1.128875391926    -0.224917480221    -0.350329917960    12.000000000000
           H          0.095517747640     1.227747635939     0.307859954340     1.007825032070
           C         -2.347071425338     0.683398893985    -0.420178675145    12.000000000000
           H         -1.146512961180    -0.907081654615    -1.194506740829     1.007825032070
           H         -1.193365911705    -0.845045126289     0.548777246992     1.007825032070
           C         -3.663417811697    -0.085492616066    -0.386832958367    12.000000000000
           H         -2.284695414212     1.277406612547    -1.325202405788     1.007825032070
           H         -2.317894436411     1.383570486177     0.411502853648     1.007825032070
           H         -3.737257072604    -0.771643249531    -1.223972166064     1.007825032070
           H         -4.510479270248     0.588352856303    -0.438176388765     1.007825032070
           H         -3.758923076977    -0.666091654424     0.524696152173     1.007825032070

  Running in c1 symmetry.

  Rotational constants: A =      0.34049  B =      0.02638  C =      0.02617 [cm^-1]
  Rotational constants: A =  10207.66197  B =    790.98977  C =    784.56585 [MHz]
  Nuclear repulsion =  314.350354866884913

  Charge       = 0
  Multiplicity = 1
  Electrons    = 58
  Nalpha       = 29
  Nbeta        = 29

  ==> Algorithm <==

  SCF Algorithm Type is DF.
  DIIS enabled.
  MOM disabled.
  Fractional occupation disabled.
  Guess Type is READ.
  Energy threshold   = 1.00e-08
  Density threshold  = 1.00e-08
  Integral threshold = 0.00e+00

  ==> Primary Basis <==

  Basis Set: CC-PVTZ
    Number of shells: 160
    Number of basis function: 420
    Number of Cartesian functions: 470
    Spherical Harmonics?: true
    Max angular momentum: 3

  ==> Pre-Iterations <==

   -------------------------------------------------------
    Irrep   Nso     Nmo     Nalpha   Nbeta   Ndocc  Nsocc
   -------------------------------------------------------
     A        420     420       0       0       0       0
   -------------------------------------------------------
    Total     420     420      29      29      29       0
   -------------------------------------------------------

  ==> Integral Setup <==

  ==> DFJK: Density-Fitted J/K Matrices <==

    J tasked:                  Yes
    K tasked:                  Yes
    wK tasked:                  No
    OpenMP threads:              4
    Integrals threads:           4
    Memory (MB):              1430
    Algorithm:                Core
    Integral Cache:           NONE
    Schwarz Cutoff:          1E-12
    Fitting Condition:       1E-12

   => Auxiliary Basis Set <=

  Basis Set: 
    Number of shells: 325
    Number of basis function: 1003
    Number of Cartesian functions: 1197
    Spherical Harmonics?: true
    Max angular momentum: 4

  Minimum eigenvalue in the overlap matrix is 4.1211023301E-04.
  Using Symmetric Orthogonalization.
  SCF Guess: Reading in previously saved MOs, projecting if necessary.

  Using orbitals from previous SCF, no projection.
  Recomputing DOCC and SOCC from number of alpha and beta electrons from previous calculation.
              A 
    DOCC [    29 ]

  ==> Iterations <==

                           Total Energy        Delta E     RMS |[F,P]|

   @DF-RHF iter   0:  -290.47662881988833   -2.90477e+02   1.82808e-04 
   @DF-RHF iter   1:  -290.48462861001065   -7.99979e-03   2.94511e-05 
   @DF-RHF iter   2:  -290.48475776256271   -1.29153e-04   9.44963e-06 DIIS
   @DF-RHF iter   3:  -290.48477405982692   -1.62973e-05   3.33037e-06 DIIS
   @DF-RHF iter   4:  -290.48477538777377   -1.32795e-06   6.57906e-07 DIIS
   @DF-RHF iter   5:  -290.48477546600486   -7.82311e-08   2.02217e-07 DIIS
   @DF-RHF iter   6:  -290.48477547395930   -7.95444e-09   5.42920e-08 DIIS
   @DF-RHF iter   7:  -290.48477547447465   -5.15342e-10   1.98476e-08 DIIS
   @DF-RHF iter   8:  -290.48477547454797   -7.33280e-11   5.52281e-09 DIIS

  ==> Post-Iterations <==

    Orbital Energies (a.u.)
    -----------------------

    Doubly Occupied:                                                      

       1A    -15.525503     2A    -11.236636     3A    -11.236550  
       4A    -11.216625     5A    -11.211429     6A    -11.210344  
       7A    -11.207453     8A     -1.201777     9A     -1.060732  
      10A     -1.027827    11A     -0.929284    12A     -0.870130  
      13A     -0.812361    14A     -0.799013    15A     -0.651813  
      16A     -0.644587    17A     -0.615098    18A     -0.609080  
      19A     -0.574743    20A     -0.555833    21A     -0.546083  
      22A     -0.521518    23A     -0.517243    24A     -0.485855  
      25A     -0.483074    26A     -0.475900    27A     -0.470677  
      28A     -0.456293    29A     -0.354612  

    Virtual:                                                              

      30A      0.140580    31A      0.148105    32A      0.159608  
      33A      0.171127    34A      0.182397    35A      0.195163  
      36A      0.198547    37A      0.213677    38A      0.229980  
      39A      0.232265    40A      0.240943    41A      0.248836  
      42A      0.255904    43A      0.269222    44A      0.273894  
      45A      0.302688    46A      0.318694    47A      0.345788  
      48A      0.351401    49A      0.366803    50A      0.384632  
      51A      0.399200    52A      0.404313    53A      0.418710  
      54A      0.443260    55A      0.454672    56A      0.461592  
      57A      0.477551    58A      0.485929    59A      0.503355  
      60A      0.517314    61A      0.547363    62A      0.569493  
      63A      0.575802    64A      0.580031    65A      0.588423  
      66A      0.594634    67A      0.614966    68A      0.620841  
      69A      0.623392    70A      0.640473    71A      0.646956  
      72A      0.653656    73A      0.657999    74A      0.661224  
      75A      0.669939    76A      0.674388    77A      0.680125  
      78A      0.692628    79A      0.699643    80A      0.706075  
      81A      0.710386    82A      0.724974    83A      0.735562  
      84A      0.743231    85A      0.765153    86A      0.789526  
      87A      0.820130    88A      0.844671    89A      0.857986  
      90A      0.872415    91A      0.900275    92A      0.908372  
      93A      0.915123    94A      0.932003    95A      0.954671  
      96A      0.960959    97A      0.984650    98A      0.988927  
      99A      1.000446   100A      1.039521   101A      1.053286  
     102A      1.077444   103A      1.096309   104A      1.100101  
     105A      1.114415   106A      1.134979   107A      1.147453  
     108A      1.173772   109A      1.185520   110A      1.208640  
     111A      1.220860   112A      1.230972   113A      1.242179  
     114A      1.249685   115A      1.265318   116A      1.275556  
     117A      1.283906   118A      1.291685   119A      1.301729  
     120A      1.311777   121A      1.321148   122A      1.333766  
     123A      1.349908   124A      1.354634   125A      1.359195  
     126A      1.371731   127A      1.381025   128A      1.393494  
     129A      1.398899   130A      1.407918   131A      1.421692  
     132A      1.427634   133A      1.438522   134A      1.456878  
     135A      1.468069   136A      1.483339   137A      1.497916  
     138A      1.500677   139A      1.512523   140A      1.527481  
     141A      1.539755   142A      1.552402   143A      1.569095  
     144A      1.572400   145A      1.581934   146A      1.586592  
     147A      1.604615   148A      1.618755   149A      1.629448  
     150A      1.651505   151A      1.655402   152A      1.682300  
     153A      1.690690   154A      1.695998   155A      1.717062  
     156A      1.743460   157A      1.749880   158A      1.778401  
     159A      1.800037   160A      1.813086   161A      1.823102  
     162A      1.831075   163A      1.848951   164A      1.880190  
     165A      1.884484   166A      1.930567   167A      1.946472  
     168A      1.997910   169A      2.061396   170A      2.092041  
     171A      2.154396   172A      2.192026   173A      2.204649  
     174A      2.514639   175A      2.526520   176A      2.583402  
     177A      2.609679   178A      2.614115   179A      2.629779  
     180A      2.656686   181A      2.674016   182A      2.692815  
     183A      2.720616   184A      2.739980   185A      2.748405  
     186A      2.794843   187A      2.808410   188A      2.815620  
     189A      2.821969   190A      2.836793   191A      2.841225  
     192A      2.850083   193A      2.863214   194A      2.869169  
     195A      2.900568   196A      2.919352   197A      2.962269  
     198A      2.977403   199A      2.984392   200A      3.000906  
     201A      3.032307   202A      3.042202   203A      3.053016  
     204A      3.063940   205A      3.081817   206A      3.094384  
     207A      3.116252   208A      3.136392   209A      3.138605  
     210A      3.156564   211A      3.169977   212A      3.178934  
     213A      3.188976   214A      3.197779   215A      3.222292  
     216A      3.230489   217A      3.249253   218A      3.263757  
     219A      3.276165   220A      3.302992   221A      3.331631  
     222A      3.338652   223A      3.344394   224A      3.362254  
     225A      3.364637   226A      3.372904   227A      3.397693  
     228A      3.399192   229A      3.406683   230A      3.412643  
     231A      3.419261   232A      3.425448   233A      3.436914  
     234A      3.448306   235A      3.449332   236A      3.463513  
     237A      3.472365   238A      3.481957   239A      3.497208  
     240A      3.509348   241A      3.520065   242A      3.528286  
     243A      3.545222   244A      3.559280   245A      3.574425  
     246A      3.584612   247A      3.593127   248A      3.597466  
     249A      3.614594   250A      3.641548   251A      3.653905  
     252A      3.668536   253A      3.671201   254A      3.699813  
     255A      3.723957   256A      3.731497   257A      3.756201  
     258A      3.765490   259A      3.789085   260A      3.789896  
     261A      3.804156   262A      3.816291   263A      3.818695  
     264A      3.828999   265A      3.845980   266A      3.857715  
     267A      3.863889   268A      3.873930   269A      3.892711  
     270A      3.912708   271A      3.915210   272A      3.948202  
     273A      3.969674   274A      3.983451   275A      3.994874  
     276A      4.004841   277A      4.010515   278A      4.053091  
     279A      4.065882   280A      4.081978   281A      4.089205  
     282A      4.120812   283A      4.122546   284A      4.131891  
     285A      4.136678   286A      4.148460   287A      4.153705  
     288A      4.162847   289A      4.167161   290A      4.191843  
     291A      4.196678   292A      4.209030   293A      4.224811  
     294A      4.233019   295A      4.247000   296A      4.264247  
     297A      4.276741   298A      4.283723   299A      4.299559  
     300A      4.306018   301A      4.323152   302A      4.343281  
     303A      4.353836   304A      4.364639   305A      4.369905  
     306A      4.379098   307A      4.396300   308A      4.412172  
     309A      4.416286   310A      4.435393   311A      4.438123  
     312A      4.456073   313A      4.463090   314A      4.467790  
     315A      4.490983   316A      4.508851   317A      4.520718  
     318A      4.521393   319A      4.540591   320A      4.553094  
     321A      4.570834   322A      4.587339   323A      4.603127  
     324A      4.620972   325A      4.627234   326A      4.638385  
     327A      4.648677   328A      4.654573   329A      4.667316  
     330A      4.689641   331A      4.713518   332A      4.737311  
     333A      4.742810   334A      4.748854   335A      4.777648  
     336A      4.797743   337A      4.815389   338A      4.825301  
     339A      4.879991   340A      4.902278   341A      4.930081  
     342A      4.967343   343A      4.973555   344A      5.029590  
     345A      5.045484   346A      5.068728   347A      5.102057  
     348A      5.110366   349A      5.118462   350A      5.136940  
     351A      5.141928   352A      5.180540   353A      5.211847  
     354A      5.234605   355A      5.244044   356A      5.255819  
     357A      5.264704   358A      5.266524   359A      5.291415  
     360A      5.314815   361A      5.338027   362A      5.349976  
     363A      5.359285   364A      5.369887   365A      5.388974  
     366A      5.447177   367A      5.449812   368A      5.467512  
     369A      5.513105   370A      5.528288   371A      5.535881  
     372A      5.563024   373A      5.586043   374A      5.593458  
     375A      5.600978   376A      5.651384   377A      5.694711  
     378A      5.728338   379A      5.742280   380A      5.746373  
     381A      5.749559   382A      5.759730   383A      5.768885  
     384A      5.791942   385A      5.798987   386A      5.828241  
     387A      5.831894   388A      5.857609   389A      5.874088  
     390A      5.896678   391A      5.905480   392A      5.921588  
     393A      5.937914   394A      5.945176   395A      5.975032  
     396A      6.005810   397A      6.039879   398A      6.070847  
     399A      6.164290   400A      6.202210   401A      6.263016  
     402A      6.300861   403A      6.319581   404A      6.323764  
     405A      6.329661   406A      6.336938   407A      6.366685  
     408A      6.399282   409A      6.454335   410A      6.468047  
     411A      6.550521   412A      6.571831   413A      7.087292  
     414A     12.431393   415A     13.284605   416A     13.352588  
     417A     13.846640   418A     14.023417   419A     14.240357  
     420A     14.285166  

    Final Occupation by Irrep:
              A 
    DOCC [    29 ]

  Energy converged.

  @DF-RHF Final Energy:  -290.48477547454797

   => Energetics <=

    Nuclear Repulsion Energy =            314.3503548668849135
    One-Electron Energy =               -1014.6541167799206278
    Two-Electron Energy =                 409.8189864384874568
    DFT Exchange-Correlation Energy =       0.0000000000000000
    Empirical Dispersion Energy =           0.0000000000000000
    PCM Polarization Energy =               0.0000000000000000
    EFP Energy =                            0.0000000000000000
    Total Energy =                       -290.4847754745482575


  Saving occupied orbitals to File 180.

*** tstop() called on cx1-27-1-1 at Sat Sep 10 17:57:09 2016
Module time:
	user time   =      33.96 seconds =       0.57 minutes
	system time =       0.62 seconds =       0.01 minutes
	total time  =         10 seconds =       0.17 minutes
Total time:
	user time   =     130.64 seconds =       2.18 minutes
	system time =       2.47 seconds =       0.04 minutes
	total time  =         37 seconds =       0.62 minutes


Properties will be evaluated at   0.000000,   0.000000,   0.000000 Bohr

Properties computed using the SCF density matrix

  Nuclear Dipole Moment: (a.u.)
     X:    -0.2506      Y:    -1.6375      Z:     1.5139

  Electronic Dipole Moment: (a.u.)
     X:     0.2775      Y:     1.5133      Z:    -1.1313

  Dipole Moment: (a.u.)
     X:     0.0268      Y:    -0.1242      Z:     0.3826     Total:     0.4031

  Dipole Moment: (Debye)
     X:     0.0682      Y:    -0.3156      Z:     0.9725     Total:     1.0247


*** tstart() called on cx1-27-1-1
*** at Sat Sep 10 17:57:09 2016


         ------------------------------------------------------------
                                   SCF GRAD                          
                          Rob Parrish, Justin Turney,                
                       Andy Simmonett, and Alex Sokolov              
         ------------------------------------------------------------

  ==> Geometry <==

    Molecular point group: c1
    Full point group: C1

    Geometry (in Angstrom), charge = 0, multiplicity = 1:

       Center              X                  Y                   Z               Mass       
    ------------   -----------------  -----------------  -----------------  -----------------
           H          4.090534601973    -0.423109774037     1.809585173935     1.007825032070
           C          3.501320466319    -0.696906189309     0.942099735547    12.000000000000
           C          2.198874411859     0.093713677383     0.884325064980    12.000000000000
           H          4.108198638516    -0.518222475729     0.060945312214     1.007825032070
           H          3.306739181263    -1.762466046667     0.998045741467     1.007825032070
           C          1.338468698732    -0.245873368498    -0.329631331833    12.000000000000
           H          2.425854825837     1.156185797668     0.864077194994     1.007825032070
           H          1.621716785964    -0.084467782204     1.788334005203     1.007825032070
           N          0.105513733375     0.533569675406    -0.407029750948    14.003074004780
           H          1.939230793429    -0.096912015597    -1.223607571543     1.007825032070
           H          1.094320974124    -1.303259307932    -0.294740257402     1.007825032070
           C         -1.128875391926    -0.224917480221    -0.350329917960    12.000000000000
           H          0.095517747640     1.227747635939     0.307859954340     1.007825032070
           C         -2.347071425338     0.683398893985    -0.420178675145    12.000000000000
           H         -1.146512961180    -0.907081654615    -1.194506740829     1.007825032070
           H         -1.193365911705    -0.845045126289     0.548777246992     1.007825032070
           C         -3.663417811697    -0.085492616066    -0.386832958367    12.000000000000
           H         -2.284695414212     1.277406612547    -1.325202405788     1.007825032070
           H         -2.317894436411     1.383570486177     0.411502853648     1.007825032070
           H         -3.737257072604    -0.771643249531    -1.223972166064     1.007825032070
           H         -4.510479270248     0.588352856303    -0.438176388765     1.007825032070
           H         -3.758923076977    -0.666091654424     0.524696152173     1.007825032070

  Nuclear repulsion =  314.350354866884913

  ==> Basis Set <==

  Basis Set: CC-PVTZ
    Number of shells: 160
    Number of basis function: 420
    Number of Cartesian functions: 470
    Spherical Harmonics?: true
    Max angular momentum: 3

  ==> DFJKGrad: Density-Fitted SCF Gradients <==

    Gradient:                    1
    J tasked:                  Yes
    K tasked:                  Yes
    wK tasked:                  No
    OpenMP threads:              4
    Integrals threads:           4
    Memory (MB):              1430
    Schwarz Cutoff:          0E+00
    Fitting Condition:       1E-12

   => Auxiliary Basis Set <=

  Basis Set: 
    Number of shells: 325
    Number of basis function: 1003
    Number of Cartesian functions: 1197
    Spherical Harmonics?: true
    Max angular momentum: 4


  -Total Gradient:
     Atom            X                  Y                   Z
    ------   -----------------  -----------------  -----------------
       1        0.000480785851    -0.000244682758     0.000106504787
       2        0.000734537936     0.000689320686     0.000901413646
       3        0.001605146904    -0.001669041539    -0.000796113139
       4        0.000062447008    -0.000059947434    -0.000015743342
       5       -0.000293586054     0.000303850068    -0.000001925305
       6        0.000270659773     0.001291610312    -0.001179128794
       7        0.000103200105    -0.000477323609    -0.000324618343
       8       -0.000385130671    -0.000119407260    -0.000046977395
       9       -0.001743063885    -0.000048161816    -0.001458943835
      10        0.002396604994    -0.000453362392     0.000847367248
      11       -0.000174352999     0.000702840699     0.000571007335
      12       -0.001573613128     0.001654888779     0.000967219470
      13       -0.000796383784    -0.000968226180     0.000367870831
      14       -0.000585926291    -0.000724258693    -0.000027888389
      15        0.000078224024     0.000042149398     0.000053827582
      16       -0.000008359305     0.000014173368     0.000054216559
      17       -0.000198110013     0.000241738153    -0.000017639226
      18        0.000053676467    -0.000036030687    -0.000000081441
      19        0.000097524672    -0.000047744028    -0.000001109613
      20       -0.000005845665    -0.000012003240    -0.000003617261
      21       -0.000116777349    -0.000063752336     0.000000204824
      22       -0.000001658588    -0.000016629491     0.000004153800


*** tstop() called on cx1-27-1-1 at Sat Sep 10 17:57:22 2016
Module time:
	user time   =      47.58 seconds =       0.79 minutes
	system time =       0.88 seconds =       0.01 minutes
	total time  =         13 seconds =       0.22 minutes
Total time:
	user time   =     178.33 seconds =       2.97 minutes
	system time =       3.35 seconds =       0.06 minutes
	total time  =         50 seconds =       0.83 minutes

			-----------------------------------------
			 OPTKING 2.0: for geometry optimizations 
			  - R.A. King,  Bethel University        
			-----------------------------------------

	Previous internal coordinate definitions found.
	---Fragment 1 Geometry and Gradient---
	 H           7.7299901348       -0.7995615971        3.4196203929
	 C           6.6165367848       -1.3169618381        1.7803104900
	 C           4.1552704390        0.1770931852        1.6711321853
	 H           7.7633703263       -0.9792985550        0.1151699492
	 H           6.2488314455       -3.3305781467        1.8860331195
	 C           2.5293392780       -0.4646333298       -0.6229129420
	 H           4.5842012590        2.1848745163        1.6328692562
	 H           3.0646005906       -0.1596209754        3.3794615040
	 N           0.1993920593        1.0083005593       -0.7691747572
	 H           3.6646151080       -0.1831371685       -2.3122832043
	 H           2.0679669426       -2.4628031721       -0.5569783668
	 C          -2.1332653289       -0.4250324401       -0.6620276011
	 H           0.1805023839        2.3201067922        0.5817710010
	 C          -4.4353222082        1.2914367491       -0.7940226229
	 H          -2.1665955044       -1.7141359074       -2.2572906041
	 H          -2.2551347494       -1.5969038586        1.0370387048
	 C          -6.9228563744       -0.1615576307       -0.7310083505
	 H          -4.3174486299        2.4139486581       -2.5042696176
	 H          -4.3801856898        2.6145693044        0.7776276963
	 H          -7.0623923554       -1.4581944139       -2.3129721881
	 H          -8.5235705488        1.1118257679       -0.8280333727
	 H          -7.1033351701       -1.2587308063        0.9915320306
	             0.0004807859       -0.0002446828        0.0001065048
	             0.0007345379        0.0006893207        0.0009014136
	             0.0016051469       -0.0016690415       -0.0007961131
	             0.0000624470       -0.0000599474       -0.0000157433
	            -0.0002935861        0.0003038501       -0.0000019253
	             0.0002706598        0.0012916103       -0.0011791288
	             0.0001032001       -0.0004773236       -0.0003246183
	            -0.0003851307       -0.0001194073       -0.0000469774
	            -0.0017430639       -0.0000481618       -0.0014589438
	             0.0023966050       -0.0004533624        0.0008473672
	            -0.0001743530        0.0007028407        0.0005710073
	            -0.0015736131        0.0016548888        0.0009672195
	            -0.0007963838       -0.0009682262        0.0003678708
	            -0.0005859263       -0.0007242587       -0.0000278884
	             0.0000782240        0.0000421494        0.0000538276
	            -0.0000083593        0.0000141734        0.0000542166
	            -0.0001981100        0.0002417382       -0.0000176392
	             0.0000536765       -0.0000360307       -0.0000000814
	             0.0000975247       -0.0000477440       -0.0000011096
	            -0.0000058457       -0.0000120032       -0.0000036173
	            -0.0001167773       -0.0000637523        0.0000002048
	            -0.0000016586       -0.0000166295        0.0000041538

	---Fragment 1 Intrafragment Coordinates---
	 - Coordinate -           - BOHR/RAD -       - ANG/DEG -
	 R(1,2)           =         2.048126	       1.083821
	 R(2,3)           =         2.881311	       1.524724
	 R(2,4)           =         2.049863	       1.084741
	 R(2,5)           =         2.049643	       1.084624
	 R(3,6)           =         2.884113	       1.526207
	 R(3,7)           =         2.053444	       1.086636
	 R(3,8)           =         2.054587	       1.087240
	 R(6,9)           =         2.760359	       1.460719
	 R(6,10)          =         2.054766	       1.087335
	 R(6,11)          =         2.051803	       1.085767
	 R(9,12)          =         2.739930	       1.449908
	 R(9,13)          =         1.883148	       0.996519
	 R(12,14)         =         2.874570	       1.521157
	 R(12,15)         =         2.051283	       1.085492
	 R(12,16)         =         2.067598	       1.094126
	 R(14,17)         =         2.881491	       1.524819
	 R(14,18)         =         2.049115	       1.084345
	 R(14,19)         =         2.055190	       1.087560
	 R(17,20)         =         2.050207	       1.084923
	 R(17,21)         =         2.047732	       1.083613
	 R(17,22)         =         2.050246	       1.084943
	 B(1,2,3)         =         1.943062	     111.329268
	 B(1,2,4)         =         1.880116	     107.722686
	 B(1,2,5)         =         1.880132	     107.723612
	 B(2,3,6)         =         1.978315	     113.349115
	 B(2,3,7)         =         1.906334	     109.224864
	 B(2,3,8)         =         1.914496	     109.692556
	 B(3,2,4)         =         1.940900	     111.205390
	 B(3,2,5)         =         1.937057	     110.985212
	 B(3,6,9)         =         1.981514	     113.532403
	 B(3,6,10)        =         1.888094	     108.179805
	 B(3,6,11)        =         1.894304	     108.535630
	 B(4,2,5)         =         1.879788	     107.703916
	 B(6,3,7)         =         1.897047	     108.692797
	 B(6,3,8)         =         1.902471	     109.003537
	 B(6,9,12)        =         2.023495	     115.937716
	 B(6,9,13)        =         1.920015	     110.008763
	 B(7,3,8)         =         1.861491	     106.655601
	 B(9,6,10)        =         1.928039	     110.468501
	 B(9,6,11)        =         1.908750	     109.363299
	 B(9,12,14)       =         1.947255	     111.569503
	 B(9,12,15)       =         1.888277	     108.190302
	 B(9,12,16)       =         1.959311	     112.260269
	 B(10,6,11)       =         1.858837	     106.503522
	 B(12,9,13)       =         1.904790	     109.136410
	 B(12,14,17)      =         1.970605	     112.907321
	 B(12,14,18)      =         1.895853	     108.624382
	 B(12,14,19)      =         1.904800	     109.137004
	 B(14,12,15)      =         1.903428	     109.058384
	 B(14,12,16)      =         1.906006	     109.206072
	 B(14,17,20)      =         1.939911	     111.148706
	 B(14,17,21)      =         1.939302	     111.113842
	 B(14,17,22)      =         1.943583	     111.359093
	 B(15,12,16)      =         1.856602	     106.375463
	 B(17,14,18)      =         1.922121	     110.129424
	 B(17,14,19)      =         1.908238	     109.333957
	 B(18,14,19)      =         1.858800	     106.501413
	 B(20,17,21)      =         1.879183	     107.669270
	 B(20,17,22)      =         1.879519	     107.688518
	 B(21,17,22)      =         1.879449	     107.684509
	 D(1,2,3,6)       =         3.131127	     179.400355
	 D(1,2,3,7)       =         1.013203	      58.052236
	 D(1,2,3,8)       =        -1.021239	     -58.512697
	 D(2,3,6,9)       =        -3.116086	    -178.538600
	 D(2,3,6,10)      =        -0.969542	     -55.550654
	 D(2,3,6,11)      =         1.040729	      59.629407
	 D(3,6,9,12)      =        -2.064359	    -118.279057
	 D(3,6,9,13)      =         0.106955	       6.128093
	 D(4,2,3,6)       =         1.034392	      59.266316
	 D(4,2,3,7)       =        -1.083532	     -62.081803
	 D(4,2,3,8)       =        -3.117974	    -178.646736
	 D(5,2,3,6)       =        -1.057895	     -60.612927
	 D(5,2,3,7)       =         3.107366	     178.038954
	 D(5,2,3,8)       =         1.072924	      61.474022
	 D(6,9,12,14)     =         3.128441	     179.246494
	 D(6,9,12,15)     =        -1.060940	     -60.787386
	 D(6,9,12,16)     =         0.982408	      56.287841
	 D(7,3,6,9)       =        -0.992956	     -56.892181
	 D(7,3,6,10)      =         1.153589	      66.095765
	 D(7,3,6,11)      =        -3.119325	    -178.724174
	 D(8,3,6,9)       =         1.029594	      58.991419
	 D(8,3,6,10)      =        -3.107046	    -178.020636
	 D(8,3,6,11)      =        -1.096775	     -62.840574
	 D(9,12,14,17)    =         3.124493	     179.020289
	 D(9,12,14,18)    =         0.987221	      56.563605
	 D(9,12,14,19)    =        -1.032739	     -59.171607
	*D(10,6,9,12)     =         2.094395	     119.999992
	 D(10,6,9,13)     =        -2.017476	    -115.592858
	 D(11,6,9,12)     =         0.053949	       3.091032
	 D(11,6,9,13)     =         2.225263	     127.498182
	 D(12,14,17,20)   =        -1.049083	     -60.108008
	 D(12,14,17,21)   =        -3.141447	    -179.991647
	 D(12,14,17,22)   =         1.046578	      59.964488
	 D(13,9,12,14)    =         0.949289	      54.390266
	 D(13,9,12,15)    =         3.043093	     174.356385
	 D(13,9,12,16)    =        -1.196744	     -68.568387
	 D(15,12,14,17)   =         1.039638	      59.566872
	 D(15,12,14,18)   =        -1.097634	     -62.889812
[...]
	 B(17,14,18)      =         1.921918	     110.117782
	 B(17,14,19)      =         1.908003	     109.320493
	 B(18,14,19)      =         1.859241	     106.526691
	 B(20,17,21)      =         1.879349	     107.678770
	 B(20,17,22)      =         1.879834	     107.706529
	 B(21,17,22)      =         1.879573	     107.691589
	 D(1,2,3,6)       =         3.135011	     179.622885
	 D(1,2,3,7)       =         1.016280	      58.228540
	 D(1,2,3,8)       =        -1.018746	     -58.369867
	 D(2,3,6,9)       =        -3.102542	    -177.762541
	 D(2,3,6,10)      =        -0.970400	     -55.599815
	 D(2,3,6,11)      =         1.047269	      60.004085
	 D(3,6,9,12)      =        -2.065282	    -118.331969
	 D(3,6,9,13)      =         0.127621	       7.312157
	 D(4,2,3,6)       =         1.040508	      59.616694
	 D(4,2,3,7)       =        -1.078223	     -61.777651
	 D(4,2,3,8)       =        -3.113250	    -178.376059
	 D(5,2,3,6)       =        -1.053500	     -60.361085
	 D(5,2,3,7)       =         3.110955	     178.244571
	 D(5,2,3,8)       =         1.075929	      61.646163
	 D(6,9,12,14)     =         3.117820	     178.637924
	 D(6,9,12,15)     =        -1.072527	     -61.451279
	 D(6,9,12,16)     =         0.973256	      55.763453
	 D(7,3,6,9)       =        -0.978947	     -56.089541
	 D(7,3,6,10)      =         1.153195	      66.073185
	 D(7,3,6,11)      =        -3.112322	    -178.322915
	 D(8,3,6,9)       =         1.045705	      59.914479
	 D(8,3,6,10)      =        -3.105339	    -177.922795
	 D(8,3,6,11)      =        -1.087670	     -62.318895
	 D(9,12,14,17)    =         3.122209	     178.889385
	 D(9,12,14,18)    =         0.985459	      56.462626
	 D(9,12,14,19)    =        -1.035556	     -59.332967
	*D(10,6,9,12)     =         2.094395	     119.999992
	 D(10,6,9,13)     =        -1.995887	    -114.355883
	 D(11,6,9,12)     =         0.060231	       3.451006
	 D(11,6,9,13)     =         2.253135	     129.095132
	 D(12,14,17,20)   =        -1.049207	     -60.115105
	 D(12,14,17,21)   =        -3.141405	    -179.989262
	 D(12,14,17,22)   =         1.046890	      59.982396
	 D(13,9,12,14)    =         0.921055	      52.772559
	 D(13,9,12,15)    =         3.013893	     172.683356
	 D(13,9,12,16)    =        -1.223509	     -70.101912
	 D(15,12,14,17)   =         1.037830	      59.463268
	 D(15,12,14,18)   =        -1.098920	     -62.963491
	 D(15,12,14,19)   =        -3.119935	    -178.759084
	 D(16,12,14,17)   =        -0.985350	     -56.456375
	 D(16,12,14,18)   =        -3.122100	    -178.883134
	 D(16,12,14,19)   =         1.140071	      65.321273
	 D(18,14,17,20)   =         1.073134	      61.486047
	 D(18,14,17,21)   =        -1.019065	     -58.388109
	 D(18,14,17,22)   =        -3.113955	    -178.416451
	 D(19,14,17,20)   =         3.110078	     178.194334
	 D(19,14,17,21)   =         1.017879	      58.320177
	 D(19,14,17,22)   =        -1.077011	     -61.708165

	Current energy   :      -290.4848999431

	Energy change for the previous step:
		Projected    :        -0.0000004853
		Actual       :        -0.0000001582

	Performing BFGS update.
	Previous computed or guess Hessian on step 1.
	Steps to be used in Hessian update: 5 4
	Taking RFO optimization step.
	Going to follow RFO solution 1.
	Using RFO vector 1.
	Norm of target step-size    0.00079
	Projected energy change by RFO approximation:         0.0000000068

	Back-transformation to cartesian coordinates...
	Successfully converged to displaced geometry.

	Back-transformation to cartesian coordinates to adjust frozen coordinates...
	Successfully converged to displaced geometry.

	--- Internal Coordinate Step in ANG or DEG, aJ/ANG or AJ/DEG ---
	 ---------------------------------------------------------------------------
	   Coordinate                Previous        Force       Change         New 
	   ----------                --------       ------       ------       ------
	    1 R(1,2)          =      1.083585    -0.000015    -0.000005     1.083580
	    2 R(2,3)          =      1.524446    -0.000058    -0.000019     1.524427
	    3 R(2,4)          =      1.084628     0.000005     0.000002     1.084630
	    4 R(2,5)          =      1.084874     0.000004     0.000002     1.084876
	    5 R(3,6)          =      1.524625     0.000130     0.000033     1.524659
	    6 R(3,7)          =      1.087127     0.000066     0.000013     1.087140
	    7 R(3,8)          =      1.086846     0.000052     0.000011     1.086856
	    8 R(6,9)          =      1.456162     0.000114    -0.000002     1.456160
	    9 R(6,10)         =      1.086743     0.000079     0.000017     1.086759
	   10 R(6,11)         =      1.086438    -0.000069    -0.000009     1.086429
	   11 R(9,12)         =      1.447436     0.000064     0.000003     1.447440
	   12 R(9,13)         =      0.996463     0.000024     0.000003     0.996466
	   13 R(12,14)        =      1.521188     0.000084     0.000013     1.521201
	   14 R(12,15)        =      1.085629    -0.000040    -0.000004     1.085624
	   15 R(12,16)        =      1.094158     0.000050     0.000012     1.094170
	   16 R(14,17)        =      1.524671     0.000080     0.000012     1.524683
	   17 R(14,18)        =      1.084373    -0.000006     0.000000     1.084373
	   18 R(14,19)        =      1.087573    -0.000012    -0.000001     1.087572
	   19 R(17,20)        =      1.084891    -0.000013    -0.000002     1.084888
	   20 R(17,21)        =      1.083585     0.000024     0.000003     1.083588
	   21 R(17,22)        =      1.084910    -0.000011    -0.000002     1.084909
	   22 B(1,2,3)        =    111.167113    -0.000001    -0.005137   111.161976
	   23 B(1,2,4)        =    107.743696    -0.000000    -0.000830   107.742865
	   24 B(1,2,5)        =    107.730187     0.000000     0.000995   107.731182
	   25 B(2,3,6)        =    112.935929     0.000001     0.001882   112.937811
	   26 B(2,3,7)        =    109.362350     0.000000     0.000814   109.363163
	   27 B(2,3,8)        =    109.713822    -0.000000     0.000425   109.714247
	   28 B(3,2,4)        =    111.138023     0.000001     0.003379   111.141402
	   29 B(3,2,5)        =    111.178166     0.000000     0.001762   111.179928
	   30 B(3,6,9)        =    113.168989     0.000001     0.004315   113.173304
	   31 B(3,6,10)       =    108.787106    -0.000001    -0.004030   108.783076
	   32 B(3,6,11)       =    108.872503    -0.000001    -0.002369   108.870134
	   33 B(4,2,5)        =    107.715369    -0.000000    -0.000168   107.715201
	   34 B(6,3,7)        =    108.869012    -0.000001    -0.003316   108.865696
	   35 B(6,3,8)        =    109.151003    -0.000000    -0.000887   109.150116
	   36 B(6,9,12)       =    115.772687     0.000002     0.006457   115.779144
	   37 B(6,9,13)       =    110.356990     0.000000     0.006670   110.363660
	   38 B(7,3,8)        =    106.607667     0.000000     0.001011   106.608678
	   39 B(9,6,10)       =    109.670408     0.000000     0.001948   109.672357
	   40 B(9,6,11)       =    109.677542     0.000000     0.003385   109.680927
	   41 B(9,12,14)      =    111.333067     0.000001     0.001930   111.334997
	   42 B(9,12,15)      =    108.271009    -0.000001    -0.002925   108.268085
	   43 B(9,12,16)      =    112.355948    -0.000000     0.001113   112.357061
	   44 B(10,6,11)      =    106.436749    -0.000000    -0.003832   106.432917
	   45 B(12,9,13)      =    109.922627    -0.000001    -0.002252   109.920376
	   46 B(12,14,17)     =    112.856482     0.000000     0.000417   112.856899
	   47 B(12,14,18)     =    108.650792     0.000000     0.001666   108.652458
	   48 B(12,14,19)     =    109.166212    -0.000000     0.000726   109.166938
	   49 B(14,12,15)     =    109.087681    -0.000000    -0.000364   109.087316
	   50 B(14,12,16)     =    109.222393    -0.000000     0.001704   109.224097
	   51 B(14,17,20)     =    111.152383    -0.000000    -0.001000   111.151383
	   52 B(14,17,21)     =    111.078007     0.000001     0.002537   111.080543
	   53 B(14,17,22)     =    111.358633     0.000000     0.000181   111.358813
	   54 B(15,12,16)     =    106.402457     0.000000    -0.001723   106.400734
	   55 B(17,14,18)     =    110.117782    -0.000000    -0.000202   110.117580
	   56 B(17,14,19)     =    109.320493    -0.000000    -0.000627   109.319866
	   57 B(18,14,19)     =    106.526691    -0.000000    -0.002115   106.524576
	   58 B(20,17,21)     =    107.678770    -0.000000    -0.000403   107.678367
	   59 B(20,17,22)     =    107.706529    -0.000000    -0.000855   107.705673
	   60 B(21,17,22)     =    107.691589    -0.000000    -0.000561   107.691028
	   61 D(1,2,3,6)      =    179.622885    -0.000000     0.001350   179.624236
	   62 D(1,2,3,7)      =     58.228540     0.000000     0.003743    58.232283
	   63 D(1,2,3,8)      =    -58.369867    -0.000000     0.001811   -58.368057
	   64 D(2,3,6,9)      =   -177.762541     0.000000     0.010212  -177.752329
	   65 D(2,3,6,10)     =    -55.599815     0.000000     0.012698   -55.587118
	   66 D(2,3,6,11)     =     60.004085    -0.000000     0.004682    60.008767
	   67 D(3,6,9,12)     =   -118.331969    -0.000000    -0.000818  -118.332787
	   68 D(3,6,9,13)     =      7.312157    -0.000000     0.007020     7.319177
	   69 D(4,2,3,6)      =     59.616694    -0.000000     0.003578    59.620271
	   70 D(4,2,3,7)      =    -61.777651     0.000000     0.005970   -61.771681
	   71 D(4,2,3,8)      =   -178.376059     0.000000     0.004038  -178.372021
	   72 D(5,2,3,6)      =    -60.361085    -0.000000     0.000344   -60.360741
	   73 D(5,2,3,7)      =    178.244571     0.000000     0.002737   178.247307
	   74 D(5,2,3,8)      =     61.646163    -0.000000     0.000804    61.646967
	   75 D(6,9,12,14)    =    178.637924     0.000000     0.014142   178.652066
	   76 D(6,9,12,15)    =    -61.451279     0.000000     0.012989   -61.438290
	   77 D(6,9,12,16)    =     55.763453     0.000000     0.009672    55.773125
	   78 D(7,3,6,9)      =    -56.089541     0.000000     0.010146   -56.079395
	   79 D(7,3,6,10)     =     66.073185     0.000000     0.012632    66.085816
	   80 D(7,3,6,11)     =   -178.322915    -0.000000     0.004616  -178.318299
	   81 D(8,3,6,9)      =     59.914479    -0.000000     0.009030    59.923509
	   82 D(8,3,6,10)     =   -177.922795     0.000000     0.011516  -177.911280
	   83 D(8,3,6,11)     =    -62.318895    -0.000000     0.003500   -62.315395
	   84 D(9,12,14,17)   =    178.889385    -0.000000     0.002065   178.891450
	   85 D(9,12,14,18)   =     56.462626    -0.000000     0.000855    56.463481
	   86 D(9,12,14,19)   =    -59.332967    -0.000000     0.002062   -59.330906
	   87 *D(10,6,9,12)   =    119.999992     0.000000    -0.000000   119.999992
	   88 D(10,6,9,13)    =   -114.355883    -0.000000     0.007838  -114.348045
	   89 D(11,6,9,12)    =      3.451006    -0.000000     0.001549     3.452555
	   90 D(11,6,9,13)    =    129.095132    -0.000000     0.009387   129.104519
	   91 D(12,14,17,20)  =    -60.115105     0.000000     0.000336   -60.114769
	   92 D(12,14,17,21)  =   -179.989262    -0.000000    -0.000181  -179.989443
	   93 D(12,14,17,22)  =     59.982396    -0.000000    -0.001303    59.981093
	   94 D(13,9,12,14)   =     52.772559    -0.000000     0.001817    52.774376
	   95 D(13,9,12,15)   =    172.683356    -0.000000     0.000664   172.684020
	   96 D(13,9,12,16)   =    -70.101912    -0.000000    -0.002654   -70.104565
	   97 D(15,12,14,17)  =     59.463268     0.000000     0.004730    59.467998
	   98 D(15,12,14,18)  =    -62.963491     0.000000     0.003519   -62.959972
	   99 D(15,12,14,19)  =   -178.759084     0.000000     0.004726  -178.754358
	  100 D(16,12,14,17)  =    -56.456375     0.000000     0.006048   -56.450327
	  101 D(16,12,14,18)  =   -178.883134     0.000000     0.004837  -178.878297
	  102 D(16,12,14,19)  =     65.321273     0.000000     0.006044    65.327317
	  103 D(18,14,17,20)  =     61.486047     0.000000     0.002621    61.488668
	  104 D(18,14,17,21)  =    -58.388109     0.000000     0.002103   -58.386006
	  105 D(18,14,17,22)  =   -178.416451     0.000000     0.000981  -178.415470
	  106 D(19,14,17,20)  =    178.194334    -0.000000    -0.000425   178.193909
	  107 D(19,14,17,21)  =     58.320177    -0.000000    -0.000942    58.319235
	  108 D(19,14,17,22)  =    -61.708165    -0.000000    -0.002064   -61.710228
	 ---------------------------------------------------------------------------
	Successfully symmetrized geometry.

  ==> Convergence Check <==

  Measures of convergence in internal coordinates in au.
  Criteria marked as inactive (o), active & met (*), and active & unmet ( ).
  ---------------------------------------------------------------------------------------------
   Step     Total Energy     Delta E     MAX Force     RMS Force      MAX Disp      RMS Disp   
  ---------------------------------------------------------------------------------------------
    Convergence Criteria    1.00e-06 *    3.00e-04 *             o    1.20e-03 *             o
  ---------------------------------------------------------------------------------------------
      6    -290.48489994   -1.58e-07 *    2.20e-05 *    5.69e-06 o    2.47e-04 *    7.58e-05 o  ~
  ---------------------------------------------------------------------------------------------


  **** Optimization is complete! (in 6 steps) ****

  ==> Optimization Summary <==

  Measures of convergence in internal coordinates in au.
  --------------------------------------------------------------------------------------------------------------- ~
   Step         Total Energy             Delta E       MAX Force       RMS Force        MAX Disp        RMS Disp  ~
  --------------------------------------------------------------------------------------------------------------- ~
      1    -290.484156166711   -290.484156166711      0.01008595      0.00180011      0.07100437      0.01741390  ~
      2    -290.484775474548     -0.000619307837      0.00407438      0.00073799      0.02972161      0.00753762  ~
      3    -290.484891743009     -0.000116268461      0.00044367      0.00010066      0.01966899      0.00625908  ~
      4    -290.484898162833     -0.000006419824      0.00034271      0.00005006      0.00635779      0.00232345  ~
      5    -290.484899784837     -0.000001622004      0.00012074      0.00002301      0.00133453      0.00036128  ~
      6    -290.484899943060     -0.000000158223      0.00002197      0.00000569      0.00024683      0.00007578  ~
  --------------------------------------------------------------------------------------------------------------- ~

	Writing optimization data to binary file.
	Final energy is   -290.4848999430602
	Final (previous) structure:
	Cartesian Geometry (in Angstrom)
	    H     4.0801585214  -0.4292554854   1.8048467132
	    C     3.4933090865  -0.7003855067   0.9352190988
	    C     2.1880782804   0.0856134186   0.8850764757
	    H     4.0985703180  -0.5100119449   0.0555403987
	    H     3.3063513223  -1.7679789821   0.9825679431
	    C     1.3336134237  -0.2584636786  -0.3298241038
	    H     2.4086793628   1.1500116095   0.8696855648
	    H     1.6136656145  -0.0995390579   1.7889582800
	    N     0.1098442281   0.5265827908  -0.4104357406
	    H     1.9255799300  -0.1064752030  -1.2284255609
	    H     1.0882193793  -1.3163658171  -0.2986345947
	    C    -1.1253971222  -0.2257168241  -0.3530284822
	    H     0.1073139332   1.2373236671   0.2879764148
	    C    -2.3362372575   0.6932130261  -0.4117429592
	    H    -1.1516498819  -0.9022253729  -1.2016959686
	    H    -1.1907009091  -0.8508727785   0.5425705439
	    C    -3.6580133534  -0.0661103821  -0.3807826830
	    H    -2.2722620542   1.2940376037  -1.3121773983
	    H    -2.2995946953   1.3860821107   0.4257560033
	    H    -3.7395253600  -0.7446456256  -1.2233581589
	    H    -4.4997569557   0.6148821880  -0.4240639290
	    H    -3.7552494884  -0.6532561709   0.5263199388
	Saving final (previous) structure.
			--------------------------
			 OPTKING Finished Execution 
			--------------------------

    Final optimized geometry and variables:
    Molecular point group: c1
    Full point group: C1

    Geometry (in Angstrom), charge = 0, multiplicity = 1:

    H            4.080158521354    -0.429255485429     1.804846713209
    C            3.493309086465    -0.700385506694     0.935219098754
    C            2.188078280378     0.085613418618     0.885076475728
    H            4.098570318045    -0.510011944850     0.055540398680
    H            3.306351322326    -1.767978982076     0.982567943099
    C            1.333613423707    -0.258463678629    -0.329824103782
    H            2.408679362834     1.150011609522     0.869685564834
    H            1.613665614539    -0.099539057906     1.788958279958
    N            0.109844228117     0.526582790803    -0.410435740594
    H            1.925579929966    -0.106475203048    -1.228425560917
    H            1.088219379350    -1.316365817134    -0.298634594705
    C           -1.125397122195    -0.225716824111    -0.353028482174
    H            0.107313933153     1.237323667087     0.287976414800
    C           -2.336237257480     0.693213026100    -0.411742959238
    H           -1.151649881905    -0.902225372887    -1.201695968590
    H           -1.190700909076    -0.850872778522     0.542570543852
    C           -3.658013353437    -0.066110382106    -0.380782682999
    H           -2.272262054206     1.294037603681    -1.312177398269
    H           -2.299594695305     1.386082110656     0.425756003293
    H           -3.739525360016    -0.744645625611    -1.223358158877
    H           -4.499756955719     0.614882187986    -0.424063929020
    H           -3.755249488407    -0.653256170949     0.526319938819

	Cleaning optimization helper files.


Properties will be evaluated at   0.000000,   0.000000,   0.000000 Bohr

Properties computed using the  density matrix

  Nuclear Dipole Moment: (a.u.)
     X:    -0.2630      Y:    -1.5936      Z:     1.4973

  Electronic Dipole Moment: (a.u.)
     X:     0.2886      Y:     1.4814      Z:    -1.1201

  Dipole Moment: (a.u.)
     X:     0.0256      Y:    -0.1122      Z:     0.3772     Total:     0.3944

  Dipole Moment: (Debye)
     X:     0.0650      Y:    -0.2852      Z:     0.9587     Total:     1.0024

  Quadrupole Moment: (Debye Ang)
    XX:   -47.2275     YY:   -47.7264     ZZ:   -48.2778
    XY:    -0.1048     XZ:     0.3524     YZ:     1.6301

  Traceless Quadrupole Moment: (Debye Ang)
    XX:     0.5164     YY:     0.0175     ZZ:    -0.5339
    XY:    -0.1048     XZ:     0.3524     YZ:     1.6301

  Mulliken Charges: (a.u.)
   Center  Symbol    Alpha    Beta     Spin     Total
       1     H     0.44779  0.44779  0.00000  0.10441
       2     C     3.15261  3.15261  0.00000 -0.30523
       3     C     3.09071  3.09071  0.00000 -0.18143
       4     H     0.45392  0.45392  0.00000  0.09215
       5     H     0.45454  0.45454  0.00000  0.09093
       6     C     3.02474  3.02474  0.00000 -0.04948
       7     H     0.45442  0.45442  0.00000  0.09116
       8     H     0.45408  0.45408  0.00000  0.09184
       9     N     3.64405  3.64405  0.00000 -0.28809
      10     H     0.45553  0.45553  0.00000  0.08893
      11     H     0.46456  0.46456  0.00000  0.07088
      12     C     3.02067  3.02067  0.00000 -0.04134
      13     H     0.44408  0.44408  0.00000  0.11183
      14     C     3.08263  3.08263  0.00000 -0.16526
      15     H     0.45847  0.45847  0.00000  0.08306
      16     H     0.47656  0.47656  0.00000  0.04687
      17     C     3.15308  3.15308  0.00000 -0.30615
      18     H     0.44896  0.44896  0.00000  0.10208
      19     H     0.45987  0.45987  0.00000  0.08025
      20     H     0.45473  0.45473  0.00000  0.09054
      21     H     0.44775  0.44775  0.00000  0.10449
      22     H     0.45622  0.45622  0.00000  0.08755

   Total alpha = 29.00000, Total beta = 29.00000, Total charge = -0.00000


*** Psi4 exiting successfully. Buy a developer a beer!
