    -----------------------------------------------------------------------
          Psi4: An Open-Source Ab Initio Electronic Structure Package
                              Psi4 (no tag) Driver

                          Git: Rev {detached?}  

    J. M. Turney, A. C. Simmonett, R. M. Parrish, E. G. Hohenstein,
    F. A. Evangelista, J. T. Fermann, B. J. Mintz, L. A. Burns, J. J. Wilke,
    M. L. Abrams, N. J. Russ, M. L. Leininger, C. L. Janssen, E. T. Seidl,
    W. D. Allen, H. F. Schaefer, R. A. King, E. F. Valeev, C. D. Sherrill,
    and T. D. Crawford, WIREs Comput. Mol. Sci. 2, 556-565 (2012)
    (doi: 10.1002/wcms.93)

                         Additional Contributions by
    A. E. DePrince, M. Saitow, U. Bozkaya, A. Yu. Sokolov
    -----------------------------------------------------------------------


    Psi4 started on: Thu Sep  1 22:06:13 2016

    Process ID:  30332
    PSI4DATADIR: /export131/home/mjharvey/miniconda3/share
    Memory level set to 256.000 MB

  ==> Input File <==

--------------------------------------------------------------------------
set {
	reference rhf
	basis 6-31G*
}


set_num_threads( 1 )
memory 2 gb

molecule MOL {
0 1

H	 2.176868	 -0.646004	 -0.217325
O	 1.337496	 -0.537251	 0.205931
C	 0.702312	 0.627605	 -0.264544
C	 -0.714990	 0.596302	 0.266387
H	 0.682322	 0.642550	 -1.350929
H	 1.215941	 1.520383	 0.085680
O	 -1.405996	 -0.526611	 -0.195820
H	 -1.257453	 1.468809	 -0.075599
H	 -0.688972	 0.618407	 1.353696
H	 -1.424473	 -0.484463	 -1.143393

	symmetry c1
}
set optking {
	frozen_dihedral = ("
		5 3 4 7
	")
}

ee = energy('scf')
oeprop('DIPOLE', 'QUADRUPOLE', 'MULLIKEN_CHARGES')
f=open( 'psi4out.xyz', 'w' )
f.write( "10  " )
f.write( str(ee) + "\n" )
f.write( MOL.save_string_xyz() )
f.close()
--------------------------------------------------------------------------

  Memory set to   2.000 GiB by Python script.

*** tstart() called on cx1-3-4-1.cx1.hpc.ic.ac.uk
*** at Thu Sep  1 22:06:13 2016


         ---------------------------------------------------------
                                   SCF
            by Justin Turney, Rob Parrish, and Andy Simmonett
                              RHF Reference
                        1 Threads,   2000 MiB Core
         ---------------------------------------------------------

  ==> Geometry <==

    Molecular point group: c1
    Full point group: C1

    Geometry (in Angstrom), charge = 0, multiplicity = 1:

       Center              X                  Y                   Z               Mass       
    ------------   -----------------  -----------------  -----------------  -----------------
           H          2.185540984165    -0.659134851765    -0.198391448726     1.007825032070
           O          1.346168984165    -0.550381851765     0.224864551274    15.994914619560
           C          0.710984984165     0.614474148235    -0.245610448726    12.000000000000
           C         -0.706317015835     0.583171148235     0.285320551274    12.000000000000
           H          0.690994984165     0.629419148235    -1.331995448726     1.007825032070
           H          1.224613984165     1.507252148235     0.104613551274     1.007825032070
           O         -1.397323015835    -0.539741851765    -0.176886448726    15.994914619560
           H         -1.248780015835     1.455678148235    -0.056665448726     1.007825032070
           H         -0.680299015835     0.605276148235     1.372629551274     1.007825032070
           H         -1.415800015835    -0.497593851765    -1.124459448726     1.007825032070

  Running in c1 symmetry.

  Rotational constants: A =      0.52957  B =      0.18496  C =      0.15705 [cm^-1]
  Rotational constants: A =  15875.99730  B =   5544.89963  C =   4708.35129 [MHz]
  Nuclear repulsion =  134.205768707096468

  Charge       = 0
  Multiplicity = 1
  Electrons    = 34
  Nalpha       = 17
  Nbeta        = 17

  ==> Algorithm <==

  SCF Algorithm Type is DF.
  DIIS enabled.
  MOM disabled.
  Fractional occupation disabled.
  Guess Type is CORE.
  Energy threshold   = 1.00e-06
  Density threshold  = 1.00e-06
  Integral threshold = 0.00e+00

  ==> Primary Basis <==

  Basis Set: 6-31G*
    Number of shells: 36
    Number of basis function: 72
    Number of Cartesian functions: 72
    Spherical Harmonics?: false
    Max angular momentum: 2

  ==> Pre-Iterations <==

   -------------------------------------------------------
    Irrep   Nso     Nmo     Nalpha   Nbeta   Ndocc  Nsocc
   -------------------------------------------------------
     A         72      72       0       0       0       0
   -------------------------------------------------------
    Total      72      72      17      17      17       0
   -------------------------------------------------------

 OEINTS: Overlap, kinetic, potential, dipole, and quadrupole integrals
         stored in file 35.

  ==> Integral Setup <==

  ==> DFJK: Density-Fitted J/K Matrices <==

    J tasked:                  Yes
    K tasked:                  Yes
    wK tasked:                  No
    OpenMP threads:              1
    Integrals threads:           1
    Memory (MB):              1430
    Algorithm:                Core
    Integral Cache:           NONE
    Schwarz Cutoff:          1E-12
    Fitting Condition:       1E-12

   => Auxiliary Basis Set <=

  Basis Set: 
    Number of shells: 150
    Number of basis function: 474
    Number of Cartesian functions: 474
    Spherical Harmonics?: false
    Max angular momentum: 3

  Minimum eigenvalue in the overlap matrix is 5.0088902565E-03.
  Using Symmetric Orthogonalization.
  SCF Guess: Core (One-Electron) Hamiltonian.

  ==> Iterations <==

                           Total Energy        Delta E     RMS |[F,P]|

   @DF-RHF iter   1:  -200.60414605169473   -2.00604e+02   8.41858e-02 
   @DF-RHF iter   2:  -191.95874168079007    8.64540e+00   7.70934e-02 DIIS
   @DF-RHF iter   3:  -224.07804464934503   -3.21193e+01   3.94688e-02 DIIS
   @DF-RHF iter   4:  -228.39881190059828   -4.32077e+00   1.38438e-02 DIIS
   @DF-RHF iter   5:  -228.85556087545410   -4.56749e-01   5.12652e-03 DIIS
   @DF-RHF iter   6:  -228.91156965767607   -5.60088e-02   1.21765e-03 DIIS
   @DF-RHF iter   7:  -228.91578021319015   -4.21056e-03   4.42430e-04 DIIS
   @DF-RHF iter   8:  -228.91635697218624   -5.76759e-04   1.10265e-04 DIIS
   @DF-RHF iter   9:  -228.91639893233298   -4.19601e-05   3.99544e-05 DIIS
   @DF-RHF iter  10:  -228.91640446029635   -5.52796e-06   9.71835e-06 DIIS
   @DF-RHF iter  11:  -228.91640484856555   -3.88269e-07   1.68380e-06 DIIS
   @DF-RHF iter  12:  -228.91640486463285   -1.60673e-08   6.07944e-07 DIIS

  ==> Post-Iterations <==

    Orbital Energies (a.u.)
    -----------------------

    Doubly Occupied:                                                      

       1A    -20.556827     2A    -20.551291     3A    -11.276546  
       4A    -11.270003     5A     -1.374550     6A     -1.350118  
       7A     -1.001487     8A     -0.844200     9A     -0.719092  
      10A     -0.671158    11A     -0.660542    12A     -0.597438  
      13A     -0.571331    14A     -0.536572    15A     -0.476595  
      16A     -0.447458    17A     -0.435168  

    Virtual:                                                              

      18A      0.212342    19A      0.247405    20A      0.280084  
      21A      0.300657    22A      0.317286    23A      0.337842  
      24A      0.392842    25A      0.415720    26A      0.434079  
      27A      0.753502    28A      0.807127    29A      0.808183  
      30A      0.828663    31A      0.904520    32A      0.911646  
      33A      1.066830    34A      1.075160    35A      1.117396  
      36A      1.144709    37A      1.169266    38A      1.192221  
      39A      1.207099    40A      1.240307    41A      1.293620  
      42A      1.300509    43A      1.324042    44A      1.408812  
      45A      1.452817    46A      1.638614    47A      1.678651  
      48A      1.733227    49A      1.845583    50A      1.879267  
      51A      1.991130    52A      2.034467    53A      2.053081  
      54A      2.151181    55A      2.243590    56A      2.370356  
      57A      2.427214    58A      2.467464    59A      2.495256  
      60A      2.638971    61A      2.697613    62A      2.747891  
      63A      2.776241    64A      2.860219    65A      2.955849  
      66A      3.032765    67A      3.187724    68A      3.239435  
      69A      4.146606    70A      4.192032    71A      4.637940  
      72A      4.853131  

    Final Occupation by Irrep:
              A 
    DOCC [    17 ]

  Energy converged.

  @DF-RHF Final Energy:  -228.91640486463285

   => Energetics <=

    Nuclear Repulsion Energy =            134.2057687070964676
    One-Electron Energy =                -579.5637122406375283
    Two-Electron Energy =                 216.4415386689081515
    DFT Exchange-Correlation Energy =       0.0000000000000000
    Empirical Dispersion Energy =           0.0000000000000000
    PCM Polarization Energy =               0.0000000000000000
    EFP Energy =                            0.0000000000000000
    Total Energy =                       -228.9164048646329093

    Alert: EFP and PCM quantities not currently incorporated into SCF psivars.

Properties will be evaluated at   0.000000,   0.000000,   0.000000 Bohr
  ==> Properties <==


Properties computed using the SCF density matrix

  Nuclear Dipole Moment: (a.u.)
     X:     0.7087      Y:     2.8455      Z:    -1.1569

  Electronic Dipole Moment: (a.u.)
     X:    -0.1141      Y:    -1.9388      Z:     0.2775

  Dipole Moment: (a.u.)
     X:     0.5946      Y:     0.9067      Z:    -0.8793     Total:     1.3960

  Dipole Moment: (Debye)
     X:     1.5114      Y:     2.3047      Z:    -2.2350     Total:     3.5484


  Saving occupied orbitals to File 180.

*** tstop() called on cx1-3-4-1.cx1.hpc.ic.ac.uk at Thu Sep  1 22:06:16 2016
Module time:
	user time   =       2.31 seconds =       0.04 minutes
	system time =       0.03 seconds =       0.00 minutes
	total time  =          3 seconds =       0.05 minutes
Total time:
	user time   =       2.31 seconds =       0.04 minutes
	system time =       0.03 seconds =       0.00 minutes
	total time  =          3 seconds =       0.05 minutes


Properties will be evaluated at   0.000000,   0.000000,   0.000000 Bohr

Properties computed using the  density matrix

  Nuclear Dipole Moment: (a.u.)
     X:     0.7087      Y:     2.8455      Z:    -1.1569

  Electronic Dipole Moment: (a.u.)
     X:    -0.1141      Y:    -1.9388      Z:     0.2775

  Dipole Moment: (a.u.)
     X:     0.5946      Y:     0.9067      Z:    -0.8793     Total:     1.3960

  Dipole Moment: (Debye)
     X:     1.5114      Y:     2.3047      Z:    -2.2350     Total:     3.5484

  Quadrupole Moment: (Debye Ang)
    XX:   -22.8939     YY:   -25.9503     ZZ:   -22.1840
    XY:    -1.5685     XZ:    -0.1666     YZ:     1.7143

  Traceless Quadrupole Moment: (Debye Ang)
    XX:     0.7822     YY:    -2.2743     ZZ:     1.4921
    XY:    -1.5685     XZ:    -0.1666     YZ:     1.7143

  Mulliken Charges: (a.u.)
   Center  Symbol    Alpha    Beta     Spin     Total
       1     H     0.28027  0.28027  0.00000  0.43946
       2     O     4.36331  4.36331  0.00000 -0.72661
       3     C     3.01029  3.01029  0.00000 -0.02057
       4     C     2.99951  2.99951  0.00000  0.00099
       5     H     0.43653  0.43653  0.00000  0.12694
       6     H     0.42806  0.42806  0.00000  0.14388
       7     O     4.35985  4.35985  0.00000 -0.71970
       8     H     0.43086  0.43086  0.00000  0.13827
       9     H     0.40753  0.40753  0.00000  0.18495
      10     H     0.28380  0.28380  0.00000  0.43240

   Total alpha = 17.00000, Total beta = 17.00000, Total charge =  0.00000


*** PSI4 exiting successfully. Buy a developer a beer!
