    -----------------------------------------------------------------------
          Psi4: An Open-Source Ab Initio Electronic Structure Package
                              Psi4 1.0.54 Driver

                          Git: Rev {master} 8d4cec3 dirty

    J. M. Turney, A. C. Simmonett, R. M. Parrish, E. G. Hohenstein,
    F. A. Evangelista, J. T. Fermann, B. J. Mintz, L. A. Burns, J. J. Wilke,
    M. L. Abrams, N. J. Russ, M. L. Leininger, C. L. Janssen, E. T. Seidl,
    W. D. Allen, H. F. Schaefer, R. A. King, E. F. Valeev, C. D. Sherrill,
    and T. D. Crawford, WIREs Comput. Mol. Sci. 2, 556-565 (2012)
    (doi: 10.1002/wcms.93)

                         Additional Contributions by
    A. E. DePrince, U. Bozkaya, A. Yu. Sokolov, D. G. A. Smith, R. Di Remigio,
    R. M. Richard, J. F. Gonthier, H. R. McAlexander, M. Saitow, and
    B. P. Pritchard
    -----------------------------------------------------------------------


    Psi4 started on: Sat Sep 10 15:12:09 2016

    Process ID:  34032
    PSI4DATADIR: /export131/home/mjharvey/miniconda3/share/psi4
    Memory level set to 256.000 MB

  ==> Input File <==

--------------------------------------------------------------------------
set {
	reference rhf
	basis cc-pvtz
}


set_num_threads( 4 )
memory 2 gb

molecule MOL {
0 1

H	 -2.025301	 0.209866	 -0.086630
N	 -1.173926	 -0.310573	 -0.096856
C	 -0.022690	 0.563338	 0.065816
H	 -1.224957	 -0.974415	 0.647672
C	 1.270318	 -0.230600	 -0.014244
H	 -0.045456	 1.293650	 -0.735128
H	 -0.043257	 1.123033	 1.001181
H	 1.336171	 -0.754961	 -0.959363
H	 2.130626	 0.421987	 0.082223
H	 1.323242	 -0.967034	 0.781774

	symmetry c1
}
ee,wfn = energy('scf', return_wfn=True)
oeprop( wfn, 'DIPOLE', 'QUADRUPOLE', 'MULLIKEN_CHARGES')
oeprop( wfn, 'GRID_ESP')
f=open( 'psi4out.xyz', 'w' )
f.write( "10  " )
f.write( str(ee) + "\n" )
f.write( MOL.save_string_xyz() )
f.close()
--------------------------------------------------------------------------

  Memory set to   2.000 GiB by Python script.

*** tstart() called on cx1-27-1-1
*** at Sat Sep 10 15:12:10 2016


         ---------------------------------------------------------
                                   SCF
            by Justin Turney, Rob Parrish, and Andy Simmonett
                              RHF Reference
                        4 Threads,   2000 MiB Core
         ---------------------------------------------------------

  ==> Geometry <==

    Molecular point group: c1
    Full point group: C1

    Geometry (in Angstrom), charge = 0, multiplicity = 1:

       Center              X                  Y                   Z               Mass       
    ------------   -----------------  -----------------  -----------------  -----------------
           H         -2.025198598297     0.209893504767    -0.086630822655     1.007825032070
           N         -1.173823598297    -0.310545495233    -0.096856822655    14.003074004780
           C         -0.022587598297     0.563365504767     0.065815177345    12.000000000000
           H         -1.224854598297    -0.974387495233     0.647671177345     1.007825032070
           C          1.270420401703    -0.230572495233    -0.014244822655    12.000000000000
           H         -0.045353598297     1.293677504767    -0.735128822655     1.007825032070
           H         -0.043154598297     1.123060504767     1.001180177345     1.007825032070
           H          1.336273401703    -0.754933495233    -0.959363822655     1.007825032070
           H          2.130728401703     0.422014504767     0.082222177345     1.007825032070
           H          1.323344401703    -0.967006495233     0.781773177345     1.007825032070

  Running in c1 symmetry.

  Rotational constants: A =      1.11252  B =      0.30013  C =      0.26364 [cm^-1]
  Rotational constants: A =  33352.40681  B =   8997.56236  C =   7903.78930 [MHz]
  Nuclear repulsion =   83.468399290629037

  Charge       = 0
  Multiplicity = 1
  Electrons    = 26
  Nalpha       = 13
  Nbeta        = 13

  ==> Algorithm <==

  SCF Algorithm Type is DF.
  DIIS enabled.
  MOM disabled.
  Fractional occupation disabled.
  Guess Type is SAD.
  Energy threshold   = 1.00e-06
  Density threshold  = 1.00e-06
  Integral threshold = 0.00e+00

  ==> Primary Basis <==

  Basis Set: CC-PVTZ
    Number of shells: 72
    Number of basis function: 188
    Number of Cartesian functions: 210
    Spherical Harmonics?: true
    Max angular momentum: 3

  ==> Pre-Iterations <==

   -------------------------------------------------------
    Irrep   Nso     Nmo     Nalpha   Nbeta   Ndocc  Nsocc
   -------------------------------------------------------
     A        188     188       0       0       0       0
   -------------------------------------------------------
    Total     188     188      13      13      13       0
   -------------------------------------------------------

  ==> Integral Setup <==

  ==> DFJK: Density-Fitted J/K Matrices <==

    J tasked:                  Yes
    K tasked:                  Yes
    wK tasked:                  No
    OpenMP threads:              4
    Integrals threads:           4
    Memory (MB):              1430
    Algorithm:                Core
    Integral Cache:           NONE
    Schwarz Cutoff:          1E-12
    Fitting Condition:       1E-12

   => Auxiliary Basis Set <=

  Basis Set: 
    Number of shells: 145
    Number of basis function: 447
    Number of Cartesian functions: 533
    Spherical Harmonics?: true
    Max angular momentum: 4

  Minimum eigenvalue in the overlap matrix is 8.2290812033E-04.
  Using Symmetric Orthogonalization.
  SCF Guess: Superposition of Atomic Densities via on-the-fly atomic UHF.

  ==> Iterations <==

                           Total Energy        Delta E     RMS |[F,P]|

   @DF-RHF iter   0:  -135.45659400212767   -1.35457e+02   1.85324e-02 
   @DF-RHF iter   1:  -134.24742674210634    1.20917e+00   1.50224e-03 
   @DF-RHF iter   2:  -134.29920465986393   -5.17779e-02   4.55663e-04 DIIS
   @DF-RHF iter   3:  -134.30393298227517   -4.72832e-03   1.76174e-04 DIIS
   @DF-RHF iter   4:  -134.30473096902796   -7.97987e-04   4.27883e-05 DIIS
   @DF-RHF iter   5:  -134.30478782813873   -5.68591e-05   1.13076e-05 DIIS
   @DF-RHF iter   6:  -134.30479253918290   -4.71104e-06   3.26555e-06 DIIS
   @DF-RHF iter   7:  -134.30479288531555   -3.46133e-07   9.91014e-07 DIIS

  ==> Post-Iterations <==

    Orbital Energies (a.u.)
    -----------------------

    Doubly Occupied:                                                      

       1A    -15.527035     2A    -11.240943     3A    -11.205127  
       4A     -1.178055     5A     -0.988621     6A     -0.824411  
       7A     -0.663510     8A     -0.631893     9A     -0.583015  
      10A     -0.516566    11A     -0.508989    12A     -0.488419  
      13A     -0.385062  

    Virtual:                                                              

      14A      0.140490    15A      0.173523    16A      0.181340  
      17A      0.203204    18A      0.223819    19A      0.242046  
      20A      0.249484    21A      0.321479    22A      0.347260  
      23A      0.389108    24A      0.405495    25A      0.463471  
      26A      0.484872    27A      0.511747    28A      0.563427  
      29A      0.595223    30A      0.605364    31A      0.637380  
      32A      0.642058    33A      0.648375    34A      0.659421  
      35A      0.678972    36A      0.691635    37A      0.726136  
      38A      0.739826    39A      0.762234    40A      0.800509  
      41A      0.834069    42A      0.892579    43A      0.926766  
      44A      0.990533    45A      0.999616    46A      1.039785  
      47A      1.106265    48A      1.127982    49A      1.173719  
      50A      1.184502    51A      1.204037    52A      1.266223  
      53A      1.280260    54A      1.290978    55A      1.335913  
      56A      1.355504    57A      1.374217    58A      1.389614  
      59A      1.390897    60A      1.440250    61A      1.445351  
      62A      1.508211    63A      1.522136    64A      1.567098  
      65A      1.584541    66A      1.606255    67A      1.624079  
      68A      1.666875    69A      1.739113    70A      1.761163  
      71A      1.779172    72A      1.835230    73A      1.868293  
      74A      1.902717    75A      1.963286    76A      2.052016  
      77A      2.111540    78A      2.512924    79A      2.586870  
      80A      2.614108    81A      2.640065    82A      2.715390  
      83A      2.732491    84A      2.785457    85A      2.842695  
      86A      2.866713    87A      2.935396    88A      2.980722  
      89A      3.064236    90A      3.105161    91A      3.124881  
      92A      3.137057    93A      3.174496    94A      3.208989  
      95A      3.217800    96A      3.271080    97A      3.287523  
      98A      3.305549    99A      3.337442   100A      3.380056  
     101A      3.394778   102A      3.407110   103A      3.433379  
     104A      3.454976   105A      3.478740   106A      3.541516  
     107A      3.592363   108A      3.622497   109A      3.643122  
     110A      3.661901   111A      3.687528   112A      3.729316  
     113A      3.751825   114A      3.770556   115A      3.781924  
     116A      3.815232   117A      3.836026   118A      3.861199  
     119A      3.871226   120A      3.897298   121A      3.962791  
     122A      3.990089   123A      4.024561   124A      4.087947  
     125A      4.123816   126A      4.133627   127A      4.147837  
     128A      4.167008   129A      4.181388   130A      4.202529  
     131A      4.258493   132A      4.275319   133A      4.298480  
     134A      4.324248   135A      4.344076   136A      4.376677  
     137A      4.380555   138A      4.400260   139A      4.454801  
     140A      4.479307   141A      4.501297   142A      4.533448  
     143A      4.551892   144A      4.608258   145A      4.657307  
     146A      4.681140   147A      4.702252   148A      4.730400  
     149A      4.755642   150A      4.819035   151A      4.828353  
     152A      4.937736   153A      5.054085   154A      5.108890  
     155A      5.171541   156A      5.215000   157A      5.245337  
     158A      5.252772   159A      5.299161   160A      5.338304  
     161A      5.385006   162A      5.447165   163A      5.468291  
     164A      5.506231   165A      5.589940   166A      5.658619  
     167A      5.714815   168A      5.727173   169A      5.767217  
     170A      5.785476   171A      5.816410   172A      5.855463  
     173A      5.906189   174A      5.949570   175A      6.022031  
     176A      6.135257   177A      6.228238   178A      6.292646  
     179A      6.309483   180A      6.364086   181A      6.382214  
     182A      6.490233   183A      6.599210   184A      6.690869  
     185A      7.355704   186A     12.916069   187A     13.840066  
     188A     14.215522  

    Final Occupation by Irrep:
              A 
    DOCC [    13 ]

  Energy converged.

  @DF-RHF Final Energy:  -134.30479288531555

   => Energetics <=

    Nuclear Repulsion Energy =             83.4683992906290371
    One-Electron Energy =                -346.0637100844322731
    Two-Electron Energy =                 128.2905179084877147
    DFT Exchange-Correlation Energy =       0.0000000000000000
    Empirical Dispersion Energy =           0.0000000000000000
    PCM Polarization Energy =               0.0000000000000000
    EFP Energy =                            0.0000000000000000
    Total Energy =                       -134.3047928853155497


  Saving occupied orbitals to File 180.

*** tstop() called on cx1-27-1-1 at Sat Sep 10 15:12:12 2016
Module time:
	user time   =       5.96 seconds =       0.10 minutes
	system time =       0.23 seconds =       0.00 minutes
	total time  =          2 seconds =       0.03 minutes
Total time:
	user time   =       5.96 seconds =       0.10 minutes
	system time =       0.23 seconds =       0.00 minutes
	total time  =          2 seconds =       0.03 minutes


Properties will be evaluated at   0.000000,   0.000000,   0.000000 Bohr

Properties computed using the SCF density matrix

  Nuclear Dipole Moment: (a.u.)
     X:     1.3644      Y:     0.3312      Z:     0.6862

  Electronic Dipole Moment: (a.u.)
     X:    -1.4472      Y:    -0.0874      Z:    -0.2509

  Dipole Moment: (a.u.)
     X:    -0.0828      Y:     0.2438      Z:     0.4353     Total:     0.5058

  Dipole Moment: (Debye)
     X:    -0.2105      Y:     0.6196      Z:     1.1065     Total:     1.2855



Properties will be evaluated at   0.000000,   0.000000,   0.000000 Bohr

Properties computed using the  density matrix

  Nuclear Dipole Moment: (a.u.)
     X:     1.3644      Y:     0.3312      Z:     0.6862

  Electronic Dipole Moment: (a.u.)
     X:    -1.4472      Y:    -0.0874      Z:    -0.2509

  Dipole Moment: (a.u.)
     X:    -0.0828      Y:     0.2438      Z:     0.4353     Total:     0.5058

  Dipole Moment: (Debye)
     X:    -0.2105      Y:     0.6196      Z:     1.1065     Total:     1.2855

  Quadrupole Moment: (Debye Ang)
    XX:   -19.4291     YY:   -20.6839     ZZ:   -21.2085
    XY:    -0.6946     XZ:    -1.5004     YZ:    -1.6715

  Traceless Quadrupole Moment: (Debye Ang)
    XX:     1.0114     YY:    -0.2434     ZZ:    -0.7680
    XY:    -0.6946     XZ:    -1.5004     YZ:    -1.6715

  Mulliken Charges: (a.u.)
   Center  Symbol    Alpha    Beta     Spin     Total
       1     H     0.42957  0.42957  0.00000  0.14087
       2     N     3.68983  3.68983  0.00000 -0.37965
       3     C     3.01875  3.01875  0.00000 -0.03750
       4     H     0.43040  0.43040  0.00000  0.13920
       5     C     3.13905  3.13905  0.00000 -0.27809
       6     H     0.45774  0.45774  0.00000  0.08453
       7     H     0.46961  0.46961  0.00000  0.06079
       8     H     0.44955  0.44955  0.00000  0.10089
       9     H     0.45553  0.45553  0.00000  0.08895
      10     H     0.45999  0.45999  0.00000  0.08002

   Total alpha = 13.00000, Total beta = 13.00000, Total charge = -0.00000



Properties will be evaluated at   0.000000,   0.000000,   0.000000 Bohr

Properties computed using the  density matrix


 Electrostatic potential computed on the grid and written to grid_esp.dat

*** Psi4 exiting successfully. Buy a developer a beer!
