    -----------------------------------------------------------------------
          Psi4: An Open-Source Ab Initio Electronic Structure Package
                              Psi4 1.0.54 Driver

                          Git: Rev {master} 8d4cec3 dirty

    J. M. Turney, A. C. Simmonett, R. M. Parrish, E. G. Hohenstein,
    F. A. Evangelista, J. T. Fermann, B. J. Mintz, L. A. Burns, J. J. Wilke,
    M. L. Abrams, N. J. Russ, M. L. Leininger, C. L. Janssen, E. T. Seidl,
    W. D. Allen, H. F. Schaefer, R. A. King, E. F. Valeev, C. D. Sherrill,
    and T. D. Crawford, WIREs Comput. Mol. Sci. 2, 556-565 (2012)
    (doi: 10.1002/wcms.93)

                         Additional Contributions by
    A. E. DePrince, U. Bozkaya, A. Yu. Sokolov, D. G. A. Smith, R. Di Remigio,
    R. M. Richard, J. F. Gonthier, H. R. McAlexander, M. Saitow, and
    B. P. Pritchard
    -----------------------------------------------------------------------


    Psi4 started on: Sat Sep 10 15:25:58 2016

    Process ID:   3810
    PSI4DATADIR: /export131/home/mjharvey/miniconda3/share/psi4
    Memory level set to 256.000 MB

  ==> Input File <==

--------------------------------------------------------------------------
set {
	reference rhf
	basis cc-pvtz
}


set_num_threads( 4 )
memory 2 gb

molecule MOL {
0 1

H	 -2.305261	 -0.736190	 1.064507
N	 -1.529793	 -0.108568	 1.046818
C	 -0.561396	 -0.500007	 0.035200
H	 -1.119342	 -0.121542	 1.957146
C	 0.575129	 0.507849	 -0.048832
H	 -1.075386	 -0.538091	 -0.919568
H	 -0.145691	 -1.494136	 0.206403
C	 1.951750	 -0.141983	 0.035101
H	 0.478254	 1.061643	 -0.975981
H	 0.467676	 1.231891	 0.755499
H	 2.101550	 -0.848142	 -0.774949
H	 2.738260	 0.600794	 -0.026526
H	 2.078939	 -0.679792	 0.968824

	symmetry c1
}
set optking {
	frozen_dihedral = ("
		6 3 5 9
	")
}

ee,wfn = optimize('scf', return_wfn=True)
oeprop( wfn, 'DIPOLE', 'QUADRUPOLE', 'MULLIKEN_CHARGES')
f=open( 'psi4out.xyz', 'w' )
f.write( "13  " )
f.write( str(ee) + "\n" )
f.write( MOL.save_string_xyz() )
f.close()
--------------------------------------------------------------------------

  Memory set to   2.000 GiB by Python script.
gradient() will perform analytic gradient computation.

*** tstart() called on cx1-28-12-4
*** at Sat Sep 10 15:25:59 2016


         ---------------------------------------------------------
                                   SCF
            by Justin Turney, Rob Parrish, and Andy Simmonett
                              RHF Reference
                        4 Threads,   2000 MiB Core
         ---------------------------------------------------------

  ==> Geometry <==

    Molecular point group: c1
    Full point group: C1

    Geometry (in Angstrom), charge = 0, multiplicity = 1:

       Center              X                  Y                   Z               Mass       
    ------------   -----------------  -----------------  -----------------  -----------------
           H         -2.396811005402    -0.657212713411     0.773525403271     1.007825032070
           N         -1.621343005402    -0.029590713411     0.755836403271    14.003074004780
           C         -0.652946005402    -0.421029713411    -0.255781596729    12.000000000000
           H         -1.210892005402    -0.042564713411     1.666164403271     1.007825032070
           C          0.483578994598     0.586826286589    -0.339813596729    12.000000000000
           H         -1.166936005402    -0.459113713411    -1.210549596729     1.007825032070
           H         -0.237241005402    -1.415158713411    -0.084578596729     1.007825032070
           C          1.860199994598    -0.063005713411    -0.255880596729    12.000000000000
           H          0.386703994598     1.140620286589    -1.266962596729     1.007825032070
           H          0.376125994598     1.310868286589     0.464517403271     1.007825032070
           H          2.009999994598    -0.769164713411    -1.065930596729     1.007825032070
           H          2.646709994598     0.679771286589    -0.317507596729     1.007825032070
           H          1.987388994598    -0.600814713411     0.677842403271     1.007825032070

  Running in c1 symmetry.

  Rotational constants: A =      0.68565  B =      0.12948  C =      0.12807 [cm^-1]
  Rotational constants: A =  20555.13754  B =   3881.81986  C =   3839.53665 [MHz]
  Nuclear repulsion =  132.528923010288537

  Charge       = 0
  Multiplicity = 1
  Electrons    = 34
  Nalpha       = 17
  Nbeta        = 17

  ==> Algorithm <==

  SCF Algorithm Type is DF.
  DIIS enabled.
  MOM disabled.
  Fractional occupation disabled.
  Guess Type is SAD.
  Energy threshold   = 1.00e-08
  Density threshold  = 1.00e-08
  Integral threshold = 0.00e+00

  ==> Primary Basis <==

  Basis Set: CC-PVTZ
    Number of shells: 94
    Number of basis function: 246
    Number of Cartesian functions: 275
    Spherical Harmonics?: true
    Max angular momentum: 3

  ==> Pre-Iterations <==

   -------------------------------------------------------
    Irrep   Nso     Nmo     Nalpha   Nbeta   Ndocc  Nsocc
   -------------------------------------------------------
     A        246     246       0       0       0       0
   -------------------------------------------------------
    Total     246     246      17      17      17       0
   -------------------------------------------------------

  ==> Integral Setup <==

  ==> DFJK: Density-Fitted J/K Matrices <==

    J tasked:                  Yes
    K tasked:                  Yes
    wK tasked:                  No
    OpenMP threads:              4
    Integrals threads:           4
    Memory (MB):              1430
    Algorithm:                Core
    Integral Cache:           NONE
    Schwarz Cutoff:          1E-12
    Fitting Condition:       1E-12

   => Auxiliary Basis Set <=

  Basis Set: 
    Number of shells: 190
    Number of basis function: 586
    Number of Cartesian functions: 699
    Spherical Harmonics?: true
    Max angular momentum: 4

  Minimum eigenvalue in the overlap matrix is 5.1543011411E-04.
  Using Symmetric Orthogonalization.
  SCF Guess: Superposition of Atomic Densities via on-the-fly atomic UHF.

  ==> Iterations <==

                           Total Energy        Delta E     RMS |[F,P]|

   @DF-RHF iter   0:  -175.04073307485149   -1.75041e+02   1.63021e-02 
   @DF-RHF iter   1:  -173.25701195716007    1.78372e+00   1.44359e-03 
   @DF-RHF iter   2:  -173.33458697668672   -7.75750e-02   5.69978e-04 DIIS
   @DF-RHF iter   3:  -173.34426885525428   -9.68188e-03   2.03585e-04 DIIS
   @DF-RHF iter   4:  -173.34602513392539   -1.75628e-03   3.35992e-05 DIIS
   @DF-RHF iter   5:  -173.34609669317408   -7.15592e-05   1.01094e-05 DIIS
   @DF-RHF iter   6:  -173.34610351571919   -6.82255e-06   3.06201e-06 DIIS
   @DF-RHF iter   7:  -173.34610410598302   -5.90264e-07   8.61378e-07 DIIS
   @DF-RHF iter   8:  -173.34610417917898   -7.31960e-08   2.35804e-07 DIIS
   @DF-RHF iter   9:  -173.34610418533899   -6.16001e-09   6.75495e-08 DIIS
   @DF-RHF iter  10:  -173.34610418579470   -4.55714e-10   1.97595e-08 DIIS
   @DF-RHF iter  11:  -173.34610418582471   -3.00133e-11   4.67796e-09 DIIS

  ==> Post-Iterations <==

    Orbital Energies (a.u.)
    -----------------------

    Doubly Occupied:                                                      

       1A    -15.526765     2A    -11.236886     3A    -11.208736  
       4A    -11.207079     5A     -1.178768     6A     -1.035859  
       7A     -0.901127     8A     -0.798178     9A     -0.669065  
      10A     -0.625003    11A     -0.602068    12A     -0.564185  
      13A     -0.542558    14A     -0.489036    15A     -0.476796  
      16A     -0.465716    17A     -0.382741  

    Virtual:                                                              

      18A      0.140307    19A      0.160825    20A      0.174454  
      21A      0.183658    22A      0.215889    23A      0.231961  
      24A      0.234202    25A      0.241203    26A      0.256871  
      27A      0.321242    28A      0.348191    29A      0.361407  
      30A      0.406397    31A      0.407505    32A      0.439481  
      33A      0.459753    34A      0.500788    35A      0.517373  
      36A      0.540319    37A      0.561317    38A      0.589248  
      39A      0.606867    40A      0.615456    41A      0.631816  
      42A      0.640502    43A      0.667866    44A      0.674650  
      45A      0.677164    46A      0.685816    47A      0.694319  
      48A      0.704311    49A      0.721786    50A      0.743556  
      51A      0.764602    52A      0.785961    53A      0.817530  
      54A      0.867612    55A      0.927677    56A      0.954558  
      57A      1.010086    58A      1.016561    59A      1.048731  
      60A      1.088907    61A      1.125888    62A      1.152481  
      63A      1.167604    64A      1.171203    65A      1.200161  
      66A      1.207036    67A      1.225832    68A      1.253745  
      69A      1.267943    70A      1.285774    71A      1.308408  
      72A      1.315268    73A      1.336684    74A      1.349558  
      75A      1.387135    76A      1.411544    77A      1.431139  
      78A      1.439784    79A      1.451936    80A      1.474091  
      81A      1.507209    82A      1.525278    83A      1.552135  
      84A      1.564551    85A      1.586948    86A      1.610783  
      87A      1.637014    88A      1.638346    89A      1.669656  
      90A      1.705308    91A      1.738950    92A      1.758019  
      93A      1.768896    94A      1.812673    95A      1.834941  
      96A      1.868876    97A      1.917394    98A      1.983884  
      99A      2.003055   100A      2.049242   101A      2.105194  
     102A      2.500214   103A      2.587707   104A      2.595816  
     105A      2.631545   106A      2.652350   107A      2.709953  
     108A      2.736920   109A      2.811416   110A      2.821095  
     111A      2.845482   112A      2.861376   113A      2.879217  
     114A      2.915132   115A      2.959899   116A      2.992754  
     117A      3.035469   118A      3.038740   119A      3.076387  
     120A      3.143411   121A      3.146716   122A      3.172082  
     123A      3.203885   124A      3.228537   125A      3.244808  
     126A      3.250877   127A      3.266610   128A      3.302631  
     129A      3.316044   130A      3.335805   131A      3.375438  
     132A      3.389169   133A      3.405682   134A      3.424538  
     135A      3.433655   136A      3.455838   137A      3.485053  
     138A      3.495829   139A      3.513395   140A      3.553144  
     141A      3.589648   142A      3.593849   143A      3.625212  
     144A      3.647263   145A      3.676971   146A      3.688305  
     147A      3.706338   148A      3.743193   149A      3.762723  
     150A      3.771271   151A      3.800120   152A      3.821077  
     153A      3.834793   154A      3.839108   155A      3.884136  
     156A      3.892779   157A      3.911138   158A      3.920952  
     159A      3.953719   160A      3.959427   161A      3.977698  
     162A      4.017850   163A      4.080086   164A      4.106799  
     165A      4.119478   166A      4.141057   167A      4.163674  
     168A      4.171107   169A      4.177606   170A      4.211588  
     171A      4.225358   172A      4.238496   173A      4.254541  
     174A      4.267754   175A      4.282193   176A      4.338535  
     177A      4.365824   178A      4.379190   179A      4.399228  
     180A      4.436577   181A      4.444889   182A      4.450410  
     183A      4.456506   184A      4.487242   185A      4.505624  
     186A      4.532748   187A      4.558919   188A      4.580609  
     189A      4.631923   190A      4.654148   191A      4.665740  
     192A      4.689573   193A      4.707823   194A      4.717773  
     195A      4.767765   196A      4.809127   197A      4.837681  
     198A      4.858167   199A      4.866642   200A      4.923635  
     201A      5.009771   202A      5.063188   203A      5.130845  
     204A      5.145287   205A      5.202599   206A      5.228278  
     207A      5.235992   208A      5.260089   209A      5.284041  
     210A      5.344710   211A      5.385699   212A      5.434365  
     213A      5.443368   214A      5.469323   215A      5.486964  
     216A      5.503405   217A      5.589495   218A      5.612841  
     219A      5.639348   220A      5.701584   221A      5.736708  
     222A      5.747745   223A      5.761001   224A      5.790857  
     225A      5.794131   226A      5.829194   227A      5.894005  
     228A      5.901567   229A      5.955345   230A      6.018389  
     231A      6.106775   232A      6.159924   233A      6.245331  
     234A      6.302593   235A      6.319669   236A      6.341469  
     237A      6.373878   238A      6.427043   239A      6.486716  
     240A      6.595421   241A      6.692752   242A      7.363490  
     243A     12.469694   244A     13.522770   245A     14.015800  
     246A     14.382088  

    Final Occupation by Irrep:
              A 
    DOCC [    17 ]

  Energy converged.

  @DF-RHF Final Energy:  -173.34610418582471

   => Energetics <=

    Nuclear Repulsion Energy =            132.5289230102885369
    One-Electron Energy =                -495.9289196582806198
    Two-Electron Energy =                 190.0538924621673686
    DFT Exchange-Correlation Energy =       0.0000000000000000
    Empirical Dispersion Energy =           0.0000000000000000
    PCM Polarization Energy =               0.0000000000000000
    EFP Energy =                            0.0000000000000000
    Total Energy =                       -173.3461041858247427


  Saving occupied orbitals to File 180.

*** tstop() called on cx1-28-12-4 at Sat Sep 10 15:26:02 2016
Module time:
	user time   =      11.53 seconds =       0.19 minutes
	system time =       0.44 seconds =       0.01 minutes
	total time  =          3 seconds =       0.05 minutes
Total time:
	user time   =      11.53 seconds =       0.19 minutes
	system time =       0.44 seconds =       0.01 minutes
	total time  =          3 seconds =       0.05 minutes


Properties will be evaluated at   0.000000,   0.000000,   0.000000 Bohr

Properties computed using the SCF density matrix

  Nuclear Dipole Moment: (a.u.)
     X:     2.2500      Y:    -0.7619      Z:    -0.3429

  Electronic Dipole Moment: (a.u.)
     X:    -2.1278      Y:     0.3247      Z:     0.4586

  Dipole Moment: (a.u.)
     X:     0.1222      Y:    -0.4372      Z:     0.1157     Total:     0.4685

  Dipole Moment: (Debye)
     X:     0.3107      Y:    -1.1113      Z:     0.2941     Total:     1.1908


*** tstart() called on cx1-28-12-4
*** at Sat Sep 10 15:26:02 2016


         ------------------------------------------------------------
                                   SCF GRAD                          
                          Rob Parrish, Justin Turney,                
                       Andy Simmonett, and Alex Sokolov              
         ------------------------------------------------------------

  ==> Geometry <==

    Molecular point group: c1
    Full point group: C1

    Geometry (in Angstrom), charge = 0, multiplicity = 1:

       Center              X                  Y                   Z               Mass       
    ------------   -----------------  -----------------  -----------------  -----------------
           H         -2.396811005402    -0.657212713411     0.773525403271     1.007825032070
           N         -1.621343005402    -0.029590713411     0.755836403271    14.003074004780
           C         -0.652946005402    -0.421029713411    -0.255781596729    12.000000000000
           H         -1.210892005402    -0.042564713411     1.666164403271     1.007825032070
           C          0.483578994598     0.586826286589    -0.339813596729    12.000000000000
           H         -1.166936005402    -0.459113713411    -1.210549596729     1.007825032070
           H         -0.237241005402    -1.415158713411    -0.084578596729     1.007825032070
           C          1.860199994598    -0.063005713411    -0.255880596729    12.000000000000
           H          0.386703994598     1.140620286589    -1.266962596729     1.007825032070
           H          0.376125994598     1.310868286589     0.464517403271     1.007825032070
           H          2.009999994598    -0.769164713411    -1.065930596729     1.007825032070
           H          2.646709994598     0.679771286589    -0.317507596729     1.007825032070
           H          1.987388994598    -0.600814713411     0.677842403271     1.007825032070

  Nuclear repulsion =  132.528923010288537

  ==> Basis Set <==

  Basis Set: CC-PVTZ
    Number of shells: 94
    Number of basis function: 246
    Number of Cartesian functions: 275
    Spherical Harmonics?: true
    Max angular momentum: 3

  ==> DFJKGrad: Density-Fitted SCF Gradients <==

    Gradient:                    1
    J tasked:                  Yes
    K tasked:                  Yes
    wK tasked:                  No
    OpenMP threads:              4
    Integrals threads:           4
    Memory (MB):              1430
    Schwarz Cutoff:          0E+00
    Fitting Condition:       1E-12

   => Auxiliary Basis Set <=

  Basis Set: 
    Number of shells: 190
    Number of basis function: 586
    Number of Cartesian functions: 699
    Spherical Harmonics?: true
    Max angular momentum: 4


  -Total Gradient:
     Atom            X                  Y                   Z
    ------   -----------------  -----------------  -----------------
       1        0.000369580797     0.000283996474    -0.000245019113
       2        0.002939697885     0.000797643591     0.000605075047
       3        0.005132779478     0.004497659020    -0.000190212912
       4       -0.000291147739     0.000082108828     0.000010519024
       5       -0.005633899455    -0.004658428979    -0.001450737148
       6        0.000858450624     0.001781785416    -0.001873990254
       7        0.001953682353    -0.000224559945    -0.000625940234
       8       -0.001946511863    -0.002282369419     0.002842860468
       9       -0.003085696628    -0.002077441163    -0.001181421781
      10       -0.000094403858     0.001488383492     0.002248481674
      11       -0.000315051316     0.000281793613    -0.000160259135
      12       -0.000678990117    -0.000009142833     0.000188069854
      13        0.000791509840     0.000038571907    -0.000167425490


*** tstop() called on cx1-28-12-4 at Sat Sep 10 15:26:06 2016
Module time:
	user time   =      13.12 seconds =       0.22 minutes
	system time =       0.33 seconds =       0.01 minutes
	total time  =          4 seconds =       0.07 minutes
Total time:
	user time   =      24.71 seconds =       0.41 minutes
	system time =       0.77 seconds =       0.01 minutes
	total time  =          7 seconds =       0.12 minutes

			-----------------------------------------
			 OPTKING 2.0: for geometry optimizations 
			  - R.A. King,  Bethel University        
			-----------------------------------------

	Internal coordinates to be generated automatically.
	Detected frag 1 with atoms:  1 2 3 4 5 6 7 8 9 10 11 12 13
	---Fragment 1 Bond Connectivity---
	 1 : 2
	 2 : 1 3 4
	 3 : 2 5 6 7
	 4 : 2
	 5 : 3 8 9 10
	 6 : 3
	 7 : 3
	 8 : 5 11 12 13
	 9 : 5
	 10 : 5
	 11 : 8
	 12 : 8
	 13 : 8

	Assuming in current code that numbering for constraints corresponds to unified fragment.
	Frozen dihedral atom list: 
	     6     3     5     9
	---Fragment 1 Geometry and Gradient---
	 H          -4.5293163925       -1.2419520394        1.4617511690
	 N          -3.0638942477       -0.0559183444        1.4283238034
	 C          -1.2338891298       -0.7956308522       -0.4833571676
	 H          -2.2882542667       -0.0804356513        3.1485944145
	 C           0.9138318634        1.1089409692       -0.6421546340
	 H          -2.2051894648       -0.8675991822       -2.2876072081
	 H          -0.4483205277       -2.6742624029       -0.1598303845
	 C           3.5152685422       -0.1190635432       -0.4835442505
	 H           0.7307646443        2.1554599633       -2.3942123284
	 H           0.7107751212        2.4771820579        0.8778106761
	 H           3.7983495169       -1.4535106594       -2.0143169045
	 H           5.0015570430        1.2845815647       -0.6000024029
	 H           3.7556209193       -1.1353752650        1.2809365034
	             0.0003695808        0.0002839965       -0.0002450191
	             0.0029396979        0.0007976436        0.0006050750
	             0.0051327795        0.0044976590       -0.0001902129
	            -0.0002911477        0.0000821088        0.0000105190
	            -0.0056338995       -0.0046584290       -0.0014507371
	             0.0008584506        0.0017817854       -0.0018739903
	             0.0019536824       -0.0002245599       -0.0006259402
	            -0.0019465119       -0.0022823694        0.0028428605
	            -0.0030856966       -0.0020774412       -0.0011814218
	            -0.0000944039        0.0014883835        0.0022484817
	            -0.0003150513        0.0002817936       -0.0001602591
	            -0.0006789901       -0.0000091428        0.0001880699
	             0.0007915098        0.0000385719       -0.0001674255

	Previous optimization step data not found.  Starting new optimization.

	---Fragment 1 Intrafragment Coordinates---
	 - Coordinate -           - BOHR/RAD -       - ANG/DEG -
	 R(1,2)           =         1.885538	       0.997784
	 R(2,3)           =         2.747839	       1.454094
	 R(2,4)           =         1.887207	       0.998667
	 R(3,5)           =         2.874946	       1.521356
	 R(3,6)           =         2.050347	       1.084997
	 R(3,7)           =         2.061806	       1.091061
	 R(5,8)           =         2.881081	       1.524602
	 R(5,9)           =         2.049005	       1.084287
	 R(5,10)          =         2.055142	       1.087535
	 R(8,11)          =         2.050402	       1.085026
	 R(8,12)          =         2.047641	       1.083565
	 R(8,13)          =         2.050378	       1.085013
	 B(1,2,3)         =         1.939704	     111.136857
	 B(1,2,4)         =         1.870349	     107.163086
	 B(2,3,5)         =         1.936503	     110.953457
	 B(2,3,6)         =         1.881951	     107.827854
	 B(2,3,7)         =         1.971277	     112.945854
	 B(3,2,4)         =         1.935797	     110.912978
	 B(3,5,8)         =         1.970484	     112.900417
	 B(3,5,9)         =         1.895302	     108.592782
	 B(3,5,10)        =         1.903276	     109.049676
	 B(5,3,6)         =         1.905557	     109.180355
	 B(5,3,7)         =         1.904613	     109.126301
	 B(5,8,11)        =         1.940094	     111.159188
	 B(5,8,12)        =         1.939162	     111.105820
	 B(5,8,13)        =         1.943883	     111.376286
	 B(6,3,7)         =         1.861464	     106.654038
	 B(8,5,9)         =         1.923506	     110.208757
	 B(8,5,10)        =         1.909502	     109.406432
	 B(9,5,10)        =         1.858284	     106.471845
	 B(11,8,12)       =         1.879120	     107.665623
	 B(11,8,13)       =         1.879365	     107.679688
	 B(12,8,13)       =         1.879303	     107.676103
	 D(1,2,3,5)       =         3.078881	     176.406914
	 D(1,2,3,6)       =         0.992890	      56.888411
	 D(1,2,3,7)       =        -1.059361	     -60.696906
	 D(2,3,5,8)       =         2.247352	     128.763768
	 D(2,3,5,9)       =        -1.897271	    -108.705635
	 D(2,3,5,10)      =         0.120952	       6.930027
	 D(3,5,8,11)      =         1.050288	      60.177090
	 D(3,5,8,12)      =        -3.140585	    -179.942241
	 D(3,5,8,13)      =        -1.045503	     -59.902884
	 D(4,2,3,5)       =        -1.125519	     -64.487488
	 D(4,2,3,6)       =         3.071675	     175.994009
	 D(4,2,3,7)       =         1.019424	      58.408692
	 D(6,3,5,8)       =        -1.964029	    -112.530599
	*D(6,3,5,9)       =         0.174533	       9.999999
	 D(6,3,5,10)      =         2.192756	     125.635660
	 D(7,3,5,8)       =         0.064369	       3.688083
	 D(7,3,5,9)       =         2.202932	     126.218681
	 D(7,3,5,10)      =        -2.062031	    -118.145658
	 D(9,5,8,11)      =        -1.072425	     -61.445420
	 D(9,5,8,12)      =         1.019888	      58.435250
	 D(9,5,8,13)      =         3.114970	     178.474607
	 D(10,5,8,11)     =        -3.110009	    -178.190380
	 D(10,5,8,12)     =        -1.017696	     -58.309711
	 D(10,5,8,13)     =         1.077386	      61.729646

	Current energy   :      -173.3461041858

	Generating empirical Hessian (Schlegel '84) for each fragment.
	Taking RFO optimization step.
	Going to follow RFO solution 1.
	Using RFO vector 1.
	Norm of target step-size    0.11413
	Projected energy change by RFO approximation:        -0.0030711513

	Back-transformation to cartesian coordinates...
	Could not converge backtransformation.
	Using first guess instead.

	Back-transformation to cartesian coordinates to adjust frozen coordinates...
	Successfully converged to displaced geometry.

	--- Internal Coordinate Step in ANG or DEG, aJ/ANG or AJ/DEG ---
	 ---------------------------------------------------------------------------
	   Coordinate                Previous        Force       Change         New 
	   ----------                --------       ------       ------       ------
	    1 R(1,2)          =      0.997784     0.003874     0.000547     0.998331
	    2 R(2,3)          =      1.454094     0.011855     0.002308     1.456401
	    3 R(2,4)          =      0.998667     0.000916     0.000280     0.998947
	    4 R(3,5)          =      1.521356     0.107929     0.022857     1.544213
	    5 R(3,6)          =      1.084997    -0.009720    -0.001633     1.083364
	    6 R(3,7)          =      1.091061    -0.007009    -0.000967     1.090094
	    7 R(5,8)          =      1.524602     0.007839     0.001927     1.526529
	    8 R(5,9)          =      1.084287    -0.001853     0.000068     1.084355
	    9 R(5,10)         =      1.087535    -0.021941    -0.003974     1.083561
	   10 R(8,11)         =      1.085026     0.000884     0.000173     1.085199
	   11 R(8,12)         =      1.083565     0.004200     0.000775     1.084340
	   12 R(8,13)         =      1.085013     0.000580     0.000143     1.085156
	   13 B(1,2,3)        =    111.136857     0.000027     0.090265   111.227122
	   14 B(1,2,4)        =    107.163086     0.000001    -0.044321   107.118764
	   15 B(2,3,5)        =    110.953457     0.000225     0.745068   111.698525
	   16 B(2,3,6)        =    107.827854    -0.000176    -1.646580   106.181274
	   17 B(2,3,7)        =    112.945854    -0.000126    -0.718323   112.227530
	   18 B(3,2,4)        =    110.912978    -0.000040    -0.213033   110.699945
	   19 B(3,5,8)        =    112.900417     0.000233     0.871168   113.771585
	   20 B(3,5,9)        =    108.592782     0.000153     1.461438   110.054220
	   21 B(3,5,10)       =    109.049676    -0.000129    -0.060098   108.989578
	   22 B(5,3,6)        =    109.180355     0.000085     0.902526   110.082881
	   23 B(5,3,7)        =    109.126301     0.000006     0.759150   109.885451
	   24 B(5,8,11)       =    111.159188     0.000047     0.211845   111.371033
	   25 B(5,8,12)       =    111.105820     0.000062     0.375656   111.481476
	   26 B(5,8,13)       =    111.376286    -0.000103    -0.560517   110.815769
	   27 B(6,3,7)        =    106.654038    -0.000020    -0.088051   106.565987
	   28 B(8,5,9)        =    110.208757    -0.000263    -2.052825   108.155932
	   29 B(8,5,10)       =    109.406432     0.000007     0.066778   109.473210
	   30 B(9,5,10)       =    106.471845    -0.000015    -0.357489   106.114356
	   31 B(11,8,12)      =    107.665623    -0.000037    -0.024866   107.640756
	   32 B(11,8,13)      =    107.679688     0.000008    -0.121374   107.558314
	   33 B(12,8,13)      =    107.676103     0.000023     0.116748   107.792851
	   34 D(1,2,3,5)      =    176.406914     0.000005     0.329168   176.736082
	   35 D(1,2,3,6)      =     56.888411    -0.000024    -0.170528    56.717883
	   36 D(1,2,3,7)      =    -60.696906     0.000024     1.356023   -59.340883
	   37 D(2,3,5,8)      =    128.763768     0.000022     1.986178   130.749946
	   38 D(2,3,5,9)      =   -108.705635     0.000006     1.006439  -107.699196
	   39 D(2,3,5,10)     =      6.930027     0.000005     1.353218     8.283244
	   40 D(3,5,8,11)     =     60.177090     0.000008    -0.620284    59.556806
	   41 D(3,5,8,12)     =   -179.942241     0.000014    -0.255019  -180.197260
	   42 D(3,5,8,13)     =    -59.902884     0.000015    -0.232590   -60.135474
	   43 D(4,2,3,5)      =    -64.487488     0.000003     0.192880   -64.294608
	   44 D(4,2,3,6)      =    175.994009    -0.000026    -0.306817   175.687192
	   45 D(4,2,3,7)      =     58.408692     0.000023     1.219734    59.628426
	   46 D(6,3,5,8)      =   -112.530599     0.000016     0.979739  -111.550860
	   47 *D(6,3,5,9)     =      9.999999     0.000000     0.000000     9.999999
	   48 D(6,3,5,10)     =    125.635660    -0.000001     0.346779   125.982439
	   49 D(7,3,5,8)      =      3.688083     0.000022     1.830514     5.518597
	   50 D(7,3,5,9)      =    126.218681     0.000006     0.850775   127.069456
	   51 D(7,3,5,10)     =   -118.145658     0.000005     1.197554  -116.948104
	   52 D(9,5,8,11)     =    -61.445420    -0.000030    -1.597888   -63.043308
	   53 D(9,5,8,12)     =     58.435250    -0.000024    -1.232624    57.202626
	   54 D(9,5,8,13)     =    178.474607    -0.000024    -1.210195   177.264412
	   55 D(10,5,8,11)    =   -178.190380     0.000008    -0.052651  -178.243031
	   56 D(10,5,8,12)    =    -58.309711     0.000014     0.312614   -57.997097
	   57 D(10,5,8,13)    =     61.729646     0.000014     0.335043    62.064689
	 ---------------------------------------------------------------------------
	Successfully symmetrized geometry.

  ==> Convergence Check <==

  Measures of convergence in internal coordinates in au.
  Criteria marked as inactive (o), active & met (*), and active & unmet ( ).
  --------------------------------------------------------------------------------------------- ~
   Step     Total Energy     Delta E     MAX Force     RMS Force      MAX Disp      RMS Disp    ~
  --------------------------------------------------------------------------------------------- ~
    Convergence Criteria    1.00e-06 *    3.00e-04 *             o    1.20e-03 *             o  ~
  --------------------------------------------------------------------------------------------- ~
      1    -173.34610419   -1.73e+02      1.31e-02      2.12e-03 o    4.32e-02      1.51e-02 o  ~
  ---------------------------------------------------------------------------------------------

	Writing optimization data to binary file.
	Structure for next step:
	Cartesian Geometry (in Angstrom)
	    H    -2.4240111812  -0.6666076202   0.7621776305
	    N    -1.6523468894  -0.0333529169   0.7484748055
	    C    -0.6625138849  -0.4296865654  -0.2436214217
	    H    -1.2542694880  -0.0350504043   1.6646769298
	    C     0.4969907111   0.5864519248  -0.3308289583
	    H    -1.1867150845  -0.4781188173  -1.1904819718
	    H    -0.2672483238  -1.4280755546  -0.0557662811
	    C     1.8816788320  -0.0533983353  -0.2714975955
	    H     0.4259847897   1.1534582940  -1.2523971579
	    H     0.3966870937   1.3057430340   0.4733248002
	    H     2.0266568689  -0.7584180479  -1.0836464729
	    H     2.6666162208   0.6916536070  -0.3390634488
	    H     2.0170292654  -0.5941678723   0.6595303846
			--------------------------
			 OPTKING Finished Execution 
			--------------------------

    Structure for next step:
    Molecular point group: c1
    Full point group: C1

    Geometry (in Angstrom), charge = 0, multiplicity = 1:

    H           -2.421902758166    -0.665887204530     0.762768472241
    N           -1.650238466424    -0.032632501274     0.749065647225
    C           -0.660405461889    -0.428966149811    -0.243030579923
    H           -1.252161065052    -0.034329988628     1.665267771547
    C            0.499099134057     0.587172340454    -0.330238116587
    H           -1.184606661470    -0.477398401673    -1.189891130000
    H           -0.265139900822    -1.427355138952    -0.055175439334
    C            1.883787255011    -0.052677919675    -0.270906753729
    H            0.428093212708     1.154178709626    -1.251806316165
    H            0.398795516728     1.306463449651     0.473915641932
    H            2.028765291883    -0.757697632265    -1.083055631104
    H            2.668724643746     0.692374022584    -0.338472607041
    H            2.019137688360    -0.593447456686     0.660121226382

gradient() will perform analytic gradient computation.

*** tstart() called on cx1-28-12-4
*** at Sat Sep 10 15:26:07 2016


         ---------------------------------------------------------
                                   SCF
            by Justin Turney, Rob Parrish, and Andy Simmonett
                              RHF Reference
                        4 Threads,   2000 MiB Core
         ---------------------------------------------------------

  ==> Geometry <==

    Molecular point group: c1
    Full point group: C1

    Geometry (in Angstrom), charge = 0, multiplicity = 1:

       Center              X                  Y                   Z               Mass       
    ------------   -----------------  -----------------  -----------------  -----------------
           H         -2.421902758166    -0.665887204530     0.762768472241     1.007825032070
           N         -1.650238466424    -0.032632501274     0.749065647225    14.003074004780
           C         -0.660405461889    -0.428966149811    -0.243030579923    12.000000000000
           H         -1.252161065052    -0.034329988628     1.665267771547     1.007825032070
           C          0.499099134057     0.587172340454    -0.330238116587    12.000000000000
           H         -1.184606661470    -0.477398401673    -1.189891130000     1.007825032070
           H         -0.265139900822    -1.427355138952    -0.055175439334     1.007825032070
           C          1.883787255011    -0.052677919675    -0.270906753729    12.000000000000
           H          0.428093212708     1.154178709626    -1.251806316165     1.007825032070
           H          0.398795516728     1.306463449651     0.473915641932     1.007825032070
           H          2.028765291883    -0.757697632265    -1.083055631104     1.007825032070
           H          2.668724643746     0.692374022584    -0.338472607041     1.007825032070
           H          2.019137688360    -0.593447456686     0.660121226382     1.007825032070

  Running in c1 symmetry.

  Rotational constants: A =      0.69766  B =      0.12644  C =      0.12456 [cm^-1]
  Rotational constants: A =  20915.36595  B =   3790.62111  C =   3734.29510 [MHz]
  Nuclear repulsion =  131.746647336540804

  Charge       = 0
  Multiplicity = 1
  Electrons    = 34
  Nalpha       = 17
  Nbeta        = 17

  ==> Algorithm <==

  SCF Algorithm Type is DF.
  DIIS enabled.
  MOM disabled.
  Fractional occupation disabled.
  Guess Type is READ.
  Energy threshold   = 1.00e-08
  Density threshold  = 1.00e-08
  Integral threshold = 0.00e+00

  ==> Primary Basis <==

  Basis Set: CC-PVTZ
    Number of shells: 94
    Number of basis function: 246
    Number of Cartesian functions: 275
    Spherical Harmonics?: true
    Max angular momentum: 3

  ==> Pre-Iterations <==

   -------------------------------------------------------
    Irrep   Nso     Nmo     Nalpha   Nbeta   Ndocc  Nsocc
   -------------------------------------------------------
     A        246     246       0       0       0       0
   -------------------------------------------------------
    Total     246     246      17      17      17       0
   -------------------------------------------------------

  ==> Integral Setup <==

  ==> DFJK: Density-Fitted J/K Matrices <==

    J tasked:                  Yes
    K tasked:                  Yes
    wK tasked:                  No
    OpenMP threads:              4
    Integrals threads:           4
    Memory (MB):              1430
    Algorithm:                Core
    Integral Cache:           NONE
    Schwarz Cutoff:          1E-12
    Fitting Condition:       1E-12

   => Auxiliary Basis Set <=

  Basis Set: 
    Number of shells: 190
    Number of basis function: 586
    Number of Cartesian functions: 699
    Spherical Harmonics?: true
    Max angular momentum: 4

  Minimum eigenvalue in the overlap matrix is 5.4125944842E-04.
  Using Symmetric Orthogonalization.
  SCF Guess: Reading in previously saved MOs, projecting if necessary.

  Using orbitals from previous SCF, no projection.
  Recomputing DOCC and SOCC from number of alpha and beta electrons from previous calculation.
              A 
    DOCC [    17 ]

  ==> Iterations <==

                           Total Energy        Delta E     RMS |[F,P]|

   @DF-RHF iter   0:  -173.34255865094408   -1.73343e+02   2.38200e-04 
   @DF-RHF iter   1:  -173.34642642138047   -3.86777e-03   2.85422e-05 
   @DF-RHF iter   2:  -173.34646487957068   -3.84582e-05   9.44548e-06 DIIS
   @DF-RHF iter   3:  -173.34646942599514   -4.54642e-06   3.89607e-06 DIIS
   @DF-RHF iter   4:  -173.34647016148639   -7.35491e-07   1.01564e-06 DIIS
   @DF-RHF iter   5:  -173.34647021913068   -5.76443e-08   2.66429e-07 DIIS
   @DF-RHF iter   6:  -173.34647022567347   -6.54279e-09   7.14089e-08 DIIS
   @DF-RHF iter   7:  -173.34647022617256   -4.99085e-10   2.48560e-08 DIIS
   @DF-RHF iter   8:  -173.34647022622008   -4.75211e-11   6.52508e-09 DIIS

  ==> Post-Iterations <==

    Orbital Energies (a.u.)
    -----------------------

    Doubly Occupied:                                                      

       1A    -15.526753     2A    -11.239401     3A    -11.211438  
       4A    -11.207569     5A     -1.177018     6A     -1.033359  
       7A     -0.899209     8A     -0.800133     9A     -0.667574  
      10A     -0.622243    11A     -0.601912    12A     -0.565316  
      13A     -0.539985    14A     -0.489416    15A     -0.478367  
      16A     -0.465040    17A     -0.382654  

    Virtual:                                                              

      18A      0.139922    19A      0.160062    20A      0.175729  
      21A      0.183962    22A      0.215529    23A      0.231018  
      24A      0.234011    25A      0.240296    26A      0.255390  
      27A      0.319949    28A      0.349051    29A      0.361080  
      30A      0.404784    31A      0.409481    32A      0.440749  
      33A      0.456039    34A      0.500934    35A      0.514134  
      36A      0.541459    37A      0.560736    38A      0.589710  
      39A      0.608539    40A      0.616537    41A      0.633023  
      42A      0.641947    43A      0.667346    44A      0.672491  
      45A      0.675277    46A      0.683739    47A      0.688862  
      48A      0.699934    49A      0.719645    50A      0.743396  
      51A      0.761341    52A      0.783626    53A      0.813918  
      54A      0.864621    55A      0.929160    56A      0.957132  
      57A      1.007024    58A      1.010938    59A      1.045571  
      60A      1.087214    61A      1.119145    62A      1.140327  
      63A      1.162500    64A      1.171933    65A      1.194930  
      66A      1.208153    67A      1.219307    68A      1.250830  
      69A      1.276020    70A      1.288736    71A      1.307764  
      72A      1.318471    73A      1.335739    74A      1.346647  
      75A      1.386483    76A      1.404466    77A      1.433220  
      78A      1.440021    79A      1.447896    80A      1.479729  
      81A      1.508373    82A      1.526669    83A      1.547153  
      84A      1.561068    85A      1.578302    86A      1.605444  
      87A      1.624099    88A      1.637727    89A      1.664383  
      90A      1.700682    91A      1.744247    92A      1.757300  
      93A      1.772200    94A      1.811188    95A      1.830337  
      96A      1.868880    97A      1.915796    98A      1.986236  
      99A      1.999042   100A      2.045546   101A      2.104449  
     102A      2.508633   103A      2.587492   104A      2.593788  
     105A      2.635295   106A      2.652202   107A      2.699838  
     108A      2.730217   109A      2.798032   110A      2.815581  
     111A      2.832498   112A      2.852821   113A      2.877938  
     114A      2.903732   115A      2.952167   116A      2.994096  
     117A      3.031736   118A      3.038971   119A      3.068757  
     120A      3.141479   121A      3.147230   122A      3.168994  
     123A      3.201787   124A      3.225263   125A      3.240357  
     126A      3.248422   127A      3.266953   128A      3.297913  
     129A      3.318130   130A      3.326999   131A      3.368514  
     132A      3.389243   133A      3.404122   134A      3.431138  
     135A      3.433550   136A      3.449210   137A      3.479537  
     138A      3.490470   139A      3.518455   140A      3.553266  
     141A      3.584695   142A      3.592361   143A      3.618288  
     144A      3.646450   145A      3.673302   146A      3.682938  
     147A      3.708018   148A      3.737643   149A      3.761838  
     150A      3.765907   151A      3.799226   152A      3.813397  
     153A      3.826312   154A      3.835221   155A      3.877838  
     156A      3.883425   157A      3.901952   158A      3.922184  
     159A      3.937418   160A      3.951240   161A      3.979632  
     162A      4.008808   163A      4.077869   164A      4.106045  
     165A      4.118540   166A      4.145868   167A      4.157034  
     168A      4.164056   169A      4.174000   170A      4.204388  
     171A      4.224468   172A      4.238872   173A      4.243431  
     174A      4.258754   175A      4.280687   176A      4.331903  
     177A      4.368348   178A      4.375077   179A      4.393751  
     180A      4.435089   181A      4.438687   182A      4.448902  
     183A      4.458413   184A      4.483549   185A      4.503868  
     186A      4.523494   187A      4.547248   188A      4.576318  
     189A      4.632284   190A      4.655382   191A      4.664007  
     192A      4.688650   193A      4.698390   194A      4.720046  
     195A      4.761952   196A      4.791469   197A      4.822870  
     198A      4.849761   199A      4.856014   200A      4.912673  
     201A      5.006746   202A      5.056887   203A      5.125053  
     204A      5.143390   205A      5.192027   206A      5.227385  
     207A      5.232891   208A      5.259920   209A      5.285445  
     210A      5.333686   211A      5.371477   212A      5.428028  
     213A      5.446986   214A      5.474856   215A      5.480853  
     216A      5.489344   217A      5.580299   218A      5.599748  
     219A      5.631171   220A      5.709061   221A      5.723539  
     222A      5.742917   223A      5.755457   224A      5.780299  
     225A      5.792651   226A      5.824530   227A      5.883758  
     228A      5.905898   229A      5.950776   230A      6.012275  
     231A      6.082759   232A      6.151313   233A      6.249607  
     234A      6.301676   235A      6.312863   236A      6.337590  
     237A      6.369356   238A      6.423846   239A      6.482717  
     240A      6.586788   241A      6.693641   242A      7.360575  
     243A     12.461588   244A     13.440149   245A     13.914562  
     246A     14.332836  

    Final Occupation by Irrep:
              A 
    DOCC [    17 ]

  Energy converged.

  @DF-RHF Final Energy:  -173.34647022622008

   => Energetics <=

    Nuclear Repulsion Energy =            131.7466473365408035
    One-Electron Energy =                -494.3714585519735465
    Two-Electron Energy =                 189.2783409892124951
    DFT Exchange-Correlation Energy =       0.0000000000000000
    Empirical Dispersion Energy =           0.0000000000000000
    PCM Polarization Energy =               0.0000000000000000
    EFP Energy =                            0.0000000000000000
    Total Energy =                       -173.3464702262202195


  Saving occupied orbitals to File 180.

*** tstop() called on cx1-28-12-4 at Sat Sep 10 15:26:10 2016
Module time:
	user time   =       8.65 seconds =       0.14 minutes
	system time =       0.20 seconds =       0.00 minutes
	total time  =          3 seconds =       0.05 minutes
Total time:
	user time   =      35.53 seconds =       0.59 minutes
	system time =       1.02 seconds =       0.02 minutes
	total time  =         11 seconds =       0.18 minutes


Properties will be evaluated at   0.000000,   0.000000,   0.000000 Bohr

Properties computed using the SCF density matrix

  Nuclear Dipole Moment: (a.u.)
     X:     2.2732      Y:    -0.7528      Z:    -0.3362

  Electronic Dipole Moment: (a.u.)
     X:    -2.1443      Y:     0.3158      Z:     0.4576

  Dipole Moment: (a.u.)
     X:     0.1289      Y:    -0.4370      Z:     0.1214     Total:     0.4715

  Dipole Moment: (Debye)
     X:     0.3277      Y:    -1.1108      Z:     0.3086     Total:     1.1985


*** tstart() called on cx1-28-12-4
*** at Sat Sep 10 15:26:10 2016


         ------------------------------------------------------------
                                   SCF GRAD                          
                          Rob Parrish, Justin Turney,                
                       Andy Simmonett, and Alex Sokolov              
         ------------------------------------------------------------

  ==> Geometry <==

    Molecular point group: c1
    Full point group: C1

    Geometry (in Angstrom), charge = 0, multiplicity = 1:

       Center              X                  Y                   Z               Mass       
    ------------   -----------------  -----------------  -----------------  -----------------
           H         -2.421902758166    -0.665887204530     0.762768472241     1.007825032070
           N         -1.650238466424    -0.032632501274     0.749065647225    14.003074004780
           C         -0.660405461889    -0.428966149811    -0.243030579923    12.000000000000
           H         -1.252161065052    -0.034329988628     1.665267771547     1.007825032070
           C          0.499099134057     0.587172340454    -0.330238116587    12.000000000000
           H         -1.184606661470    -0.477398401673    -1.189891130000     1.007825032070
           H         -0.265139900822    -1.427355138952    -0.055175439334     1.007825032070
           C          1.883787255011    -0.052677919675    -0.270906753729    12.000000000000
           H          0.428093212708     1.154178709626    -1.251806316165     1.007825032070
           H          0.398795516728     1.306463449651     0.473915641932     1.007825032070
           H          2.028765291883    -0.757697632265    -1.083055631104     1.007825032070
           H          2.668724643746     0.692374022584    -0.338472607041     1.007825032070
           H          2.019137688360    -0.593447456686     0.660121226382     1.007825032070

  Nuclear repulsion =  131.746647336540804

  ==> Basis Set <==

  Basis Set: CC-PVTZ
    Number of shells: 94
    Number of basis function: 246
    Number of Cartesian functions: 275
    Spherical Harmonics?: true
    Max angular momentum: 3

  ==> DFJKGrad: Density-Fitted SCF Gradients <==

    Gradient:                    1
    J tasked:                  Yes
    K tasked:                  Yes
    wK tasked:                  No
    OpenMP threads:              4
    Integrals threads:           4
    Memory (MB):              1430
    Schwarz Cutoff:          0E+00
    Fitting Condition:       1E-12

   => Auxiliary Basis Set <=

  Basis Set: 
    Number of shells: 190
    Number of basis function: 586
    Number of Cartesian functions: 699
    Spherical Harmonics?: true
    Max angular momentum: 4


  -Total Gradient:
     Atom            X                  Y                   Z
    ------   -----------------  -----------------  -----------------
       1       -0.000498470014     0.000123929652     0.000509797772
       2       -0.001295670737    -0.001943671067    -0.001713267940
       3        0.001790656416    -0.001137721550     0.000822367051
       4        0.000428006209    -0.000079127236    -0.000246602121
       5       -0.000638831566     0.001683523243     0.001606044590
       6       -0.002493531653     0.000856598994     0.001384499417
       7       -0.001290648379    -0.000942117128    -0.000108378622
       8        0.000703998802     0.001686917982    -0.001005426898
       9        0.002552676823    -0.000760076360    -0.000743249283
      10        0.000590443823     0.000484515764    -0.000533105773
      11        0.000123231302    -0.000065611557    -0.000007813025
      12        0.000736445865    -0.000256767171     0.000062428603
      13       -0.000708306888     0.000349606435    -0.000027293771


*** tstop() called on cx1-28-12-4 at Sat Sep 10 15:26:13 2016
Module time:
	user time   =      12.38 seconds =       0.21 minutes
	system time =       0.31 seconds =       0.01 minutes
	total time  =          3 seconds =       0.05 minutes
Total time:
	user time   =      47.96 seconds =       0.80 minutes
	system time =       1.33 seconds =       0.02 minutes
	total time  =         14 seconds =       0.23 minutes

			-----------------------------------------
			 OPTKING 2.0: for geometry optimizations 
			  - R.A. King,  Bethel University        
			-----------------------------------------

	Previous internal coordinate definitions found.
	---Fragment 1 Geometry and Gradient---
	 H          -4.5767329334       -1.2583444520        1.4414235153
	 N          -3.1184987555       -0.0616664904        1.4155289288
	 C          -1.2479854596       -0.8106285434       -0.4592612380
	 H          -2.3662414872       -0.0648742767        3.1469000261
	 C           0.9431606765        1.1095949163       -0.6240595990
	 H          -2.2385821654       -0.9021522354       -2.2485683636
	 H          -0.5010417995       -2.6973103070       -0.1042664696
	 C           3.5598420046       -0.0995468414       -0.5119395721
	 H           0.8089789314        2.1810816696       -2.3655711090
	 H           0.7536143096        2.4688581225        0.8955707733
	 H           3.8338107896       -1.4318410165       -2.0466785295
	 H           5.0431587008        1.3083972842       -0.6396205308
	 H           3.8156172556       -1.1214531674        1.2474483324
	            -0.0004984700        0.0001239297        0.0005097978
	            -0.0012956707       -0.0019436711       -0.0017132679
	             0.0017906564       -0.0011377215        0.0008223671
	             0.0004280062       -0.0000791272       -0.0002466021
	            -0.0006388316        0.0016835232        0.0016060446
	            -0.0024935317        0.0008565990        0.0013844994
	            -0.0012906484       -0.0009421171       -0.0001083786
	             0.0007039988        0.0016869180       -0.0010054269
	             0.0025526768       -0.0007600764       -0.0007432493
	             0.0005904438        0.0004845158       -0.0005331058
	             0.0001232313       -0.0000656116       -0.0000078130
	             0.0007364459       -0.0002567672        0.0000624286
	            -0.0007083069        0.0003496064       -0.0000272938

	---Fragment 1 Intrafragment Coordinates---
	 - Coordinate -           - BOHR/RAD -       - ANG/DEG -
	 R(1,2)           =         1.886572	       0.998331
	 R(2,3)           =         2.752200	       1.456401
	 R(2,4)           =         1.887736	       0.998947
	 R(3,5)           =         2.918139	       1.544213
	 R(3,6)           =         2.047261	       1.083364
	 R(3,7)           =         2.059979	       1.090094
	 R(5,8)           =         2.884721	       1.526529
	 R(5,9)           =         2.049134	       1.084355
	 R(5,10)          =         2.047633	       1.083561
	 R(8,11)          =         2.050729	       1.085199
	 R(8,12)          =         2.049107	       1.084340
	 R(8,13)          =         2.050649	       1.085156
	 B(1,2,3)         =         1.941279	     111.227122
	 B(1,2,4)         =         1.869575	     107.118764
	 B(2,3,5)         =         1.949507	     111.698525
	 B(2,3,6)         =         1.853213	     106.181274
	 B(2,3,7)         =         1.958740	     112.227530
	 B(3,2,4)         =         1.932079	     110.699945
	 B(3,5,8)         =         1.985689	     113.771585
	 B(3,5,9)         =         1.920808	     110.054220
	 B(3,5,10)        =         1.902227	     108.989578
	 B(5,3,6)         =         1.921309	     110.082881
	 B(5,3,7)         =         1.917863	     109.885451
	 B(5,8,11)        =         1.943791	     111.371033
	 B(5,8,12)        =         1.945719	     111.481476
	 B(5,8,13)        =         1.934100	     110.815769
	 B(6,3,7)         =         1.859927	     106.565987
	 B(8,5,9)         =         1.887677	     108.155932
	 B(8,5,10)        =         1.910668	     109.473210
	 B(9,5,10)        =         1.852045	     106.114356
	 B(11,8,12)       =         1.878686	     107.640756
	 B(11,8,13)       =         1.877247	     107.558314
	 B(12,8,13)       =         1.881340	     107.792851
	 D(1,2,3,5)       =         3.084627	     176.736082
	 D(1,2,3,6)       =         0.989914	      56.717883
	 D(1,2,3,7)       =        -1.035694	     -59.340883
	 D(2,3,5,8)       =         2.282017	     130.749946
	 D(2,3,5,9)       =        -1.879706	    -107.699196
	 D(2,3,5,10)      =         0.144570	       8.283244
	 D(3,5,8,11)      =         1.039462	      59.556806
	 D(3,5,8,12)      =         3.138150	     179.802740
	 D(3,5,8,13)      =        -1.049562	     -60.135474
	 D(4,2,3,5)       =        -1.122153	     -64.294608
	 D(4,2,3,6)       =         3.066320	     175.687192
	 D(4,2,3,7)       =         1.040712	      59.628426
	 D(6,3,5,8)       =        -1.946930	    -111.550860
	*D(6,3,5,9)       =         0.174533	       9.999999
	 D(6,3,5,10)      =         2.198808	     125.982439
	 D(7,3,5,8)       =         0.096318	       5.518597
	 D(7,3,5,9)       =         2.217780	     127.069456
	 D(7,3,5,10)      =        -2.041129	    -116.948104
	 D(9,5,8,11)      =        -1.100313	     -63.043308
	 D(9,5,8,12)      =         0.998374	      57.202626
	 D(9,5,8,13)      =         3.093848	     177.264412
	 D(10,5,8,11)     =        -3.110928	    -178.243031
	 D(10,5,8,12)     =        -1.012240	     -57.997097
	 D(10,5,8,13)     =         1.083233	      62.064689

	Current energy   :      -173.3464702262

	Energy change for the previous step:
		Projected    :        -0.0030711513
		Actual       :        -0.0003660404
	Energy ratio indicates iffy step: Trust radius decreased to 1.250e-01.


	Performing BFGS update.
	Previous computed or guess Hessian on step 1.
	Steps to be used in Hessian update: 1
	Taking RFO optimization step.
	Going to follow RFO solution 1.
	Using RFO vector 1.
	Norm of target step-size    0.03880
	Projected energy change by RFO approximation:        -0.0002894003

	Back-transformation to cartesian coordinates...
	Could not converge backtransformation.
	Using first guess instead.

	Back-transformation to cartesian coordinates to adjust frozen coordinates...
	Successfully converged to displaced geometry.

	--- Internal Coordinate Step in ANG or DEG, aJ/ANG or AJ/DEG ---
	 ---------------------------------------------------------------------------
	   Coordinate                Previous        Force       Change         New 
	   ----------                --------       ------       ------       ------
	    1 R(1,2)          =      0.998331    -0.002584    -0.000231     0.998100
	    2 R(2,3)          =      1.456401     0.004746     0.000586     1.456988
	    3 R(2,4)          =      0.998947     0.000457     0.000007     0.998954
	    4 R(3,5)          =      1.544213    -0.038011    -0.004829     1.539383
	    5 R(3,6)          =      1.083364     0.000345    -0.000030     1.083334
	    6 R(3,7)          =      1.090094    -0.003099    -0.000488     1.089606
	    7 R(5,8)          =      1.526529    -0.000160    -0.000020     1.526508
	    8 R(5,9)          =      1.084355    -0.000553    -0.000174     1.084181
	    9 R(5,10)         =      1.083561     0.001060     0.000013     1.083574
	   10 R(8,11)         =      1.085199    -0.000535    -0.000065     1.085134
	   11 R(8,12)         =      1.084340    -0.002907    -0.000339     1.084002
	   12 R(8,13)         =      1.085156     0.002356     0.000303     1.085459
	   13 B(1,2,3)        =    111.227122    -0.000091    -0.304878   110.922244
	   14 B(1,2,4)        =    107.118764     0.000005    -0.006459   107.112305
	   15 B(2,3,5)        =    111.698525    -0.000198    -0.543820   111.154705
	   16 B(2,3,6)        =    106.181274     0.000123     0.538238   106.719512
	   17 B(2,3,7)        =    112.227530     0.000111     0.314212   112.541742
	   18 B(3,2,4)        =    110.699945     0.000074     0.222907   110.922852
	   19 B(3,5,8)        =    113.771585    -0.000121    -0.347994   113.423591
	   20 B(3,5,9)        =    110.054220    -0.000041    -0.336553   109.717667
	   21 B(3,5,10)       =    108.989578     0.000011    -0.172576   108.817002
	   22 B(5,3,6)        =    110.082881    -0.000028    -0.257514   109.825367
	   23 B(5,3,7)        =    109.885451    -0.000017    -0.373872   109.511579
	   24 B(5,8,11)       =    111.371033    -0.000015    -0.050588   111.320445
	   25 B(5,8,12)       =    111.481476    -0.000091    -0.333095   111.148381
	   26 B(5,8,13)       =    110.815769     0.000100     0.365786   111.181555
	   27 B(6,3,7)        =    106.565987     0.000022     0.379198   106.945185
	   28 B(8,5,9)        =    108.155932     0.000095     0.357902   108.513834
	   29 B(8,5,10)       =    109.473210     0.000050     0.218276   109.691486
	   30 B(9,5,10)       =    106.114356     0.000015     0.329174   106.443530
	   31 B(11,8,12)      =    107.640756     0.000035     0.005570   107.646327
	   32 B(11,8,13)      =    107.558314    -0.000027    -0.006257   107.552057
	   33 B(12,8,13)      =    107.792851    -0.000001     0.020838   107.813690
	   34 D(1,2,3,5)      =    176.736082     0.000001    -0.085398   176.650684
	   35 D(1,2,3,6)      =     56.717883     0.000017     0.200176    56.918058
	   36 D(1,2,3,7)      =    -59.340883    -0.000019    -0.752958   -60.093842
	   37 D(2,3,5,8)      =    130.749946    -0.000005    -0.142105   130.607841
	   38 D(2,3,5,9)      =   -107.699196    -0.000003    -0.167734  -107.866929
	   39 D(2,3,5,10)     =      8.283244    -0.000002    -0.058533     8.224711
	   40 D(3,5,8,11)     =     59.556806     0.000001    -0.088708    59.468099
	   41 D(3,5,8,12)     =    179.802740    -0.000005    -0.341817   179.460923
	   42 D(3,5,8,13)     =    -60.135474    -0.000004    -0.292223   -60.427697
	   43 D(4,2,3,5)      =    -64.294608     0.000001    -0.145861   -64.440469
	   44 D(4,2,3,6)      =    175.687192     0.000016     0.139713   175.826905
	   45 D(4,2,3,7)      =     59.628426    -0.000020    -0.813421    58.815005
	   46 D(6,3,5,8)      =   -111.550860    -0.000002     0.025629  -111.525231
	   47 *D(6,3,5,9)     =      9.999999     0.000000     0.000000     9.999999
	   48 D(6,3,5,10)     =    125.982439     0.000000     0.109201   126.091640
	   49 D(7,3,5,8)      =      5.518597    -0.000002     0.114102     5.632699
	   50 D(7,3,5,9)      =    127.069456     0.000000     0.088473   127.157929
	   51 D(7,3,5,10)     =   -116.948104     0.000000     0.197674  -116.750430
	   52 D(9,5,8,11)     =    -63.043308     0.000016     0.314822   -62.728486
	   53 D(9,5,8,12)     =     57.202626     0.000010     0.061713    57.264339
	   54 D(9,5,8,13)     =    177.264412     0.000011     0.111307   177.375719
	   55 D(10,5,8,11)    =   -178.243031    -0.000006    -0.391931  -178.634962
	   56 D(10,5,8,12)    =    -57.997097    -0.000012    -0.645041   -58.642138
	   57 D(10,5,8,13)    =     62.064689    -0.000011    -0.595446    61.469243
	 ---------------------------------------------------------------------------
	Successfully symmetrized geometry.

  ==> Convergence Check <==

  Measures of convergence in internal coordinates in au.
  Criteria marked as inactive (o), active & met (*), and active & unmet ( ).
  ---------------------------------------------------------------------------------------------
   Step     Total Energy     Delta E     MAX Force     RMS Force      MAX Disp      RMS Disp   
  ---------------------------------------------------------------------------------------------
    Convergence Criteria    1.00e-06 *    3.00e-04 *             o    1.20e-03 *             o
  ---------------------------------------------------------------------------------------------
      2    -173.34647023   -3.66e-04      4.61e-03      9.53e-04 o    1.42e-02      5.14e-03 o  ~
  ---------------------------------------------------------------------------------------------

	Writing optimization data to binary file.
	Structure for next step:
	Cartesian Geometry (in Angstrom)
	    H    -2.4142325282  -0.6610392030   0.7622399784
	    N    -1.6422382517  -0.0285341177   0.7493828159
	    C    -0.6576827669  -0.4294463522  -0.2469768299
	    H    -1.2442580941  -0.0318205771   1.6656309818
	    C     0.4950073351   0.5875066963  -0.3295196873
	    H    -1.1763568397  -0.4748204634  -1.1969936442
	    H    -0.2532332859  -1.4234372245  -0.0581782491
	    C     1.8777626159  -0.0562269340  -0.2676958803
	    H     0.4191431097   1.1523350100  -1.2518327640
	    H     0.3887244124   1.3025429556   0.4776723133
	    H     2.0215317562  -0.7610166428  -1.0801722017
	    H     2.6603249162   0.6905615336  -0.3381473755
	    H     2.0174560495  -0.5968085518   0.6631527278
			--------------------------
			 OPTKING Finished Execution 
			--------------------------

    Structure for next step:
    Molecular point group: c1
    Full point group: C1

    Geometry (in Angstrom), charge = 0, multiplicity = 1:

    H           -2.414616650767    -0.661253257676     0.762173359661
    N           -1.642622374253    -0.028748172352     0.749316197235
    C           -0.658066889469    -0.429660406880    -0.247043448563
    H           -1.244642216658    -0.032034631761     1.665564363130
    C            0.494623212545     0.587292641641    -0.329586305978
    H           -1.176740962301    -0.475034518039    -1.197060262881
    H           -0.253617408493    -1.423651279183    -0.058244867788
    C            1.877378493302    -0.056440988675    -0.267762498988
    H            0.418758987105     1.152120955391    -1.251899382732
    H            0.388340289790     1.302328900952     0.477605694625
    H            2.021147633618    -0.761230697410    -1.080238820394
    H            2.659940793583     0.690347478959    -0.338213994224
    H            2.017071926956    -0.597022606439     0.663086109089

gradient() will perform analytic gradient computation.

*** tstart() called on cx1-28-12-4
*** at Sat Sep 10 15:26:13 2016


         ---------------------------------------------------------
                                   SCF
            by Justin Turney, Rob Parrish, and Andy Simmonett
                              RHF Reference
                        4 Threads,   2000 MiB Core
         ---------------------------------------------------------

  ==> Geometry <==

    Molecular point group: c1
    Full point group: C1

    Geometry (in Angstrom), charge = 0, multiplicity = 1:

       Center              X                  Y                   Z               Mass       
    ------------   -----------------  -----------------  -----------------  -----------------
           H         -2.414616650767    -0.661253257676     0.762173359661     1.007825032070
           N         -1.642622374253    -0.028748172352     0.749316197235    14.003074004780
           C         -0.658066889469    -0.429660406880    -0.247043448563    12.000000000000
           H         -1.244642216658    -0.032034631761     1.665564363130     1.007825032070
           C          0.494623212545     0.587292641641    -0.329586305978    12.000000000000
           H         -1.176740962301    -0.475034518039    -1.197060262881     1.007825032070
           H         -0.253617408493    -1.423651279183    -0.058244867788     1.007825032070
           C          1.877378493302    -0.056440988675    -0.267762498988    12.000000000000
           H          0.418758987105     1.152120955391    -1.251899382732     1.007825032070
           H          0.388340289790     1.302328900952     0.477605694625     1.007825032070
           H          2.021147633618    -0.761230697410    -1.080238820394     1.007825032070
           H          2.659940793583     0.690347478959    -0.338213994224     1.007825032070
           H          2.017071926956    -0.597022606439     0.663086109089     1.007825032070

  Running in c1 symmetry.

  Rotational constants: A =      0.69424  B =      0.12735  C =      0.12547 [cm^-1]
  Rotational constants: A =  20812.83181  B =   3817.96265  C =   3761.54447 [MHz]
  Nuclear repulsion =  131.949774193917790

  Charge       = 0
  Multiplicity = 1
  Electrons    = 34
  Nalpha       = 17
  Nbeta        = 17

  ==> Algorithm <==

  SCF Algorithm Type is DF.
  DIIS enabled.
  MOM disabled.
  Fractional occupation disabled.
  Guess Type is READ.
  Energy threshold   = 1.00e-08
  Density threshold  = 1.00e-08
  Integral threshold = 0.00e+00

  ==> Primary Basis <==

  Basis Set: CC-PVTZ
    Number of shells: 94
    Number of basis function: 246
    Number of Cartesian functions: 275
    Spherical Harmonics?: true
    Max angular momentum: 3

  ==> Pre-Iterations <==

   -------------------------------------------------------
    Irrep   Nso     Nmo     Nalpha   Nbeta   Ndocc  Nsocc
   -------------------------------------------------------
     A        246     246       0       0       0       0
   -------------------------------------------------------
    Total     246     246      17      17      17       0
   -------------------------------------------------------

  ==> Integral Setup <==

  ==> DFJK: Density-Fitted J/K Matrices <==

    J tasked:                  Yes
    K tasked:                  Yes
    wK tasked:                  No
    OpenMP threads:              4
    Integrals threads:           4
    Memory (MB):              1430
    Algorithm:                Core
    Integral Cache:           NONE
    Schwarz Cutoff:          1E-12
    Fitting Condition:       1E-12

   => Auxiliary Basis Set <=

  Basis Set: 
    Number of shells: 190
    Number of basis function: 586
    Number of Cartesian functions: 699
    Spherical Harmonics?: true
    Max angular momentum: 4

  Minimum eigenvalue in the overlap matrix is 5.3306222116E-04.
  Using Symmetric Orthogonalization.
  SCF Guess: Reading in previously saved MOs, projecting if necessary.

  Using orbitals from previous SCF, no projection.
  Recomputing DOCC and SOCC from number of alpha and beta electrons from previous calculation.
              A 
    DOCC [    17 ]

  ==> Iterations <==

                           Total Energy        Delta E     RMS |[F,P]|

   @DF-RHF iter   0:  -173.34806055803477   -1.73348e+02   5.91092e-05 
   @DF-RHF iter   1:  -173.34657406427800    1.48649e-03   6.65760e-06 
   @DF-RHF iter   2:  -173.34657613544363   -2.07117e-06   2.09122e-06 DIIS
   @DF-RHF iter   3:  -173.34657637215417   -2.36711e-07   7.28412e-07 DIIS
   @DF-RHF iter   4:  -173.34657640262992   -3.04757e-08   1.99423e-07 DIIS
   @DF-RHF iter   5:  -173.34657640489951   -2.26959e-09   5.92735e-08 DIIS
   @DF-RHF iter   6:  -173.34657640517690   -2.77396e-10   1.57422e-08 DIIS
   @DF-RHF iter   7:  -173.34657640519555   -1.86446e-11   6.12603e-09 DIIS

  ==> Post-Iterations <==

    Orbital Energies (a.u.)
    -----------------------

    Doubly Occupied:                                                      

       1A    -15.526830     2A    -11.238716     3A    -11.210514  
       4A    -11.207387     5A     -1.177227     6A     -1.033756  
       7A     -0.899561     8A     -0.799688     9A     -0.667896  
      10A     -0.622789    11A     -0.601922    12A     -0.564884  
      13A     -0.540771    14A     -0.489353    15A     -0.477828  
      16A     -0.464974    17A     -0.383063  

    Virtual:                                                              

      18A      0.140089    19A      0.160288    20A      0.175439  
      21A      0.183894    22A      0.215718    23A      0.231442  
      24A      0.234202    25A      0.240346    26A      0.255772  
      27A      0.319960    28A      0.348596    29A      0.361193  
      30A      0.405143    31A      0.409350    32A      0.439593  
      33A      0.457122    34A      0.501510    35A      0.514709  
      36A      0.541134    37A      0.560734    38A      0.589596  
      39A      0.608217    40A      0.616409    41A      0.633029  
      42A      0.641363    43A      0.668132    44A      0.672650  
      45A      0.675702    46A      0.684750    47A      0.689940  
      48A      0.700791    49A      0.720271    50A      0.743307  
      51A      0.762001    52A      0.784025    53A      0.814487  
      54A      0.866730    55A      0.928767    56A      0.956187  
      57A      1.008101    58A      1.012910    59A      1.046204  
      60A      1.087773    61A      1.120208    62A      1.143393  
      63A      1.163866    64A      1.171532    65A      1.196845  
      66A      1.208181    67A      1.220987    68A      1.251984  
      69A      1.273493    70A      1.287601    71A      1.307190  
      72A      1.318433    73A      1.333684    74A      1.347676  
      75A      1.386242    76A      1.405678    77A      1.432155  
      78A      1.439964    79A      1.449063    80A      1.477675  
      81A      1.508172    82A      1.526209    83A      1.550411  
      84A      1.561931    85A      1.581149    86A      1.606426  
      87A      1.627536    88A      1.637919    89A      1.666048  
      90A      1.702045    91A      1.743552    92A      1.756398  
      93A      1.771803    94A      1.812074    95A      1.831101  
      96A      1.868483    97A      1.916022    98A      1.985506  
      99A      1.998281   100A      2.043865   101A      2.104393  
     102A      2.505345   103A      2.587838   104A      2.593888  
     105A      2.637592   106A      2.652202   107A      2.703022  
     108A      2.732083   109A      2.802644   110A      2.815305  
     111A      2.835401   112A      2.855352   113A      2.877839  
     114A      2.906658   115A      2.952328   116A      2.994103  
     117A      3.033390   118A      3.037580   119A      3.071505  
     120A      3.142537   121A      3.146815   122A      3.170035  
     123A      3.201622   124A      3.226372   125A      3.241501  
     126A      3.248463   127A      3.266020   128A      3.299670  
     129A      3.317077   130A      3.329824   131A      3.370395  
     132A      3.388549   133A      3.404323   134A      3.429098  
     135A      3.433756   136A      3.450094   137A      3.480668  
     138A      3.492840   139A      3.516908   140A      3.552930  
     141A      3.585877   142A      3.592981   143A      3.621226  
     144A      3.646927   145A      3.673655   146A      3.684743  
     147A      3.707546   148A      3.739795   149A      3.762171  
     150A      3.766692   151A      3.799260   152A      3.814722  
     153A      3.828779   154A      3.836704   155A      3.879088  
     156A      3.885815   157A      3.903637   158A      3.920391  
     159A      3.943695   160A      3.955628   161A      3.979958  
     162A      4.011815   163A      4.077885   164A      4.107858  
     165A      4.118809   166A      4.143601   167A      4.158365  
     168A      4.167773   169A      4.174527   170A      4.206453  
     171A      4.223429   172A      4.240336   173A      4.246319  
     174A      4.259749   175A      4.279685   176A      4.335010  
     177A      4.366606   178A      4.375712   179A      4.394343  
     180A      4.437788   181A      4.439586   182A      4.449161  
     183A      4.454556   184A      4.484415   185A      4.503319  
     186A      4.526316   187A      4.551208   188A      4.575556  
     189A      4.631653   190A      4.654389   191A      4.664428  
     192A      4.690707   193A      4.700524   194A      4.719255  
     195A      4.762278   196A      4.795411   197A      4.827690  
     198A      4.853793   199A      4.859632   200A      4.915222  
     201A      5.007864   202A      5.059520   203A      5.128238  
     204A      5.146174   205A      5.196394   206A      5.227153  
     207A      5.233808   208A      5.259703   209A      5.285800  
     210A      5.336447   211A      5.374814   212A      5.428899  
     213A      5.445069   214A      5.474168   215A      5.483090  
     216A      5.493198   217A      5.582655   218A      5.602101  
     219A      5.633461   220A      5.706671   221A      5.728601  
     222A      5.744662   223A      5.757767   224A      5.782632  
     225A      5.791954   226A      5.824694   227A      5.888385  
     228A      5.902562   229A      5.952022   230A      6.014116  
     231A      6.090070   232A      6.152779   233A      6.245868  
     234A      6.300759   235A      6.314511   236A      6.337988  
     237A      6.369916   238A      6.424169   239A      6.482430  
     240A      6.588779   241A      6.691253   242A      7.362024  
     243A     12.475885   244A     13.465917   245A     13.931180  
     246A     14.341561  

    Final Occupation by Irrep:
              A 
    DOCC [    17 ]

  Energy converged.

  @DF-RHF Final Energy:  -173.34657640519555

   => Energetics <=

    Nuclear Repulsion Energy =            131.9497741939177899
    One-Electron Energy =                -494.7783865203338109
    Two-Electron Energy =                 189.4820359212204153
    DFT Exchange-Correlation Energy =       0.0000000000000000
    Empirical Dispersion Energy =           0.0000000000000000
    PCM Polarization Energy =               0.0000000000000000
    EFP Energy =                            0.0000000000000000
    Total Energy =                       -173.3465764051956057


  Saving occupied orbitals to File 180.

*** tstop() called on cx1-28-12-4 at Sat Sep 10 15:26:16 2016
Module time:
	user time   =       8.15 seconds =       0.14 minutes
	system time =       0.14 seconds =       0.00 minutes
	total time  =          3 seconds =       0.05 minutes
Total time:
	user time   =      56.87 seconds =       0.95 minutes
	system time =       1.50 seconds =       0.03 minutes
	total time  =         17 seconds =       0.28 minutes


Properties will be evaluated at   0.000000,   0.000000,   0.000000 Bohr

Properties computed using the SCF density matrix

  Nuclear Dipole Moment: (a.u.)
     X:     2.2694      Y:    -0.7550      Z:    -0.3371

  Electronic Dipole Moment: (a.u.)
     X:    -2.1430      Y:     0.3166      Z:     0.4573

  Dipole Moment: (a.u.)
     X:     0.1263      Y:    -0.4383      Z:     0.1203     Total:     0.4718

  Dipole Moment: (Debye)
     X:     0.3211      Y:    -1.1142      Z:     0.3057     Total:     1.1991


*** tstart() called on cx1-28-12-4
*** at Sat Sep 10 15:26:16 2016


         ------------------------------------------------------------
                                   SCF GRAD                          
                          Rob Parrish, Justin Turney,                
                       Andy Simmonett, and Alex Sokolov              
         ------------------------------------------------------------

  ==> Geometry <==

    Molecular point group: c1
    Full point group: C1

    Geometry (in Angstrom), charge = 0, multiplicity = 1:

       Center              X                  Y                   Z               Mass       
    ------------   -----------------  -----------------  -----------------  -----------------
           H         -2.414616650767    -0.661253257676     0.762173359661     1.007825032070
           N         -1.642622374253    -0.028748172352     0.749316197235    14.003074004780
           C         -0.658066889469    -0.429660406880    -0.247043448563    12.000000000000
           H         -1.244642216658    -0.032034631761     1.665564363130     1.007825032070
           C          0.494623212545     0.587292641641    -0.329586305978    12.000000000000
           H         -1.176740962301    -0.475034518039    -1.197060262881     1.007825032070
           H         -0.253617408493    -1.423651279183    -0.058244867788     1.007825032070
           C          1.877378493302    -0.056440988675    -0.267762498988    12.000000000000
           H          0.418758987105     1.152120955391    -1.251899382732     1.007825032070
           H          0.388340289790     1.302328900952     0.477605694625     1.007825032070
           H          2.021147633618    -0.761230697410    -1.080238820394     1.007825032070
           H          2.659940793583     0.690347478959    -0.338213994224     1.007825032070
           H          2.017071926956    -0.597022606439     0.663086109089     1.007825032070

  Nuclear repulsion =  131.949774193917790

  ==> Basis Set <==

  Basis Set: CC-PVTZ
    Number of shells: 94
    Number of basis function: 246
    Number of Cartesian functions: 275
    Spherical Harmonics?: true
    Max angular momentum: 3

  ==> DFJKGrad: Density-Fitted SCF Gradients <==

    Gradient:                    1
    J tasked:                  Yes
    K tasked:                  Yes
    wK tasked:                  No
    OpenMP threads:              4
    Integrals threads:           4
    Memory (MB):              1430
    Schwarz Cutoff:          0E+00
    Fitting Condition:       1E-12

   => Auxiliary Basis Set <=

  Basis Set: 
    Number of shells: 190
    Number of basis function: 586
    Number of Cartesian functions: 699
    Spherical Harmonics?: true
    Max angular momentum: 4


  -Total Gradient:
     Atom            X                  Y                   Z
    ------   -----------------  -----------------  -----------------
       1        0.000140905428     0.000028781605    -0.000083799759
       2        0.000191827436    -0.000071916340     0.000053632371
       3        0.001521587706    -0.002224392322    -0.000924368947
       4       -0.000071166136     0.000078056837     0.000090126041
       5       -0.001775002452     0.002165582958     0.001557939925
       6       -0.001369045458     0.001489422352     0.000528970686
       7        0.000045414458    -0.000198108711    -0.000086853567
       8        0.000002121059     0.000022886175    -0.000172559139
       9        0.001345202625    -0.001383605114    -0.000998755671
      10       -0.000044833013     0.000127541675    -0.000026600697
      11        0.000096952872    -0.000033503600     0.000025047256
      12       -0.000028954434    -0.000006962561    -0.000020601104
      13       -0.000055010091     0.000006217047     0.000057822607


*** tstop() called on cx1-28-12-4 at Sat Sep 10 15:26:19 2016
Module time:
	user time   =      12.19 seconds =       0.20 minutes
	system time =       0.31 seconds =       0.01 minutes
	total time  =          3 seconds =       0.05 minutes
Total time:
	user time   =      69.11 seconds =       1.15 minutes
	system time =       1.81 seconds =       0.03 minutes
	total time  =         20 seconds =       0.33 minutes

			-----------------------------------------
			 OPTKING 2.0: for geometry optimizations 
			  - R.A. King,  Bethel University        
			-----------------------------------------

	Previous internal coordinate definitions found.
	---Fragment 1 Geometry and Gradient---
	 H          -4.5629641859       -1.2495875615        1.4402989155
[...]
           N         -1.644281828952    -0.031038540099     0.746990276181    14.003074004780
           C         -0.656478689795    -0.430137457918    -0.247400637777    12.000000000000
           H         -1.248394156318    -0.038145990067     1.664100148369     1.007825032070
           C          0.494559696356     0.588363559186    -0.327104892216    12.000000000000
           H         -1.173714885674    -0.474439762576    -1.198011101692     1.007825032070
           H         -0.251475594481    -1.423327360772    -0.057687098375     1.007825032070
           C          1.877874710232    -0.054386083646    -0.267085090610    12.000000000000
           H          0.417895155599     1.153889782726    -1.248814664302     1.007825032070
           H          0.387685867273     1.300990044546     0.481960829238     1.007825032070
           H          2.021049018946    -0.756330441263    -1.082129944903     1.007825032070
           H          2.660074020445     0.693017392167    -0.335643697364     1.007825032070
           H          2.018688299869    -0.598053297978     0.661700618069     1.007825032070

  Nuclear repulsion =  131.952519457537534

  ==> Basis Set <==

  Basis Set: CC-PVTZ
    Number of shells: 94
    Number of basis function: 246
    Number of Cartesian functions: 275
    Spherical Harmonics?: true
    Max angular momentum: 3

  ==> DFJKGrad: Density-Fitted SCF Gradients <==

    Gradient:                    1
    J tasked:                  Yes
    K tasked:                  Yes
    wK tasked:                  No
    OpenMP threads:              4
    Integrals threads:           4
    Memory (MB):              1430
    Schwarz Cutoff:          0E+00
    Fitting Condition:       1E-12

   => Auxiliary Basis Set <=

  Basis Set: 
    Number of shells: 190
    Number of basis function: 586
    Number of Cartesian functions: 699
    Spherical Harmonics?: true
    Max angular momentum: 4


  -Total Gradient:
     Atom            X                  Y                   Z
    ------   -----------------  -----------------  -----------------
       1       -0.000016281604     0.000000391457     0.000011924251
       2        0.000020335118    -0.000019872254    -0.000028697634
       3        0.002079807844    -0.002439399249    -0.001130038871
       4        0.000005138416    -0.000002198430    -0.000008740605
       5       -0.001948636178     0.002336606830     0.001508144002
       6       -0.001437689777     0.001686544989     0.000711460161
       7       -0.000001684535     0.000012707129     0.000003594997
       8       -0.000011299539     0.000010148171     0.000010528883
       9        0.001309790157    -0.001588063041    -0.001077100413
      10        0.000001822272    -0.000002477357     0.000005590693
      11       -0.000010453864    -0.000004368891     0.000001361216
      12        0.000005775003     0.000004517768    -0.000004403290
      13        0.000003376687     0.000005462881    -0.000003623390


*** tstop() called on cx1-28-12-4 at Sat Sep 10 15:26:31 2016
Module time:
	user time   =      11.74 seconds =       0.20 minutes
	system time =       0.28 seconds =       0.00 minutes
	total time  =          3 seconds =       0.05 minutes
Total time:
	user time   =     110.73 seconds =       1.85 minutes
	system time =       2.78 seconds =       0.05 minutes
	total time  =         32 seconds =       0.53 minutes

			-----------------------------------------
			 OPTKING 2.0: for geometry optimizations 
			  - R.A. King,  Bethel University        
			-----------------------------------------

	Previous internal coordinate definitions found.
	---Fragment 1 Geometry and Gradient---
	 H          -4.5677908341       -1.2524071491        1.4291161745
	 N          -3.1072423420       -0.0586543404        1.4116070459
	 C          -1.2405649358       -0.8128419950       -0.4675194505
	 H          -2.3591230613       -0.0720854743        3.1446935381
	 C           0.9345823825        1.1118459934       -0.6181386630
	 H          -2.2179996920       -0.8965612178       -2.2639128864
	 H          -0.4752200027       -2.6896989093       -0.1090128173
	 C           3.5486689142       -0.1027748035       -0.5047176754
	 H           0.7897073963        2.1805356769       -2.3599177063
	 H           0.7326201147        2.4585148858        0.9107739740
	 H           3.8192291469       -1.4292574000       -2.0449292361
	 H           5.0268113918        1.3096130765       -0.6342746662
	 H           3.8147680344       -1.1301569460        1.2504329501
	            -0.0000162816        0.0000003915        0.0000119243
	             0.0000203351       -0.0000198723       -0.0000286976
	             0.0020798078       -0.0024393992       -0.0011300389
	             0.0000051384       -0.0000021984       -0.0000087406
	            -0.0019486362        0.0023366068        0.0015081440
	            -0.0014376898        0.0016865450        0.0007114602
	            -0.0000016845        0.0000127071        0.0000035950
	            -0.0000112995        0.0000101482        0.0000105289
	             0.0013097902       -0.0015880630       -0.0010771004
	             0.0000018223       -0.0000024774        0.0000055907
	            -0.0000104539       -0.0000043689        0.0000013612
	             0.0000057750        0.0000045178       -0.0000044033
	             0.0000033767        0.0000054629       -0.0000036234

	---Fragment 1 Intrafragment Coordinates---
	 - Coordinate -           - BOHR/RAD -       - ANG/DEG -
	 R(1,2)           =         1.886413	       0.998247
	 R(2,3)           =         2.753979	       1.457343
	 R(2,4)           =         1.887711	       0.998933
	 R(3,5)           =         2.908329	       1.539021
	 R(3,6)           =         2.046807	       1.083123
	 R(3,7)           =         2.058366	       1.089241
	 R(5,8)           =         2.884721	       1.526529
	 R(5,9)           =         2.048629	       1.084088
	 R(5,10)          =         2.047408	       1.083442
	 R(8,11)          =         2.050612	       1.085137
	 R(8,12)          =         2.048543	       1.084042
	 R(8,13)          =         2.051067	       1.085378
	 B(1,2,3)         =         1.936736	     110.966794
	 B(1,2,4)         =         1.869015	     107.086668
	 B(2,3,5)         =         1.940181	     111.164185
	 B(2,3,6)         =         1.861234	     106.640831
	 B(2,3,7)         =         1.963717	     112.512675
	 B(3,2,4)         =         1.934640	     110.846714
	 B(3,5,8)         =         1.979101	     113.394161
	 B(3,5,9)         =         1.913855	     109.655803
	 B(3,5,10)        =         1.899520	     108.834498
	 B(5,3,6)         =         1.916406	     109.801966
	 B(5,3,7)         =         1.911724	     109.533719
	 B(5,8,11)        =         1.941636	     111.247576
	 B(5,8,12)        =         1.940220	     111.166417
	 B(5,8,13)        =         1.941334	     111.230250
	 B(6,3,7)         =         1.868292	     107.045228
	 B(8,5,9)         =         1.893529	     108.491208
	 B(8,5,10)        =         1.914496	     109.692536
	 B(9,5,10)        =         1.859604	     106.547440
	 B(11,8,12)       =         1.878936	     107.655105
	 B(11,8,13)       =         1.877164	     107.553591
	 B(12,8,13)       =         1.881635	     107.809764
	 D(1,2,3,5)       =         3.079761	     176.457305
	 D(1,2,3,6)       =         0.991281	      56.796190
	 D(1,2,3,7)       =        -1.051954	     -60.272503
	 D(2,3,5,8)       =         2.283032	     130.808077
	 D(2,3,5,9)       =        -1.880783	    -107.760913
	 D(2,3,5,10)      =         0.147145	       8.430809
	 D(3,5,8,11)      =         1.038128	      59.480375
	 D(3,5,8,12)      =         3.131950	     179.447517
	 D(3,5,8,13)      =        -1.054199	     -60.401174
	 D(4,2,3,5)       =        -1.128991	     -64.686409
	 D(4,2,3,6)       =         3.065714	     175.652477
	 D(4,2,3,7)       =         1.022480	      58.583784
	 D(6,3,5,8)       =        -1.944838	    -111.431011
	*D(6,3,5,9)       =         0.174533	       9.999999
	 D(6,3,5,10)      =         2.202461	     126.191721
	 D(7,3,5,8)       =         0.102060	       5.847594
	 D(7,3,5,9)       =         2.221431	     127.278604
	 D(7,3,5,10)      =        -2.033826	    -116.529674
	 D(9,5,8,11)      =        -1.092597	     -62.601204
	 D(9,5,8,12)      =         1.001224	      57.365937
	 D(9,5,8,13)      =         3.098260	     177.517247
	 D(10,5,8,11)     =        -3.117501	    -178.619678
	 D(10,5,8,12)     =        -1.023680	     -58.652536
	 D(10,5,8,13)     =         1.073356	      61.498773

	Current energy   :      -173.3465779557

	Energy change for the previous step:
		Projected    :         0.0000010634
		Actual       :        -0.0000001600

	Performing BFGS update.
	Previous computed or guess Hessian on step 1.
	Steps to be used in Hessian update: 4 3
	Taking RFO optimization step.
	Going to follow RFO solution 1.
	Using RFO vector 1.
	Norm of target step-size    0.00366
	Projected energy change by RFO approximation:         0.0000000249

	Back-transformation to cartesian coordinates...
	Successfully converged to displaced geometry.

	Back-transformation to cartesian coordinates to adjust frozen coordinates...
	Successfully converged to displaced geometry.

	--- Internal Coordinate Step in ANG or DEG, aJ/ANG or AJ/DEG ---
	 ---------------------------------------------------------------------------
	   Coordinate                Previous        Force       Change         New 
	   ----------                --------       ------       ------       ------
	    1 R(1,2)          =      0.998247    -0.000103    -0.000011     0.998236
	    2 R(2,3)          =      1.457343     0.000244     0.000049     1.457392
	    3 R(2,4)          =      0.998933     0.000049     0.000009     0.998943
	    4 R(3,5)          =      1.539021     0.000037     0.000001     1.539022
	    5 R(3,6)          =      1.083123     0.000056     0.000008     1.083131
	    6 R(3,7)          =      1.089241     0.000095     0.000007     1.089248
	    7 R(5,8)          =      1.526529     0.000148     0.000028     1.526557
	    8 R(5,9)          =      1.084088     0.000044     0.000003     1.084090
	    9 R(5,10)         =      1.083442    -0.000019    -0.000002     1.083439
	   10 R(8,11)         =      1.085137    -0.000003     0.000002     1.085139
	   11 R(8,12)         =      1.084042    -0.000062    -0.000009     1.084033
	   12 R(8,13)         =      1.085378     0.000044     0.000003     1.085381
	   13 B(1,2,3)        =    110.966794    -0.000002    -0.009873   110.956921
	   14 B(1,2,4)        =    107.086668     0.000000    -0.000505   107.086163
	   15 B(2,3,5)        =    111.164185    -0.000001    -0.002712   111.161474
	   16 B(2,3,6)        =    106.640831     0.000000     0.001560   106.642391
	   17 B(2,3,7)        =    112.512675     0.000000     0.000073   112.512748
	   18 B(3,2,4)        =    110.846714     0.000001     0.006164   110.852878
	   19 B(3,5,8)        =    113.394161    -0.000001    -0.003129   113.391032
	   20 B(3,5,9)        =    109.655803     0.000001     0.008986   109.664789
	   21 B(3,5,10)       =    108.834498    -0.000000    -0.002196   108.832301
	   22 B(5,3,6)        =    109.801966     0.000000     0.000384   109.802350
	   23 B(5,3,7)        =    109.533719     0.000000     0.002317   109.536037
	   24 B(5,8,11)       =    111.247576     0.000001     0.004226   111.251802
	   25 B(5,8,12)       =    111.166417    -0.000000    -0.000674   111.165743
	   26 B(5,8,13)       =    111.230250    -0.000000    -0.002000   111.228249
	   27 B(6,3,7)        =    107.045228    -0.000000    -0.001609   107.043619
	   28 B(8,5,9)        =    108.491208    -0.000000    -0.001006   108.490202
	   29 B(8,5,10)       =    109.692536     0.000001     0.000020   109.692556
	   30 B(9,5,10)       =    106.547440    -0.000001    -0.002622   106.544818
	   31 B(11,8,12)      =    107.655105    -0.000000    -0.001303   107.653802
	   32 B(11,8,13)      =    107.553591    -0.000000     0.000488   107.554078
	   33 B(12,8,13)      =    107.809764     0.000000    -0.000824   107.808940
	   34 D(1,2,3,5)      =    176.457305    -0.000000    -0.005929   176.451375
	   35 D(1,2,3,6)      =     56.796190     0.000000    -0.005824    56.790366
	   36 D(1,2,3,7)      =    -60.272503     0.000000    -0.004877   -60.277380
	   37 D(2,3,5,8)      =    130.808077     0.000000    -0.003596   130.804481
	   38 D(2,3,5,9)      =   -107.760913     0.000000    -0.000509  -107.761422
	   39 D(2,3,5,10)     =      8.430809     0.000000     0.000100     8.430909
	   40 D(3,5,8,11)     =     59.480375     0.000000     0.074190    59.554565
	   41 D(3,5,8,12)     =    179.447517     0.000000     0.074925   179.522442
	   42 D(3,5,8,13)     =    -60.401174     0.000000     0.072079   -60.329095
	   43 D(4,2,3,5)      =    -64.686409    -0.000000    -0.008948   -64.695356
	   44 D(4,2,3,6)      =    175.652477    -0.000000    -0.008843   175.643634
	   45 D(4,2,3,7)      =     58.583784     0.000000    -0.007895    58.575888
	   46 D(6,3,5,8)      =   -111.431011     0.000000    -0.003087  -111.434098
	   47 *D(6,3,5,9)     =      9.999999    -0.000000     0.000000     9.999999
	   48 D(6,3,5,10)     =    126.191721     0.000000     0.000610   126.192330
	   49 D(7,3,5,8)      =      5.847594    -0.000000    -0.003452     5.844143
	   50 D(7,3,5,9)      =    127.278604    -0.000000    -0.000365   127.278239
	   51 D(7,3,5,10)     =   -116.529674     0.000000     0.000245  -116.529429
	   52 D(9,5,8,11)     =    -62.601204    -0.000000     0.065523   -62.535681
	   53 D(9,5,8,12)     =     57.365937    -0.000000     0.066258    57.432195
	   54 D(9,5,8,13)     =    177.517247    -0.000000     0.063412   177.580659
	   55 D(10,5,8,11)    =   -178.619678     0.000000     0.069209  -178.550468
	   56 D(10,5,8,12)    =    -58.652536     0.000000     0.069944   -58.582592
	   57 D(10,5,8,13)    =     61.498773     0.000000     0.067098    61.565872
	 ---------------------------------------------------------------------------
	Successfully symmetrized geometry.

  ==> Convergence Check <==

  Measures of convergence in internal coordinates in au.
  Criteria marked as inactive (o), active & met (*), and active & unmet ( ).
  ---------------------------------------------------------------------------------------------
   Step     Total Energy     Delta E     MAX Force     RMS Force      MAX Disp      RMS Disp   
  ---------------------------------------------------------------------------------------------
    Convergence Criteria    1.00e-06 *    3.00e-04 *             o    1.20e-03 *             o
  ---------------------------------------------------------------------------------------------
      5    -173.34657796   -1.60e-07 *    2.96e-05 *    8.82e-06 o    1.31e-03      4.84e-04 o  ~
  ---------------------------------------------------------------------------------------------


  **** Optimization is complete! (in 5 steps) ****

  ==> Optimization Summary <==

  Measures of convergence in internal coordinates in au.
  --------------------------------------------------------------------------------------------------------------- ~
   Step         Total Energy             Delta E       MAX Force       RMS Force        MAX Disp        RMS Disp  ~
  --------------------------------------------------------------------------------------------------------------- ~
      1    -173.346104185825   -173.346104185825      0.01310017      0.00212209      0.04319323      0.01510745  ~
      2    -173.346470226220     -0.000366040395      0.00461373      0.00095292      0.01419687      0.00514184  ~
      3    -173.346576405196     -0.000106178975      0.00022900      0.00008207      0.00541457      0.00209755  ~
      4    -173.346577795701     -0.000001390506      0.00010264      0.00002714      0.00355963      0.00134382  ~
      5    -173.346577955747     -0.000000160045      0.00002958      0.00000882      0.00130768      0.00048422  ~
  --------------------------------------------------------------------------------------------------------------- ~

	Writing optimization data to binary file.
	Final energy is   -173.3465779557468
	Final (previous) structure:
	Cartesian Geometry (in Angstrom)
	    H    -2.4171708030  -0.6627453192   0.7562557080
	    N    -1.6442818290  -0.0310385401   0.7469902762
	    C    -0.6564786898  -0.4301374579  -0.2474006378
	    H    -1.2483941563  -0.0381459901   1.6641001484
	    C     0.4945596964   0.5883635592  -0.3271048922
	    H    -1.1737148857  -0.4744397626  -1.1980111017
	    H    -0.2514755945  -1.4233273608  -0.0576870984
	    C     1.8778747102  -0.0543860836  -0.2670850906
	    H     0.4178951556   1.1538897827  -1.2488146643
	    H     0.3876858673   1.3009900445   0.4819608292
	    H     2.0210490189  -0.7563304413  -1.0821299449
	    H     2.6600740204   0.6930173922  -0.3356436974
	    H     2.0186882999  -0.5980532980   0.6617006181
	Saving final (previous) structure.
			--------------------------
			 OPTKING Finished Execution 
			--------------------------

    Final optimized geometry and variables:
    Molecular point group: c1
    Full point group: C1

    Geometry (in Angstrom), charge = 0, multiplicity = 1:

    H           -2.417170803002    -0.662745319170     0.756255707978
    N           -1.644281828952    -0.031038540099     0.746990276181
    C           -0.656478689795    -0.430137457918    -0.247400637777
    H           -1.248394156318    -0.038145990067     1.664100148369
    C            0.494559696356     0.588363559186    -0.327104892216
    H           -1.173714885674    -0.474439762576    -1.198011101692
    H           -0.251475594481    -1.423327360772    -0.057687098375
    C            1.877874710232    -0.054386083646    -0.267085090610
    H            0.417895155599     1.153889782726    -1.248814664302
    H            0.387685867273     1.300990044546     0.481960829238
    H            2.021049018946    -0.756330441263    -1.082129944903
    H            2.660074020445     0.693017392167    -0.335643697364
    H            2.018688299869    -0.598053297978     0.661700618069

	Cleaning optimization helper files.


Properties will be evaluated at   0.000000,   0.000000,   0.000000 Bohr

Properties computed using the  density matrix

  Nuclear Dipole Moment: (a.u.)
     X:     2.2684      Y:    -0.7547      Z:    -0.3380

  Electronic Dipole Moment: (a.u.)
     X:    -2.1426      Y:     0.3152      Z:     0.4571

  Dipole Moment: (a.u.)
     X:     0.1258      Y:    -0.4395      Z:     0.1191     Total:     0.4724

  Dipole Moment: (Debye)
     X:     0.3198      Y:    -1.1172      Z:     0.3027     Total:     1.2008

  Quadrupole Moment: (Debye Ang)
    XX:   -28.4758     YY:   -28.2356     ZZ:   -25.3945
    XY:     3.1801     XZ:    -0.1653     YZ:    -0.7945

  Traceless Quadrupole Moment: (Debye Ang)
    XX:    -1.1072     YY:    -0.8670     ZZ:     1.9742
    XY:     3.1801     XZ:    -0.1653     YZ:    -0.7945

  Mulliken Charges: (a.u.)
   Center  Symbol    Alpha    Beta     Spin     Total
       1     H     0.42967  0.42967  0.00000  0.14065
       2     N     3.68896  3.68896  0.00000 -0.37793
       3     C     3.03039  3.03039  0.00000 -0.06078
       4     H     0.43097  0.43097  0.00000  0.13806
       5     C     3.08557  3.08557  0.00000 -0.17115
       6     H     0.45552  0.45552  0.00000  0.08896
       7     H     0.46593  0.46593  0.00000  0.06815
       8     C     3.14917  3.14917  0.00000 -0.29834
       9     H     0.45180  0.45180  0.00000  0.09640
      10     H     0.44964  0.44964  0.00000  0.10072
      11     H     0.45570  0.45570  0.00000  0.08860
      12     H     0.44952  0.44952  0.00000  0.10095
      13     H     0.45715  0.45715  0.00000  0.08570

   Total alpha = 17.00000, Total beta = 17.00000, Total charge =  0.00000


*** Psi4 exiting successfully. Buy a developer a beer!
