    -----------------------------------------------------------------------
          Psi4: An Open-Source Ab Initio Electronic Structure Package
                              Psi4 (no tag) Driver

                          Git: Rev {detached?}  

    J. M. Turney, A. C. Simmonett, R. M. Parrish, E. G. Hohenstein,
    F. A. Evangelista, J. T. Fermann, B. J. Mintz, L. A. Burns, J. J. Wilke,
    M. L. Abrams, N. J. Russ, M. L. Leininger, C. L. Janssen, E. T. Seidl,
    W. D. Allen, H. F. Schaefer, R. A. King, E. F. Valeev, C. D. Sherrill,
    and T. D. Crawford, WIREs Comput. Mol. Sci. 2, 556-565 (2012)
    (doi: 10.1002/wcms.93)

                         Additional Contributions by
    A. E. DePrince, M. Saitow, U. Bozkaya, A. Yu. Sokolov
    -----------------------------------------------------------------------


    Psi4 started on: Fri Sep  2 14:40:29 2016

    Process ID:   5161
    PSI4DATADIR: /export131/home/mjharvey/miniconda3/share
    Memory level set to 256.000 MB

  ==> Input File <==

--------------------------------------------------------------------------
set {
	reference rhf
	basis 6-31G*
}


set_num_threads( 4 )
memory 2 gb

molecule MOL {
0 1

H	 -2.646374	 -0.642757	 1.268656
C	 -2.083525	 -0.384536	 0.393091
O	 -0.807605	 -0.127164	 0.768327
F	 -2.118945	 -1.383102	 -0.486752
F	 -2.621877	 0.670592	 -0.209486
C	 0.084052	 0.273579	 -0.209957
C	 -0.447247	 1.578756	 -0.788226
Cl	 0.227384	 -0.956975	 -1.475819
H	 1.069357	 0.453957	 0.182997
F	 0.361922	 2.030385	 -1.722793
F	 -0.502997	 2.477680	 0.174201
F	 -1.646808	 1.441804	 -1.298393

	symmetry c1
}
set optking {
	frozen_dihedral = ("
		9 6 3 2
	")
}

ee = optimize('scf')
oeprop('DIPOLE', 'QUADRUPOLE', 'MULLIKEN_CHARGES')
f=open( 'psi4out.xyz', 'w' )
f.write( "12  " )
f.write( str(ee) + "\n" )
f.write( MOL.save_string_xyz() )
f.close()
--------------------------------------------------------------------------

  Memory set to   2.000 GiB by Python script.
gradient() will perform analytic gradient computation.

*** tstart() called on cx1-1-3-2.cx1.hpc.ic.ac.uk
*** at Fri Sep  2 14:40:30 2016


         ---------------------------------------------------------
                                   SCF
            by Justin Turney, Rob Parrish, and Andy Simmonett
                              RHF Reference
                        4 Threads,   2000 MiB Core
         ---------------------------------------------------------

  ==> Geometry <==

    Molecular point group: c1
    Full point group: C1

    Geometry (in Angstrom), charge = 0, multiplicity = 1:

       Center              X                  Y                   Z               Mass       
    ------------   -----------------  -----------------  -----------------  -----------------
           H         -1.776939111541    -1.085360898246     1.879794595468     1.007825032070
           C         -1.214090111541    -0.827139898246     1.004229595468    12.000000000000
           O          0.061829888459    -0.569767898246     1.379465595468    15.994914619560
           F         -1.249510111541    -1.825705898246     0.124386595468    18.998403224000
           F         -1.752442111541     0.227988101754     0.401652595468    18.998403224000
           C          0.953486888459    -0.169024898246     0.401181595468    12.000000000000
           C          0.422187888459     1.136152101754    -0.177087404532    12.000000000000
          CL          1.096818888459    -1.399578898246    -0.864680404532    34.968852682000
           H          1.938791888459     0.011353101754     0.794135595468     1.007825032070
           F          1.231356888459     1.587781101754    -1.111654404532    18.998403224000
           F          0.366437888459     2.035076101754     0.785339595468    18.998403224000
           F         -0.777373111541     0.999200101754    -0.687254404532    18.998403224000

  Running in c1 symmetry.

  Rotational constants: A =      0.05309  B =      0.04145  C =      0.03010 [cm^-1]
  Rotational constants: A =   1591.52391  B =   1242.55091  C =    902.32815 [MHz]
  Nuclear repulsion =  790.841643514600150

  Charge       = 0
  Multiplicity = 1
  Electrons    = 90
  Nalpha       = 45
  Nbeta        = 45

  ==> Algorithm <==

  SCF Algorithm Type is DF.
  DIIS enabled.
  MOM disabled.
  Fractional occupation disabled.
  Guess Type is CORE.
  Energy threshold   = 1.00e-08
  Density threshold  = 1.00e-08
  Integral threshold = 0.00e+00

  ==> Primary Basis <==

  Basis Set: 6-31G*
    Number of shells: 66
    Number of basis function: 158
    Number of Cartesian functions: 158
    Spherical Harmonics?: false
    Max angular momentum: 2

  ==> Pre-Iterations <==

   -------------------------------------------------------
    Irrep   Nso     Nmo     Nalpha   Nbeta   Ndocc  Nsocc
   -------------------------------------------------------
     A        158     158       0       0       0       0
   -------------------------------------------------------
    Total     158     158      45      45      45       0
   -------------------------------------------------------

 OEINTS: Overlap, kinetic, potential, dipole, and quadrupole integrals
         stored in file 35.

  ==> Integral Setup <==

  ==> DFJK: Density-Fitted J/K Matrices <==

    J tasked:                  Yes
    K tasked:                  Yes
    wK tasked:                  No
    OpenMP threads:              4
    Integrals threads:           4
    Memory (MB):              1430
    Algorithm:                Core
    Integral Cache:           NONE
    Schwarz Cutoff:          1E-12
    Fitting Condition:       1E-12

   => Auxiliary Basis Set <=

  Basis Set: 
    Number of shells: 270
    Number of basis function: 909
    Number of Cartesian functions: 909
    Spherical Harmonics?: false
    Max angular momentum: 3

  Minimum eigenvalue in the overlap matrix is 1.4361354427E-03.
  Using Symmetric Orthogonalization.
  SCF Guess: Core (One-Electron) Hamiltonian.

  ==> Iterations <==

                           Total Energy        Delta E     RMS |[F,P]|

   @DF-RHF iter   1: -1068.41466655785916   -1.06841e+03   6.74809e-02 
   @DF-RHF iter   2: -1016.05108276568183    5.23636e+01   7.00780e-02 DIIS
   @DF-RHF iter   3: -1114.51003744061654   -9.84590e+01   4.07334e-02 DIIS
   @DF-RHF iter   4: -1114.18045005519571    3.29587e-01   4.17388e-02 DIIS
   @DF-RHF iter   5: -1144.84320425022770   -3.06628e+01   1.19545e-02 DIIS
   @DF-RHF iter   6: -1145.98948757169956   -1.14628e+00   4.54349e-03 DIIS
   @DF-RHF iter   7: -1146.16046522937904   -1.70978e-01   1.24355e-03 DIIS
   @DF-RHF iter   8: -1146.17941321203079   -1.89480e-02   3.07647e-04 DIIS
   @DF-RHF iter   9: -1146.18064048400629   -1.22727e-03   1.13197e-04 DIIS
   @DF-RHF iter  10: -1146.18085201556323   -2.11532e-04   3.47063e-05 DIIS
   @DF-RHF iter  11: -1146.18087145932805   -1.94438e-05   1.02317e-05 DIIS
   @DF-RHF iter  12: -1146.18087292367090   -1.46434e-06   2.65893e-06 DIIS
   @DF-RHF iter  13: -1146.18087307285487   -1.49184e-07   8.49213e-07 DIIS
   @DF-RHF iter  14: -1146.18087308533222   -1.24774e-08   2.70986e-07 DIIS
   @DF-RHF iter  15: -1146.18087308665099   -1.31877e-09   6.81152e-08 DIIS
   @DF-RHF iter  16: -1146.18087308674012   -8.91305e-11   1.76505e-08 DIIS
   @DF-RHF iter  17: -1146.18087308674785   -7.73070e-12   5.63441e-09 DIIS

  ==> Post-Iterations <==

    Orbital Energies (a.u.)
    -----------------------

    Doubly Occupied:                                                      

       1A   -104.836499     2A    -26.355942     3A    -26.352417  
       4A    -26.330507     5A    -26.325450     6A    -26.311416  
       7A    -20.647618     8A    -11.519121     9A    -11.479043  
      10A    -11.399877    11A    -10.571957    12A     -8.041269  
      13A     -8.037706    14A     -8.037613    15A     -1.766670  
      16A     -1.713808    17A     -1.661310    18A     -1.652307  
      19A     -1.609205    20A     -1.485910    21A     -1.175487  
      22A     -1.044521    23A     -1.006261    24A     -0.903816  
      25A     -0.877990    26A     -0.858265    27A     -0.837590  
      28A     -0.831588    29A     -0.797141    30A     -0.754900  
      31A     -0.737548    32A     -0.720210    33A     -0.702558  
      34A     -0.700385    35A     -0.681290    36A     -0.663551  
      37A     -0.660420    38A     -0.638369    39A     -0.635788  
      40A     -0.623346    41A     -0.561847    42A     -0.529711  
      43A     -0.520418    44A     -0.468919    45A     -0.459197  

    Virtual:                                                              

      46A      0.178871    47A      0.234788    48A      0.264139  
      49A      0.282522    50A      0.351217    51A      0.383405  
      52A      0.401676    53A      0.423272    54A      0.448554  
      55A      0.476287    56A      0.497777    57A      0.560549  
      58A      0.627205    59A      0.630872    60A      0.661758  
      61A      0.686186    62A      0.706185    63A      0.724762  
      64A      0.750948    65A      0.759417    66A      0.763247  
      67A      0.773733    68A      0.856960    69A      0.939884  
      70A      0.989521    71A      1.012761    72A      1.067272  
      73A      1.072905    74A      1.127232    75A      1.148013  
      76A      1.174213    77A      1.194507    78A      1.264436  
      79A      1.279990    80A      1.317008    81A      1.326886  
      82A      1.365012    83A      1.392741    84A      1.411142  
      85A      1.432641    86A      1.460755    87A      1.491422  
      88A      1.535457    89A      1.556046    90A      1.601437  
      91A      1.616583    92A      1.625882    93A      1.646213  
      94A      1.647051    95A      1.663908    96A      1.687452  
      97A      1.714846    98A      1.751927    99A      1.779542  
     100A      1.809650   101A      1.828937   102A      1.868786  
     103A      1.921263   104A      1.956508   105A      1.959341  
     106A      2.009407   107A      2.044102   108A      2.058060  
     109A      2.075389   110A      2.077213   111A      2.111633  
     112A      2.122919   113A      2.155837   114A      2.214791  
     115A      2.249318   116A      2.267780   117A      2.289209  
     118A      2.327977   119A      2.344906   120A      2.372624  
     121A      2.375553   122A      2.386590   123A      2.423224  
     124A      2.480684   125A      2.487211   126A      2.489891  
     127A      2.517468   128A      2.572173   129A      2.611348  
     130A      2.633812   131A      2.712910   132A      2.794061  
     133A      2.837547   134A      2.864264   135A      2.915718  
     136A      3.051377   137A      3.060159   138A      3.132585  
     139A      3.186336   140A      3.215997   141A      3.259150  
     142A      3.350780   143A      3.411751   144A      3.418558  
     145A      3.463756   146A      3.491890   147A      3.514140  
     148A      3.735745   149A      4.388019   150A      4.586730  
     151A      4.657871   152A      4.710344   153A      4.862381  
     154A      4.956200   155A      5.182076   156A      5.592157  
     157A      5.787183   158A      6.543618  

    Final Occupation by Irrep:
              A 
    DOCC [    45 ]

  Energy converged.

  @DF-RHF Final Energy: -1146.18087308674785

   => Energetics <=

    Nuclear Repulsion Energy =            790.8416435146001504
    One-Electron Energy =               -3164.9915198587868872
    Two-Electron Energy =                1227.9690032574385441
    DFT Exchange-Correlation Energy =       0.0000000000000000
    Empirical Dispersion Energy =           0.0000000000000000
    PCM Polarization Energy =               0.0000000000000000
    EFP Energy =                            0.0000000000000000
    Total Energy =                      -1146.1808730867483064

    Alert: EFP and PCM quantities not currently incorporated into SCF psivars.

Properties will be evaluated at   0.000000,   0.000000,   0.000000 Bohr
  ==> Properties <==


Properties computed using the SCF density matrix

  Nuclear Dipole Moment: (a.u.)
     X:     1.2059      Y:    -2.5814      Z:     3.7648

  Electronic Dipole Moment: (a.u.)
     X:    -1.0382      Y:     2.4450      Z:    -2.9483

  Dipole Moment: (a.u.)
     X:     0.1677      Y:    -0.1364      Z:     0.8166     Total:     0.8447

  Dipole Moment: (Debye)
     X:     0.4262      Y:    -0.3466      Z:     2.0755     Total:     2.1469


  Saving occupied orbitals to File 180.

*** tstop() called on cx1-1-3-2.cx1.hpc.ic.ac.uk at Fri Sep  2 14:40:38 2016
Module time:
	user time   =      25.53 seconds =       0.43 minutes
	system time =       0.38 seconds =       0.01 minutes
	total time  =          8 seconds =       0.13 minutes
Total time:
	user time   =      25.53 seconds =       0.43 minutes
	system time =       0.38 seconds =       0.01 minutes
	total time  =          8 seconds =       0.13 minutes

*** tstart() called on cx1-1-3-2.cx1.hpc.ic.ac.uk
*** at Fri Sep  2 14:40:38 2016


         ------------------------------------------------------------
                                   SCF GRAD                          
                          Rob Parrish, Justin Turney,                
                       Andy Simmonett, and Alex Sokolov              
         ------------------------------------------------------------

  ==> Geometry <==

    Molecular point group: c1
    Full point group: C1

    Geometry (in Angstrom), charge = 0, multiplicity = 1:

       Center              X                  Y                   Z               Mass       
    ------------   -----------------  -----------------  -----------------  -----------------
           H         -1.776939111541    -1.085360898246     1.879794595468     1.007825032070
           C         -1.214090111541    -0.827139898246     1.004229595468    12.000000000000
           O          0.061829888459    -0.569767898246     1.379465595468    15.994914619560
           F         -1.249510111541    -1.825705898246     0.124386595468    18.998403224000
           F         -1.752442111541     0.227988101754     0.401652595468    18.998403224000
           C          0.953486888459    -0.169024898246     0.401181595468    12.000000000000
           C          0.422187888459     1.136152101754    -0.177087404532    12.000000000000
          CL          1.096818888459    -1.399578898246    -0.864680404532    34.968852682000
           H          1.938791888459     0.011353101754     0.794135595468     1.007825032070
           F          1.231356888459     1.587781101754    -1.111654404532    18.998403224000
           F          0.366437888459     2.035076101754     0.785339595468    18.998403224000
           F         -0.777373111541     0.999200101754    -0.687254404532    18.998403224000

  Nuclear repulsion =  790.841643514600150

  ==> Basis Set <==

  Basis Set: 6-31G*
    Number of shells: 66
    Number of basis function: 158
    Number of Cartesian functions: 158
    Spherical Harmonics?: false
    Max angular momentum: 2

  ==> DFJKGrad: Density-Fitted SCF Gradients <==

    Gradient:                    1
    J tasked:                  Yes
    K tasked:                  Yes
    wK tasked:                  No
    OpenMP threads:              4
    Integrals threads:           4
    Memory (MB):              1430
    Schwarz Cutoff:          0E+00
    Fitting Condition:       1E-12

   => Auxiliary Basis Set <=

  Basis Set: 
    Number of shells: 270
    Number of basis function: 909
    Number of Cartesian functions: 909
    Spherical Harmonics?: false
    Max angular momentum: 3


  -Total Gradient:
     Atom            X                  Y                   Z
    ------   -----------------  -----------------  -----------------
       1       -0.001616715587     0.001228229288    -0.001650932285
       2        0.019505643057     0.004544438889     0.000650250325
       3       -0.014849064941     0.001237126688    -0.009015786325
       4        0.017519068492     0.001785683878    -0.011229261365
       5        0.142331930153     0.123011636940    -0.166734890053
       6        0.017381167184    -0.002057549751     0.012454179584
       7       -0.002137170386    -0.009025845112     0.018655551327
       8       -0.024283436068    -0.002789273727     0.010406968627
       9        0.004681604308     0.003719785225    -0.009290504951
      10       -0.005027772604    -0.002054761159     0.000725132550
      11        0.000193015403    -0.001174301959    -0.002178606857
      12       -0.153698269077    -0.118425169151     0.157207899434


*** tstop() called on cx1-1-3-2.cx1.hpc.ic.ac.uk at Fri Sep  2 14:40:45 2016
Module time:
	user time   =      26.79 seconds =       0.45 minutes
	system time =       0.26 seconds =       0.00 minutes
	total time  =          7 seconds =       0.12 minutes
Total time:
	user time   =      52.35 seconds =       0.87 minutes
	system time =       0.64 seconds =       0.01 minutes
	total time  =         15 seconds =       0.25 minutes
CURRENT ENERGY: -1146.1808730867

			-----------------------------------------
			 OPTKING 2.0: for geometry optimizations 
			  - R.A. King,  Bethel University        
			-----------------------------------------

	Internal coordinates to be generated automatically.
	Detected frag with atoms:  1 2 3 4 5 6 7 8 9 10 11 12
	---Fragment 1 Bond Connectivity---
	 1 : 2
	 2 : 1 3 4 5
	 3 : 2 6
	 4 : 2
	 5 : 2
	 6 : 3 7 8 9
	 7 : 6 10 11 12
	 8 : 6
	 9 : 6
	 10 : 7
	 11 : 7
	 12 : 7

	Assuming in current code that numbering for constraints corresponds to unified fragment.
	Frozen dihedral atom list: 
	     9     6     3     2
	---Fragment 1 Geometry and Gradient---
	 H          -3.3579282756       -2.0510348530        3.5522969715
	 C          -2.2942978115       -1.5630678813        1.8977189100
	 O           0.1168415560       -1.0767052870        2.6068121852
	 F          -2.3612319111       -3.4500841469        0.2350566000
	 F          -3.3116356545        0.4308350739        0.7590134060
	 C           1.8018290905       -0.3194107673        0.7581233450
	 C           0.7978194858        2.1470163176       -0.3346466961
	 CL          2.0726873166       -2.6448208191       -1.6340091570
	 H           3.6637856978        0.0214542531        1.5006987878
	 F           2.3269272910        3.0004714413       -2.1007223790
	 F           0.6924672539        3.8457364919        1.4840767567
	 F          -1.4690222839        1.8882145443       -1.2987226082
	            -0.0016167156        0.0012282293       -0.0016509323
	             0.0195056431        0.0045444389        0.0006502503
	            -0.0148490649        0.0012371267       -0.0090157863
	             0.0175190685        0.0017856839       -0.0112292614
	             0.1423319302        0.1230116369       -0.1667348901
	             0.0173811672       -0.0020575498        0.0124541796
	            -0.0021371704       -0.0090258451        0.0186555513
	            -0.0242834361       -0.0027892737        0.0104069686
	             0.0046816043        0.0037197852       -0.0092905050
	            -0.0050277726       -0.0020547612        0.0007251325
	             0.0001930154       -0.0011743020       -0.0021786069
	            -0.1536982691       -0.1184251692        0.1572078994

	Previous optimization step data not found.  Starting new optimization.

	---Fragment 1 Intrafragment Coordinates---
	 - Coordinate -           - BOHR/RAD -       - ANG/DEG -
	 R(1,2)           =         2.026586	       1.072423
	 R(2,3)           =         2.559874	       1.354627
	 R(2,4)           =         2.515901	       1.331357
	 R(2,5)           =         2.511429	       1.328991
	 R(3,6)           =         2.613490	       1.382999
	 R(6,7)           =         2.878445	       1.523207
	 R(6,8)           =         3.347117	       1.771218
	 R(6,9)           =         2.033344	       1.076000
	 R(7,10)          =         2.487083	       1.316108
	 R(7,11)          =         2.490884	       1.318119
	 R(7,12)          =         2.476892	       1.310715
	 B(1,2,3)         =         1.890132	     108.296610
	 B(1,2,4)         =         1.923027	     110.181343
	 B(1,2,5)         =         1.927024	     110.410365
	 B(2,3,6)         =         2.055989	     117.799465
	 B(3,2,4)         =         1.929032	     110.525385
	 B(3,2,5)         =         1.935101	     110.873139
	 B(3,6,7)         =         1.867059	     106.974597
	 B(3,6,8)         =         1.935210	     110.879386
	 B(3,6,9)         =         1.961274	     112.372743
	 B(4,2,5)         =         1.859865	     106.562404
	 B(6,7,10)        =         1.927478	     110.436361
	 B(6,7,11)        =         1.898549	     108.778843
	 B(6,7,12)        =         1.957847	     112.176362
	 B(7,6,8)         =         1.930726	     110.622443
	 B(7,6,9)         =         1.890625	     108.324860
	 B(8,6,9)         =         1.879020	     107.659906
	 B(10,7,11)       =         1.886474	     108.087015
	 B(10,7,12)       =         1.898791	     108.792710
	 B(11,7,12)       =         1.893092	     108.466156
	 D(1,2,3,6)       =        -3.103417	    -177.812700
	 D(2,3,6,7)       =         1.068856	      61.240937
	 D(2,3,6,8)       =        -1.037787	     -59.460821
	*D(2,3,6,9)       =         3.141593	     180.000000
	 D(3,6,7,10)      =         3.130862	     179.385187
	 D(3,6,7,11)      =         1.063239	      60.919124
	 D(3,6,7,12)      =        -1.031009	     -59.072449
	 D(4,2,3,6)       =         1.071709	      61.404382
	 D(5,2,3,6)       =        -0.986710	     -56.534297
	 D(8,6,7,10)      =        -1.042828	     -59.749638
	 D(8,6,7,11)      =        -3.110451	    -178.215701
	 D(8,6,7,12)      =         1.078487	      61.792725
	 D(9,6,7,10)      =         1.012834	      58.031130
	 D(9,6,7,11)      =        -1.054789	     -60.434933
	 D(9,6,7,12)      =         3.134149	     179.573493
	 R(2,11)          =         6.192498	       3.276929
	 R(2,12)          =         4.775947	       2.527322
	 R(4,8)           =         4.878678	       2.581685
	 R(5,7)           =         4.585738	       2.426668
	 R(5,8)           =         6.646589	       3.517224
	 R(5,11)          =         5.312260	       2.811127
	 R(5,12)          =         3.123052	       1.652648

	Current energy   :     -1146.1808730867

	Generating empirical Hessian (Schlegel '84) for each fragment.
	Taking RFO optimization step.
	Going to follow RFO solution 1.
	Using RFO vector 1.

	Determining step-restricting scale parameter for RS-RFO.
	Maximum step size allowed    0.50000

	 Iter      |step|        alpha        rfo_root  
	------------------------------------------------
	    0     0.69869       1.00000           1
	    1     0.56185       1.81857           1
	    2     0.50928       2.34493           1
	    3     0.50027       2.45389           1
	    4     0.50000       2.45721           1
	------------------------------------------------
	Norm of target step-size    0.50000
	Projected energy change by RFO approximation:        -0.0786339946

	Back-transformation to cartesian coordinates...
	Successfully converged to displaced geometry.

	Back-transformation to cartesian coordinates to adjust frozen coordinates...
	Successfully converged to displaced geometry.

	--- Internal Coordinate Step in ANG or DEG, aJ/ANG or AJ/DEG ---
	 ---------------------------------------------------------------------------
	   Coordinate                Previous        Force       Change         New 
	   ----------                --------       ------       ------       ------
	    1 R(1,2)          =      1.072423     0.006551     0.000676     1.073099
	    2 R(2,3)          =      1.354627    -0.091931    -0.006720     1.347907
	    3 R(2,4)          =      1.331357    -0.030741    -0.002352     1.329006
	    4 R(2,5)          =      1.328991    -0.413976    -0.028959     1.300032
	    5 R(3,6)          =      1.382999    -0.108594    -0.007842     1.375158
	    6 R(6,7)          =      1.523207    -0.087320    -0.008086     1.515121
	    7 R(6,8)          =      1.771218    -0.061504    -0.009028     1.762191
	    8 R(6,9)          =      1.076000    -0.012504    -0.001300     1.074700
	    9 R(7,10)         =      1.316108     0.035519     0.002586     1.318694
	   10 R(7,11)         =      1.318119     0.021803     0.000376     1.318496
	   11 R(7,12)         =      1.310715    -0.305674    -0.019631     1.291084
	   12 B(1,2,3)        =    108.296610    -0.000666    -1.050906   107.245704
	   13 B(1,2,4)        =    110.181343    -0.000144    -0.272246   109.909097
	   14 B(1,2,5)        =    110.410365    -0.000512    -0.610066   109.800299
	   15 B(2,3,6)        =    117.799465     0.000272     0.436799   118.236264
	   16 B(3,2,4)        =    110.525385     0.000483     0.829506   111.354891
	   17 B(3,2,5)        =    110.873139     0.000189     0.056526   110.929665
	   18 B(3,6,7)        =    106.974597     0.001999     3.469355   110.443952
	   19 B(3,6,8)        =    110.879386     0.000189     0.267000   111.146386
	   20 B(3,6,9)        =    112.372743    -0.001835    -3.459149   108.913594
	   21 B(4,2,5)        =    106.562404     0.000669     1.046742   107.609146
	   22 B(6,7,10)       =    110.436361    -0.000328    -0.527086   109.909274
	   23 B(6,7,11)       =    108.778843    -0.000073    -0.090376   108.688468
	   24 B(6,7,12)       =    112.176362    -0.000332    -0.477486   111.698875
	   25 B(7,6,8)        =    110.622443    -0.001639    -2.504295   108.118148
	   26 B(7,6,9)        =    108.324860     0.000857     1.425997   109.750856
	   27 B(8,6,9)        =    107.659906     0.000386     0.775910   108.435816
	   28 B(10,7,11)      =    108.087015     0.000088     0.255501   108.342516
	   29 B(10,7,12)      =    108.792710    -0.000224    -0.508667   108.284043
	   30 B(11,7,12)      =    108.466156     0.000908     1.393936   109.860092
	   31 D(1,2,3,6)      =   -177.812700    -0.000113    -0.976888  -178.789587
	   32 D(2,3,6,7)      =     61.240937    -0.000291    -1.835756    59.405181
	   33 D(2,3,6,8)      =    -59.460821    -0.000145    -1.135978   -60.596799
	   34 *D(2,3,6,9)     =    180.000000     0.000000     0.000000   180.000000
	   35 D(3,6,7,10)     =    179.385187    -0.000144    -1.667088   177.718099
	   36 D(3,6,7,11)     =     60.919124    -0.000114    -1.615057    59.304067
	   37 D(3,6,7,12)     =    -59.072449    -0.000315    -2.995024   -62.067474
	   38 D(4,2,3,6)      =     61.404382    -0.000043    -0.473341    60.931041
	   39 D(5,2,3,6)      =    -56.534297    -0.000330    -2.356535   -58.890831
	   40 D(8,6,7,10)     =    -59.749638    -0.000025    -0.725396   -60.475034
	   41 D(8,6,7,11)     =   -178.215701     0.000005    -0.673365  -178.889066
	   42 D(8,6,7,12)     =     61.792725    -0.000196    -2.053333    59.739393
	   43 D(9,6,7,10)     =     58.031130    -0.000015    -0.405551    57.625579
	   44 D(9,6,7,11)     =    -60.434933     0.000015    -0.353520   -60.788453
	   45 D(9,6,7,12)     =    179.573493    -0.000186    -1.733487   177.840006
	   46 R(2,11)         =      3.276929     0.057627     0.013560     3.290489
	   47 R(2,12)         =      2.527322     0.501239     0.097942     2.625264
	   48 R(4,8)          =      2.581685     0.147561     0.030906     2.612591
	   49 R(5,7)          =      2.426668     0.459902     0.080182     2.506850
	   50 R(5,8)          =      3.517224     0.137613     0.039539     3.556762
	   51 R(5,11)         =      2.811127    -0.063956    -0.008173     2.802954
	   52 R(5,12)         =      1.652648     1.397943     0.208367     1.861015
	 ---------------------------------------------------------------------------

  ==> Convergence Check <==

  Measures of convergence in internal coordinates in au.
  Criteria marked as inactive (o), active & met (*), and active & unmet ( ).
  --------------------------------------------------------------------------------------------- ~
   Step     Total Energy     Delta E     MAX Force     RMS Force      MAX Disp      RMS Disp    ~
  --------------------------------------------------------------------------------------------- ~
    Convergence Criteria    1.00e-06 *    3.00e-04 *             o    1.20e-03 *             o  ~
  --------------------------------------------------------------------------------------------- ~
      1   -1146.18087309   -1.15e+03      1.70e-01      2.93e-02 o    3.94e-01      6.93e-02 o  ~
  ---------------------------------------------------------------------------------------------

	Writing optimization data to binary file.
	Structure for next step:
	Cartesian Geometry (in Angstrom)
	    H    -1.7385471799  -1.1433883639   1.9096907027
	    C    -1.2177257819  -0.8392393672   1.0221206383
	    O     0.0585980119  -0.5867851173   1.3744251246
	    F    -1.2859673562  -1.7994820640   0.1058599736
	    F    -1.7801791701   0.2212618401   0.5230558113
	    C     0.9280192657  -0.1515031640   0.4019566359
	    C     0.4328431541   1.1432693041  -0.2095632403
	   CL     1.0863667945  -1.3414871523  -0.8880744343
	    H     1.8957918569   0.0020911929   0.8433236650
	    F     1.2980471820   1.5764913915  -1.1054952616
	    F     0.3331248847   2.0494072709   0.7430127697
	    F    -0.7098160537   0.9903364594  -0.7908029392
			--------------------------
			 OPTKING Finished Execution 
			--------------------------

    Structure for next step:
    Molecular point group: c1
    Full point group: C1

    Geometry (in Angstrom), charge = 0, multiplicity = 1:

    H           -1.738844867033    -1.154812228593     1.918847370838
    C           -1.218023508893    -0.850663255121     1.031277374228
    O            0.058300187495    -0.598209024509     1.383581833601
    F           -1.286265077964    -1.810905878621     0.115016779468
    F           -1.780476854084     0.209837871153     0.532212585351
    C            0.927721374936    -0.162927104510     0.411113419138
    C            0.432545301117     1.131845264753    -0.200406410288
    CL           1.086068891553    -1.352911001889    -0.878917552484
    H            1.895493892239    -0.009332759308     0.852480414609
    F            1.297749262970     1.565067319114    -1.096338363254
    F            0.332827039326     2.037983162355     0.752169526928
    F           -0.710113819448     0.978912431700    -0.781646064824

gradient() will perform analytic gradient computation.

*** tstart() called on cx1-1-3-2.cx1.hpc.ic.ac.uk
*** at Fri Sep  2 14:40:45 2016


         ---------------------------------------------------------
                                   SCF
            by Justin Turney, Rob Parrish, and Andy Simmonett
                              RHF Reference
                        4 Threads,   2000 MiB Core
         ---------------------------------------------------------

  ==> Geometry <==

    Molecular point group: c1
    Full point group: C1

    Geometry (in Angstrom), charge = 0, multiplicity = 1:

       Center              X                  Y                   Z               Mass       
    ------------   -----------------  -----------------  -----------------  -----------------
           H         -1.738844867033    -1.154812228593     1.918847370838     1.007825032070
           C         -1.218023508893    -0.850663255121     1.031277374228    12.000000000000
           O          0.058300187495    -0.598209024509     1.383581833601    15.994914619560
           F         -1.286265077964    -1.810905878621     0.115016779468    18.998403224000
           F         -1.780476854084     0.209837871153     0.532212585351    18.998403224000
           C          0.927721374936    -0.162927104510     0.411113419138    12.000000000000
           C          0.432545301117     1.131845264753    -0.200406410288    12.000000000000
          CL          1.086068891553    -1.352911001889    -0.878917552484    34.968852682000
           H          1.895493892239    -0.009332759308     0.852480414609     1.007825032070
           F          1.297749262970     1.565067319114    -1.096338363254    18.998403224000
           F          0.332827039326     2.037983162355     0.752169526928    18.998403224000
           F         -0.710113819448     0.978912431700    -0.781646064824    18.998403224000

  Running in c1 symmetry.

  Rotational constants: A =      0.05317  B =      0.04131  C =      0.02994 [cm^-1]
  Rotational constants: A =   1593.94225  B =   1238.42642  C =    897.58019 [MHz]
  Nuclear repulsion =  789.323695550545608

  Charge       = 0
  Multiplicity = 1
  Electrons    = 90
  Nalpha       = 45
  Nbeta        = 45

  ==> Algorithm <==

  SCF Algorithm Type is DF.
  DIIS enabled.
  MOM disabled.
  Fractional occupation disabled.
  Guess Type is READ.
  Energy threshold   = 1.00e-08
  Density threshold  = 1.00e-08
  Integral threshold = 0.00e+00

  ==> Primary Basis <==

  Basis Set: 6-31G*
    Number of shells: 66
    Number of basis function: 158
    Number of Cartesian functions: 158
    Spherical Harmonics?: false
    Max angular momentum: 2

  ==> Pre-Iterations <==

   -------------------------------------------------------
    Irrep   Nso     Nmo     Nalpha   Nbeta   Ndocc  Nsocc
   -------------------------------------------------------
     A        158     158       0       0       0       0
   -------------------------------------------------------
    Total     158     158      45      45      45       0
   -------------------------------------------------------

 OEINTS: Overlap, kinetic, potential, dipole, and quadrupole integrals
         stored in file 35.

  ==> Integral Setup <==

  ==> DFJK: Density-Fitted J/K Matrices <==

    J tasked:                  Yes
    K tasked:                  Yes
    wK tasked:                  No
    OpenMP threads:              4
    Integrals threads:           4
    Memory (MB):              1430
    Algorithm:                Core
    Integral Cache:           NONE
    Schwarz Cutoff:          1E-12
    Fitting Condition:       1E-12

   => Auxiliary Basis Set <=

  Basis Set: 
    Number of shells: 270
    Number of basis function: 909
    Number of Cartesian functions: 909
    Spherical Harmonics?: false
    Max angular momentum: 3

  Minimum eigenvalue in the overlap matrix is 1.4037515837E-03.
  Using Symmetric Orthogonalization.
  SCF Guess: Reading in previously saved MOs, projecting if necessary.

  Using orbitals from previous SCF, no projection.
  Recomputing DOCC and SOCC from number of alpha and beta electrons from previous calculation.
              A 
    DOCC [    45 ]

  ==> Iterations <==

                           Total Energy        Delta E     RMS |[F,P]|

   @DF-RHF iter   0: -1146.37705822194312   -1.14638e+03   2.77262e-03 
   @DF-RHF iter   1: -1146.24404796454996    1.33010e-01   7.32033e-04 
   @DF-RHF iter   2: -1146.24799088459872   -3.94292e-03   4.13306e-04 DIIS
   @DF-RHF iter   3: -1146.24924856764301   -1.25768e-03   4.90169e-05 DIIS
   @DF-RHF iter   4: -1146.24929814666939   -4.95790e-05   1.81830e-05 DIIS
   @DF-RHF iter   5: -1146.24930451878913   -6.37212e-06   4.73401e-06 DIIS
   @DF-RHF iter   6: -1146.24930510383115   -5.85042e-07   1.52034e-06 DIIS
   @DF-RHF iter   7: -1146.24930516045561   -5.66245e-08   5.50143e-07 DIIS
   @DF-RHF iter   8: -1146.24930516635663   -5.90103e-09   1.28371e-07 DIIS
   @DF-RHF iter   9: -1146.24930516681752   -4.60886e-10   3.79259e-08 DIIS
   @DF-RHF iter  10: -1146.24930516686277   -4.52474e-11   1.50631e-08 DIIS
   @DF-RHF iter  11: -1146.24930516686709   -4.32010e-12   4.13653e-09 DIIS

  ==> Post-Iterations <==

    Orbital Energies (a.u.)
    -----------------------

    Doubly Occupied:                                                      

       1A   -104.833843     2A    -26.356680     3A    -26.352820  
       4A    -26.344286     5A    -26.330957     6A    -26.329687  
       7A    -20.646245     8A    -11.520512     9A    -11.477578  
      10A    -11.395446    11A    -10.569705    12A     -8.039037  
      13A     -8.035465    14A     -8.035364    15A     -1.767563  
      16A     -1.720690    17A     -1.662544    18A     -1.652977  
      19A     -1.630263    20A     -1.489105    21A     -1.178825  
      22A     -1.045332    23A     -1.000588    24A     -0.910558  
      25A     -0.874753    26A     -0.856437    27A     -0.845050  
      28A     -0.834887    29A     -0.810862    30A     -0.755486  
      31A     -0.734433    32A     -0.724873    33A     -0.705144  
      34A     -0.699670    35A     -0.683221    36A     -0.665207  
      37A     -0.662789    38A     -0.649798    39A     -0.641653  
      40A     -0.631498    41A     -0.566565    42A     -0.564750  
      43A     -0.520067    44A     -0.467973    45A     -0.458834  

    Virtual:                                                              

      46A      0.184088    47A      0.236892    48A      0.267185  
      49A      0.289939    50A      0.360704    51A      0.390734  
      52A      0.403259    53A      0.429480    54A      0.450353  
      55A      0.481307    56A      0.506334    57A      0.562833  
      58A      0.628881    59A      0.635659    60A      0.661234  
      61A      0.689027    62A      0.706828    63A      0.731517  
      64A      0.751526    65A      0.762192    66A      0.766816  
      67A      0.776127    68A      0.855405    69A      0.940271  
      70A      0.986959    71A      1.008831    72A      1.068801  
      73A      1.073483    74A      1.126380    75A      1.148234  
      76A      1.178514    77A      1.193338    78A      1.269054  
      79A      1.275829    80A      1.317980    81A      1.335319  
      82A      1.363059    83A      1.391398    84A      1.414558  
      85A      1.435410    86A      1.457892    87A      1.476155  
      88A      1.542059    89A      1.563543    90A      1.587409  
      91A      1.609376    92A      1.614857    93A      1.637810  
      94A      1.646620    95A      1.651554    96A      1.662911  
      97A      1.689441    98A      1.709422    99A      1.777840  
     100A      1.782966   101A      1.824058   102A      1.872079  
     103A      1.916737   104A      1.944593   105A      1.964466  
     106A      2.015292   107A      2.033354   108A      2.056916  
     109A      2.076949   110A      2.080837   111A      2.095987  
     112A      2.123095   113A      2.154041   114A      2.186358  
     115A      2.254032   116A      2.263107   117A      2.283525  
     118A      2.336398   119A      2.343152   120A      2.380370  
     121A      2.387064   122A      2.390541   123A      2.424078  
     124A      2.468679   125A      2.490382   126A      2.503102  
     127A      2.521186   128A      2.578159   129A      2.586746  
     130A      2.666945   131A      2.700390   132A      2.800792  
     133A      2.840956   134A      2.871550   135A      2.917048  
     136A      3.024599   137A      3.081623   138A      3.106850  
     139A      3.188911   140A      3.207692   141A      3.250773  
     142A      3.284932   143A      3.376803   144A      3.420207  
     145A      3.434402   146A      3.461212   147A      3.510335  
     148A      3.575008   149A      4.397509   150A      4.615295  
     151A      4.679200   152A      4.712275   153A      4.877426  
     154A      4.977793   155A      5.131552   156A      5.561495  
     157A      5.683088   158A      6.594111  

    Final Occupation by Irrep:
              A 
    DOCC [    45 ]

  Energy converged.

  @DF-RHF Final Energy: -1146.24930516686709

   => Energetics <=

    Nuclear Repulsion Energy =            789.3236955505456081
    One-Electron Energy =               -3161.7859611049088926
    Two-Electron Energy =                1226.2129603874959685
    DFT Exchange-Correlation Energy =       0.0000000000000000
    Empirical Dispersion Energy =           0.0000000000000000
    PCM Polarization Energy =               0.0000000000000000
    EFP Energy =                            0.0000000000000000
    Total Energy =                      -1146.2493051668675434

    Alert: EFP and PCM quantities not currently incorporated into SCF psivars.

Properties will be evaluated at   0.000000,   0.000000,   0.000000 Bohr
  ==> Properties <==


Properties computed using the SCF density matrix

  Nuclear Dipole Moment: (a.u.)
     X:     1.1776      Y:    -2.6678      Z:     3.8607

  Electronic Dipole Moment: (a.u.)
     X:    -1.0535      Y:     2.5531      Z:    -3.0419

  Dipole Moment: (a.u.)
     X:     0.1241      Y:    -0.1147      Z:     0.8188     Total:     0.8361

  Dipole Moment: (Debye)
     X:     0.3154      Y:    -0.2915      Z:     2.0812     Total:     2.1251


  Saving occupied orbitals to File 180.

*** tstop() called on cx1-1-3-2.cx1.hpc.ic.ac.uk at Fri Sep  2 14:40:52 2016
Module time:
	user time   =      22.71 seconds =       0.38 minutes
	system time =       0.31 seconds =       0.01 minutes
	total time  =          7 seconds =       0.12 minutes
Total time:
	user time   =      76.33 seconds =       1.27 minutes
	system time =       0.99 seconds =       0.02 minutes
	total time  =         22 seconds =       0.37 minutes

*** tstart() called on cx1-1-3-2.cx1.hpc.ic.ac.uk
*** at Fri Sep  2 14:40:52 2016


         ------------------------------------------------------------
                                   SCF GRAD                          
                          Rob Parrish, Justin Turney,                
                       Andy Simmonett, and Alex Sokolov              
         ------------------------------------------------------------

  ==> Geometry <==

    Molecular point group: c1
    Full point group: C1

    Geometry (in Angstrom), charge = 0, multiplicity = 1:

       Center              X                  Y                   Z               Mass       
    ------------   -----------------  -----------------  -----------------  -----------------
           H         -1.738844867033    -1.154812228593     1.918847370838     1.007825032070
           C         -1.218023508893    -0.850663255121     1.031277374228    12.000000000000
           O          0.058300187495    -0.598209024509     1.383581833601    15.994914619560
           F         -1.286265077964    -1.810905878621     0.115016779468    18.998403224000
           F         -1.780476854084     0.209837871153     0.532212585351    18.998403224000
           C          0.927721374936    -0.162927104510     0.411113419138    12.000000000000
           C          0.432545301117     1.131845264753    -0.200406410288    12.000000000000
          CL          1.086068891553    -1.352911001889    -0.878917552484    34.968852682000
           H          1.895493892239    -0.009332759308     0.852480414609     1.007825032070
           F          1.297749262970     1.565067319114    -1.096338363254    18.998403224000
           F          0.332827039326     2.037983162355     0.752169526928    18.998403224000
           F         -0.710113819448     0.978912431700    -0.781646064824    18.998403224000

  Nuclear repulsion =  789.323695550545494

  ==> Basis Set <==

  Basis Set: 6-31G*
    Number of shells: 66
    Number of basis function: 158
    Number of Cartesian functions: 158
    Spherical Harmonics?: false
    Max angular momentum: 2

  ==> DFJKGrad: Density-Fitted SCF Gradients <==

    Gradient:                    1
    J tasked:                  Yes
    K tasked:                  Yes
    wK tasked:                  No
    OpenMP threads:              4
    Integrals threads:           4
    Memory (MB):              1430
    Schwarz Cutoff:          0E+00
    Fitting Condition:       1E-12

   => Auxiliary Basis Set <=

  Basis Set: 
    Number of shells: 270
    Number of basis function: 909
    Number of Cartesian functions: 909
    Spherical Harmonics?: false
    Max angular momentum: 3


  -Total Gradient:
     Atom            X                  Y                   Z
    ------   -----------------  -----------------  -----------------
       1       -0.000337844332     0.002995440962    -0.000761334930
       2        0.013052102170     0.022806563325    -0.018227694246
       3       -0.014229502720    -0.000563491430    -0.007246693775
       4        0.013959419039     0.002437722474    -0.006988819605
       5        0.071475799420     0.025413245453    -0.063092438423
       6        0.004327639261     0.003650369263     0.007659022387
       7       -0.018833290613    -0.007902830391     0.003242512844
       8       -0.024320103534     0.005546894217     0.012392237407
       9        0.001728639209     0.000284177972    -0.003117044959
      10       -0.003663805404    -0.003707184929    -0.002008690291
      11        0.002486517716    -0.003327392252     0.000339644249
      12       -0.045645570297    -0.047633514619     0.077809299329


*** tstop() called on cx1-1-3-2.cx1.hpc.ic.ac.uk at Fri Sep  2 14:41:00 2016
Module time:
	user time   =      26.16 seconds =       0.44 minutes
	system time =       0.27 seconds =       0.00 minutes
	total time  =          8 seconds =       0.13 minutes
Total time:
	user time   =     102.51 seconds =       1.71 minutes
	system time =       1.26 seconds =       0.02 minutes
	total time  =         30 seconds =       0.50 minutes
CURRENT ENERGY: -1146.2493051669

			-----------------------------------------
			 OPTKING 2.0: for geometry optimizations 
			  - R.A. King,  Bethel University        
			-----------------------------------------

	Previous internal coordinate definitions found.
	---Fragment 1 Geometry and Gradient---
	 H          -3.2859405863       -2.1822788469        3.6260960217
	 C          -2.3017308552       -1.6075205835        1.9488318043
	 O           0.1101713879       -1.1304512265        2.6145907479
	 F          -2.4306887316       -3.4221161630        0.2173502139
	 F          -3.3646136402        0.3965361088        1.0057360308
	 C           1.7531393263       -0.3078876071        0.7768917717
	 C           0.8173921592        2.1388775752       -0.3787132307
	 CL          2.0523727665       -2.5566312757       -1.6609134676
	 H           3.5819643429       -0.0176363592        1.6109545173
	 F           2.4523906962        2.9575486127       -2.0717792555
	 F           0.6289519539        3.8512300403        1.4213944114
	 F          -1.3419206419        1.8498764040       -1.4770969954
	            -0.0003378443        0.0029954410       -0.0007613349
	             0.0130521022        0.0228065633       -0.0182276942
	            -0.0142295027       -0.0005634914       -0.0072466938
	             0.0139594190        0.0024377225       -0.0069888196
	             0.0714757994        0.0254132455       -0.0630924384
	             0.0043276393        0.0036503693        0.0076590224
	            -0.0188332906       -0.0079028304        0.0032425128
	            -0.0243201035        0.0055468942        0.0123922374
	             0.0017286392        0.0002841780       -0.0031170450
	            -0.0036638054       -0.0037071849       -0.0020086903
	             0.0024865177       -0.0033273923        0.0003396442
	            -0.0456455703       -0.0476335146        0.0778092993

	---Fragment 1 Intrafragment Coordinates---
	 - Coordinate -           - BOHR/RAD -       - ANG/DEG -
	 R(1,2)           =         2.027864	       1.073099
	 R(2,3)           =         2.547175	       1.347907
	 R(2,4)           =         2.511457	       1.329006
	 R(2,5)           =         2.456704	       1.300032
	 R(3,6)           =         2.598671	       1.375158
	 R(6,7)           =         2.863164	       1.515121
	 R(6,8)           =         3.330058	       1.762191
	 R(6,9)           =         2.030888	       1.074700
	 R(7,10)          =         2.491970	       1.318694
	 R(7,11)          =         2.491596	       1.318496
	 R(7,12)          =         2.439795	       1.291084
	 B(1,2,3)         =         1.871791	     107.245704
	 B(1,2,4)         =         1.918276	     109.909097
	 B(1,2,5)         =         1.916377	     109.800299
	 B(2,3,6)         =         2.063612	     118.236264
	 B(3,2,4)         =         1.943509	     111.354891
	 B(3,2,5)         =         1.936088	     110.929665
	 B(3,6,7)         =         1.927611	     110.443952
	 B(3,6,8)         =         1.939870	     111.146386
	 B(3,6,9)         =         1.900901	     108.913594
	 B(4,2,5)         =         1.878134	     107.609146
	 B(6,7,10)        =         1.918279	     109.909274
	 B(6,7,11)        =         1.896972	     108.688468
	 B(6,7,12)        =         1.949513	     111.698875
	 B(7,6,8)         =         1.887018	     108.118148
	 B(7,6,9)         =         1.915514	     109.750856
	 B(8,6,9)         =         1.892562	     108.435816
	 B(10,7,11)       =         1.890934	     108.342516
	 B(10,7,12)       =         1.889913	     108.284043
	 B(11,7,12)       =         1.917420	     109.860092
	 D(1,2,3,6)       =        -3.120467	    -178.789587
	 D(2,3,6,7)       =         1.036816	      59.405181
	 D(2,3,6,8)       =        -1.057614	     -60.596799
	*D(2,3,6,9)       =         3.141593	     180.000000
	 D(3,6,7,10)      =         3.101766	     177.718099
	 D(3,6,7,11)      =         1.035051	      59.304067
	 D(3,6,7,12)      =        -1.083282	     -62.067474
	 D(4,2,3,6)       =         1.063447	      60.931041
	 D(5,2,3,6)       =        -1.027839	     -58.890831
	 D(8,6,7,10)      =        -1.055488	     -60.475034
	 D(8,6,7,11)      =        -3.122203	    -178.889066
	 D(8,6,7,12)      =         1.042649	      59.739393
	 D(9,6,7,10)      =         1.005756	      57.625579
	 D(9,6,7,11)      =        -1.060959	     -60.788453
	 D(9,6,7,12)      =         3.103894	     177.840006
	 R(2,11)          =         6.218123	       3.290489
	 R(2,12)          =         4.961030	       2.625264
	 R(4,8)           =         4.937082	       2.612591
	 R(5,7)           =         4.737259	       2.506850
	 R(5,8)           =         6.721306	       3.556762
	 R(5,11)          =         5.296815	       2.802954
	 R(5,12)          =         3.516809	       1.861015

	Current energy   :     -1146.2493051669

	Energy change for the previous step:
		Projected    :        -0.0786339946
		Actual       :        -0.0684320801
	Energy ratio indicates good step: Trust radius increased to 1.000e+00.


	Performing BFGS update.
	Previous computed or guess Hessian on step 1.
	Steps to be used in Hessian update: 1
	Taking RFO optimization step.
	Going to follow RFO solution 1.
	Using RFO vector 1.
	Norm of target step-size    0.48017
	Projected energy change by RFO approximation:        -0.0222299382

	Back-transformation to cartesian coordinates...
	Successfully converged to displaced geometry.

	Back-transformation to cartesian coordinates to adjust frozen coordinates...
	Successfully converged to displaced geometry.

	--- Internal Coordinate Step in ANG or DEG, aJ/ANG or AJ/DEG ---
	 ---------------------------------------------------------------------------
	   Coordinate                Previous        Force       Change         New 
	   ----------                --------       ------       ------       ------
	    1 R(1,2)          =      1.073099     0.010832     0.002425     1.075525
	    2 R(2,3)          =      1.347907     0.019169     0.012166     1.360073
	    3 R(2,4)          =      1.329006    -0.008571    -0.000727     1.328279
	    4 R(2,5)          =      1.300032    -0.015341     0.016675     1.316707
	    5 R(3,6)          =      1.375158    -0.030483     0.003644     1.378802
	    6 R(6,7)          =      1.515121     0.004095     0.014174     1.529295
	    7 R(6,8)          =      1.762191    -0.008551     0.011210     1.773400
	    8 R(6,9)          =      1.074700    -0.002613    -0.000175     1.074525
	    9 R(7,10)         =      1.318694     0.018595     0.002204     1.320898
	   10 R(7,11)         =      1.318496     0.000594     0.001795     1.320291
	   11 R(7,12)         =      1.291084     0.015937     0.012762     1.303846
	   12 B(1,2,3)        =    107.245704    -0.000146     0.352479   107.598182
	   13 B(1,2,4)        =    109.909097    -0.000157    -0.720698   109.188399
	   14 B(1,2,5)        =    109.800299    -0.000016     1.200038   111.000337
	   15 B(2,3,6)        =    118.236264     0.000144     1.402590   119.638854
	   16 B(3,2,4)        =    111.354891     0.000157    -0.138739   111.216152
	   17 B(3,2,5)        =    110.929665    -0.000037    -0.767222   110.162443
	   18 B(3,6,7)        =    110.443952     0.000688     0.865999   111.309951
	   19 B(3,6,8)        =    111.146386     0.000051     0.713588   111.859974
	   20 B(3,6,9)        =    108.913594    -0.000830    -2.566927   106.346667
	   21 B(4,2,5)        =    107.609146     0.000192     0.085181   107.694327
	   22 B(6,7,10)       =    109.909274    -0.000031     0.277194   110.186469
	   23 B(6,7,11)       =    108.688468     0.000109     0.931033   109.619501
	   24 B(6,7,12)       =    111.698875     0.000000     0.078498   111.777374
	   25 B(7,6,8)        =    108.118148    -0.000451     1.573073   109.691221
	   26 B(7,6,9)        =    109.750856     0.000401     0.646505   110.397361
	   27 B(8,6,9)        =    108.435816     0.000148    -1.331733   107.104083
	   28 B(10,7,11)      =    108.342516    -0.000073    -1.286816   107.055701
	   29 B(10,7,12)      =    108.284043    -0.000140     0.681827   108.965870
	   30 B(11,7,12)      =    109.860092     0.000133    -0.747034   109.113058
	   31 D(1,2,3,6)      =   -178.789587    -0.000068    -1.614142  -180.403729
	   32 D(2,3,6,7)      =     59.405181    -0.000090     0.310755    59.715937
	   33 D(2,3,6,8)      =    -60.596799    -0.000072    -2.793747   -63.390547
	   34 *D(2,3,6,9)     =    180.000000     0.000000     0.000000   180.000000
	   35 D(3,6,7,10)     =    177.718099    -0.000114    -4.290339   173.427760
	   36 D(3,6,7,11)     =     59.304067    -0.000105    -3.445287    55.858780
	   37 D(3,6,7,12)     =    -62.067474    -0.000160    -3.187792   -65.255266
	   38 D(4,2,3,6)      =     60.931041    -0.000024    -0.873573    60.057467
	   39 D(5,2,3,6)      =    -58.890831    -0.000098    -0.383185   -59.274016
	   40 D(8,6,7,10)     =    -60.475034    -0.000069    -1.757989   -62.233023
	   41 D(8,6,7,11)     =   -178.889066    -0.000059    -0.912937  -179.802003
	   42 D(8,6,7,12)     =     59.739393    -0.000114    -0.655441    59.083951
	   43 D(9,6,7,10)     =     57.625579    -0.000037    -2.061134    55.564445
	   44 D(9,6,7,11)     =    -60.788453    -0.000027    -1.216082   -62.004535
	   45 D(9,6,7,12)     =    177.840006    -0.000082    -0.958586   176.881419
	   46 R(2,11)         =      3.290489     0.053935     0.014777     3.305266
	   47 R(2,12)         =      2.625264     0.288857     0.111097     2.736362
	   48 R(4,8)          =      2.612591     0.120330     0.097172     2.709763
	   49 R(5,7)          =      2.506850     0.211893     0.063912     2.570762
	   50 R(5,8)          =      3.556762     0.156269     0.110231     3.666994
	   51 R(5,11)         =      2.802954    -0.021295    -0.013704     2.789249
	   52 R(5,12)         =      1.861015     0.512811     0.134358     1.995374
	 ---------------------------------------------------------------------------

  ==> Convergence Check <==

  Measures of convergence in internal coordinates in au.
  Criteria marked as inactive (o), active & met (*), and active & unmet ( ).
  ---------------------------------------------------------------------------------------------
   Step     Total Energy     Delta E     MAX Force     RMS Force      MAX Disp      RMS Disp   
  ---------------------------------------------------------------------------------------------
    Convergence Criteria    1.00e-06 *    3.00e-04 *             o    1.20e-03 *             o
  ---------------------------------------------------------------------------------------------
      2   -1146.24930517   -6.84e-02      6.22e-02      1.17e-02 o    2.54e-01      6.66e-02 o  ~
  ---------------------------------------------------------------------------------------------

	Writing optimization data to binary file.
	Structure for next step:
	Cartesian Geometry (in Angstrom)
	    H    -1.7244669037  -1.1961205511   1.9601001738
	    C    -1.2366298904  -0.8627216296   1.0614271514
	    O     0.0631420764  -0.6070800813   1.3697121466
	    F    -1.3336431752  -1.8096224145   0.1349868869
	    F    -1.8122996613   0.2221404286   0.5866696247
	    C     0.9237785765  -0.1686282290   0.3857615805
	    C     0.4439690254   1.1483586223  -0.2258512374
	   CL     1.1363167644  -1.3788971904  -0.8929194533
	    H     1.8800633403  -0.0360281286   0.8575034090
	    F     1.3511101807   1.6196691994  -1.0623515390
	    F     0.2902951864   2.0495397745   0.7267376526
	    F    -0.6846537511   1.0032749949  -0.8623851742
			--------------------------
			 OPTKING Finished Execution 
			--------------------------

    Structure for next step:
    Molecular point group: c1
    Full point group: C1

    Geometry (in Angstrom), charge = 0, multiplicity = 1:

    H           -1.729275858663    -1.200706930819     1.964828945166
    C           -1.241438882607    -0.867308034810     1.066155991367
    O            0.058332984897    -0.611666505977     1.374440963004
    F           -1.338452160045    -1.814208747320     0.139715797609
    F           -1.817108609586     0.217553940571     0.591398500954
    C            0.918969419294    -0.173214687213     0.390490472042
    C            0.439159904843     1.143772063514    -0.221122299166
    CL           1.131507590943    -1.383483556119    -0.888190464137
    H            1.875254110047    -0.040614596882     0.862232264566
    F            1.346300990848     1.615082604687    -1.057622536851
    F            0.285486077583     2.044953146942     0.731466518156
    F           -0.689462785448     0.998688447233    -0.857656187308

gradient() will perform analytic gradient computation.

*** tstart() called on cx1-1-3-2.cx1.hpc.ic.ac.uk
*** at Fri Sep  2 14:41:00 2016


         ---------------------------------------------------------
                                   SCF
            by Justin Turney, Rob Parrish, and Andy Simmonett
                              RHF Reference
                        4 Threads,   2000 MiB Core
         ---------------------------------------------------------

  ==> Geometry <==

    Molecular point group: c1
    Full point group: C1

    Geometry (in Angstrom), charge = 0, multiplicity = 1:

       Center              X                  Y                   Z               Mass       
    ------------   -----------------  -----------------  -----------------  -----------------
           H         -1.729275858663    -1.200706930819     1.964828945166     1.007825032070
           C         -1.241438882607    -0.867308034810     1.066155991367    12.000000000000
           O          0.058332984897    -0.611666505977     1.374440963004    15.994914619560
           F         -1.338452160045    -1.814208747320     0.139715797609    18.998403224000
           F         -1.817108609586     0.217553940571     0.591398500954    18.998403224000
           C          0.918969419294    -0.173214687213     0.390490472042    12.000000000000
           C          0.439159904843     1.143772063514    -0.221122299166    12.000000000000
          CL          1.131507590943    -1.383483556119    -0.888190464137    34.968852682000
           H          1.875254110047    -0.040614596882     0.862232264566     1.007825032070
           F          1.346300990848     1.615082604687    -1.057622536851    18.998403224000
           F          0.285486077583     2.044953146942     0.731466518156    18.998403224000
           F         -0.689462785448     0.998688447233    -0.857656187308    18.998403224000

  Running in c1 symmetry.

  Rotational constants: A =      0.05141  B =      0.04028  C =      0.02880 [cm^-1]
  Rotational constants: A =   1541.13548  B =   1207.54973  C =    863.51603 [MHz]
  Nuclear repulsion =  778.582993981547588

  Charge       = 0
  Multiplicity = 1
  Electrons    = 90
  Nalpha       = 45
  Nbeta        = 45

  ==> Algorithm <==

  SCF Algorithm Type is DF.
  DIIS enabled.
  MOM disabled.
  Fractional occupation disabled.
  Guess Type is READ.
  Energy threshold   = 1.00e-08
  Density threshold  = 1.00e-08
  Integral threshold = 0.00e+00

  ==> Primary Basis <==

  Basis Set: 6-31G*
    Number of shells: 66
    Number of basis function: 158
    Number of Cartesian functions: 158
    Spherical Harmonics?: false
    Max angular momentum: 2

  ==> Pre-Iterations <==

   -------------------------------------------------------
    Irrep   Nso     Nmo     Nalpha   Nbeta   Ndocc  Nsocc
   -------------------------------------------------------
     A        158     158       0       0       0       0
   -------------------------------------------------------
    Total     158     158      45      45      45       0
   -------------------------------------------------------

 OEINTS: Overlap, kinetic, potential, dipole, and quadrupole integrals
         stored in file 35.

  ==> Integral Setup <==

  ==> DFJK: Density-Fitted J/K Matrices <==

    J tasked:                  Yes
    K tasked:                  Yes
    wK tasked:                  No
    OpenMP threads:              4
    Integrals threads:           4
    Memory (MB):              1430
    Algorithm:                Core
    Integral Cache:           NONE
    Schwarz Cutoff:          1E-12
    Fitting Condition:       1E-12

   => Auxiliary Basis Set <=

  Basis Set: 
    Number of shells: 270
    Number of basis function: 909
    Number of Cartesian functions: 909
    Spherical Harmonics?: false
    Max angular momentum: 3

  Minimum eigenvalue in the overlap matrix is 1.4907794281E-03.
  Using Symmetric Orthogonalization.
  SCF Guess: Reading in previously saved MOs, projecting if necessary.

  Using orbitals from previous SCF, no projection.
  Recomputing DOCC and SOCC from number of alpha and beta electrons from previous calculation.
              A 
    DOCC [    45 ]

  ==> Iterations <==

                           Total Energy        Delta E     RMS |[F,P]|

   @DF-RHF iter   0: -1146.24507504663893   -1.14625e+03   1.41737e-03 
   @DF-RHF iter   1: -1146.27545652033768   -3.03815e-02   2.25925e-04 
   @DF-RHF iter   2: -1146.27608461444493   -6.28094e-04   1.10161e-04 DIIS
   @DF-RHF iter   3: -1146.27620088732147   -1.16273e-04   3.29204e-05 DIIS
   @DF-RHF iter   4: -1146.27622453972253   -2.36524e-05   7.04728e-06 DIIS
   @DF-RHF iter   5: -1146.27622587317592   -1.33345e-06   2.66899e-06 DIIS
   @DF-RHF iter   6: -1146.27622609589866   -2.22723e-07   9.06629e-07 DIIS
   @DF-RHF iter   7: -1146.27622611584229   -1.99436e-08   2.61351e-07 DIIS
   @DF-RHF iter   8: -1146.27622611761103   -1.76874e-09   6.95196e-08 DIIS
   @DF-RHF iter   9: -1146.27622611777338   -1.62345e-10   2.36012e-08 DIIS
   @DF-RHF iter  10: -1146.27622611779543   -2.20552e-11   7.96709e-09 DIIS

  ==> Post-Iterations <==

    Orbital Energies (a.u.)
    -----------------------

    Doubly Occupied:                                                      

       1A   -104.837413     2A    -26.355869     3A    -26.354878  
       4A    -26.347878     5A    -26.334674     6A    -26.333609  
       7A    -20.646648     8A    -11.524765     9A    -11.482121  
      10A    -11.399295    11A    -10.572647    12A     -8.041987  
      13A     -8.038441    14A     -8.038319    15A     -1.760580  
      16A     -1.714539    17A     -1.658426    18A     -1.651202  
      19A     -1.631059    20A     -1.482653    21A     -1.175060  
      22A     -1.044870    23A     -0.995586    24A     -0.910722  
      25A     -0.865664    26A     -0.848988    27A     -0.843335  
      28A     -0.831355    29A     -0.809383    30A     -0.753118  
      31A     -0.729771    32A     -0.724916    33A     -0.704361  
      34A     -0.697910    35A     -0.680521    36A     -0.663691  
      37A     -0.661423    38A     -0.653112    39A     -0.644091  
      40A     -0.632237    41A     -0.578490    42A     -0.563784  
      43A     -0.520087    44A     -0.470571    45A     -0.462141  

    Virtual:                                                              

      46A      0.178394    47A      0.234648    48A      0.262868  
      49A      0.287270    50A      0.353478    51A      0.385464  
      52A      0.392357    53A      0.422677    54A      0.448700  
      55A      0.475894    56A      0.500440    57A      0.555887  
      58A      0.625715    59A      0.629912    60A      0.652054  
      61A      0.685684    62A      0.702450    63A      0.725057  
      64A      0.749930    65A      0.759549    66A      0.764025  
      67A      0.773029    68A      0.856677    69A      0.935310  
      70A      0.978954    71A      1.009483    72A      1.064207  
      73A      1.073100    74A      1.126857    75A      1.149763  
      76A      1.173425    77A      1.193335    78A      1.263163  
      79A      1.268389    80A      1.311973    81A      1.322695  
      82A      1.360983    83A      1.388107    84A      1.407934  
      85A      1.431587    86A      1.448449    87A      1.480345  
      88A      1.535286    89A      1.550891    90A      1.561219  
      91A      1.604834    92A      1.612894    93A      1.633366  
      94A      1.644057    95A      1.656576    96A      1.658782  
      97A      1.685766    98A      1.700417    99A      1.759603  
     100A      1.779884   101A      1.822483   102A      1.862593  
     103A      1.916484   104A      1.936804   105A      1.957643  
     106A      2.002585   107A      2.023996   108A      2.053091  
     109A      2.068368   110A      2.078286   111A      2.089616  
     112A      2.123899   113A      2.142101   114A      2.161860  
     115A      2.242863   116A      2.248554   117A      2.278219  
     118A      2.317703   119A      2.338486   120A      2.366667  
     121A      2.378223   122A      2.391006   123A      2.416931  
     124A      2.441730   125A      2.461103   126A      2.499215  
     127A      2.514567   128A      2.554249   129A      2.568548  
     130A      2.656365   131A      2.684427   132A      2.769928  
     133A      2.815877   134A      2.850821   135A      2.872312  
     136A      2.891871   137A      3.057331   138A      3.070999  
     139A      3.161855   140A      3.174036   141A      3.200554  
     142A      3.268979   143A      3.362716   144A      3.405790  
     145A      3.416366   146A      3.453061   147A      3.493126  
     148A      3.544160   149A      4.375056   150A      4.590228  
     151A      4.658936   152A      4.705763   153A      4.856138  
     154A      4.948497   155A      5.083267   156A      5.477351  
     157A      5.599817   158A      6.434845  

    Final Occupation by Irrep:
              A 
    DOCC [    45 ]

  Energy converged.

  @DF-RHF Final Energy: -1146.27622611779543

   => Energetics <=

    Nuclear Repulsion Energy =            778.5829939815475882
    One-Electron Energy =               -3140.3740689292353636
    Two-Electron Energy =                1215.5148488298921166
    DFT Exchange-Correlation Energy =       0.0000000000000000
    Empirical Dispersion Energy =           0.0000000000000000
    PCM Polarization Energy =               0.0000000000000000
    EFP Energy =                            0.0000000000000000
    Total Energy =                      -1146.2762261177956589

    Alert: EFP and PCM quantities not currently incorporated into SCF psivars.

Properties will be evaluated at   0.000000,   0.000000,   0.000000 Bohr
  ==> Properties <==


Properties computed using the SCF density matrix

  Nuclear Dipole Moment: (a.u.)
     X:     1.1892      Y:    -2.7888      Z:     3.8970

  Electronic Dipole Moment: (a.u.)
     X:    -1.0560      Y:     2.6110      Z:    -3.0573

  Dipole Moment: (a.u.)
     X:     0.1332      Y:    -0.1778      Z:     0.8397     Total:     0.8686

  Dipole Moment: (Debye)
     X:     0.3386      Y:    -0.4519      Z:     2.1343     Total:     2.2077


  Saving occupied orbitals to File 180.

*** tstop() called on cx1-1-3-2.cx1.hpc.ic.ac.uk at Fri Sep  2 14:41:06 2016
Module time:
	user time   =      21.41 seconds =       0.36 minutes
	system time =       0.30 seconds =       0.01 minutes
	total time  =          6 seconds =       0.10 minutes
Total time:
	user time   =     124.41 seconds =       2.07 minutes
	system time =       1.58 seconds =       0.03 minutes
	total time  =         36 seconds =       0.60 minutes

*** tstart() called on cx1-1-3-2.cx1.hpc.ic.ac.uk
*** at Fri Sep  2 14:41:06 2016


         ------------------------------------------------------------
                                   SCF GRAD                          
                          Rob Parrish, Justin Turney,                
                       Andy Simmonett, and Alex Sokolov              
         ------------------------------------------------------------

  ==> Geometry <==

    Molecular point group: c1
    Full point group: C1

    Geometry (in Angstrom), charge = 0, multiplicity = 1:

       Center              X                  Y                   Z               Mass       
    ------------   -----------------  -----------------  -----------------  -----------------
           H         -1.729275858663    -1.200706930819     1.964828945166     1.007825032070
           C         -1.241438882607    -0.867308034810     1.066155991367    12.000000000000
           O          0.058332984897    -0.611666505977     1.374440963004    15.994914619560
           F         -1.338452160045    -1.814208747320     0.139715797609    18.998403224000
           F         -1.817108609586     0.217553940571     0.591398500954    18.998403224000
           C          0.918969419294    -0.173214687213     0.390490472042    12.000000000000
           C          0.439159904843     1.143772063514    -0.221122299166    12.000000000000
          CL          1.131507590943    -1.383483556119    -0.888190464137    34.968852682000
           H          1.875254110047    -0.040614596882     0.862232264566     1.007825032070
           F          1.346300990848     1.615082604687    -1.057622536851    18.998403224000
           F          0.285486077583     2.044953146942     0.731466518156    18.998403224000
           F         -0.689462785448     0.998688447233    -0.857656187308    18.998403224000

  Nuclear repulsion =  778.582993981547588

  ==> Basis Set <==

  Basis Set: 6-31G*
    Number of shells: 66
    Number of basis function: 158
    Number of Cartesian functions: 158
    Spherical Harmonics?: false
    Max angular momentum: 2

  ==> DFJKGrad: Density-Fitted SCF Gradients <==

    Gradient:                    1
    J tasked:                  Yes
    K tasked:                  Yes
    wK tasked:                  No
    OpenMP threads:              4
    Integrals threads:           4
    Memory (MB):              1430
    Schwarz Cutoff:          0E+00
    Fitting Condition:       1E-12

   => Auxiliary Basis Set <=

  Basis Set: 
    Number of shells: 270
    Number of basis function: 909
    Number of Cartesian functions: 909
    Spherical Harmonics?: false
    Max angular momentum: 3


  -Total Gradient:
     Atom            X                  Y                   Z
    ------   -----------------  -----------------  -----------------
       1       -0.000738593787    -0.002200521849     0.000666199541
       2        0.002798942982     0.010134963257    -0.008270165130
       3       -0.001368288309     0.001471192337    -0.002178354049
       4        0.009447065603    -0.000679066412    -0.004559532894
       5        0.039747210504     0.020252750264    -0.041353987020
       6        0.004117088871     0.002854428758     0.003255825178
       7       -0.010624799285    -0.006981864556     0.002401420408
       8       -0.014295207122    -0.000715140966     0.006604023517
       9        0.000694050804    -0.003595028439     0.000164600802
      10        0.000859803491     0.003012226801    -0.000708877494
      11        0.001929684897     0.002852216401    -0.000638460592
      12       -0.032566958682    -0.026406155633     0.044617307741


*** tstop() called on cx1-1-3-2.cx1.hpc.ic.ac.uk at Fri Sep  2 14:41:14 2016
Module time:
	user time   =      26.60 seconds =       0.44 minutes
	system time =       0.27 seconds =       0.00 minutes
	total time  =          8 seconds =       0.13 minutes
Total time:
	user time   =     151.03 seconds =       2.52 minutes
	system time =       1.85 seconds =       0.03 minutes
	total time  =         44 seconds =       0.73 minutes
CURRENT ENERGY: -1146.2762261178

			-----------------------------------------
			 OPTKING 2.0: for geometry optimizations 
			  - R.A. King,  Bethel University        
			-----------------------------------------

	Previous internal coordinate definitions found.
	---Fragment 1 Geometry and Gradient---
	 H          -3.2678577811       -2.2690072651        3.7129886043
	 C          -2.3459794988       -1.6389746586        2.0147428386
	 O           0.1102333660       -1.1558821810        2.5973170059
	 F          -2.5293080245       -3.4283576803        0.2640245939
	 F          -3.4338376258        0.4111173668        1.1175812022
	 C           1.7366005270       -0.3273283210        0.7379200497
	 C           0.8298919487        2.1614159585       -0.4178605873
	 CL          2.1382394642       -2.6144050304       -1.6784367311
	 H           3.5437166976       -0.0767504651        1.6293828430
	 F           2.5441401651        3.0520638048       -1.9986169466
	 F           0.5394905014        3.8644014023        1.3822713947
	 F          -1.3028958433        1.8872476573       -1.6207353102
	            -0.0007385938       -0.0022005218        0.0006661995
	             0.0027989430        0.0101349633       -0.0082701651
	            -0.0013682883        0.0014711923       -0.0021783540
	             0.0094470656       -0.0006790664       -0.0045595329
	             0.0397472105        0.0202527503       -0.0413539870
	             0.0041170889        0.0028544288        0.0032558252
	            -0.0106247993       -0.0069818646        0.0024014204
	            -0.0142952071       -0.0007151410        0.0066040235
	             0.0006940508       -0.0035950284        0.0001646008
	             0.0008598035        0.0030122268       -0.0007088775
	             0.0019296849        0.0028522164       -0.0006384606
	            -0.0325669587       -0.0264061556        0.0446173077

	---Fragment 1 Intrafragment Coordinates---
	 - Coordinate -           - BOHR/RAD -       - ANG/DEG -
	 R(1,2)           =         2.032447	       1.075525
	 R(2,3)           =         2.570166	       1.360073
	 R(2,4)           =         2.510083	       1.328279
	 R(2,5)           =         2.488215	       1.316707
	 R(3,6)           =         2.605557	       1.378802
	 R(6,7)           =         2.889948	       1.529295
	 R(6,8)           =         3.351241	       1.773400
	 R(6,9)           =         2.030558	       1.074525
	 R(7,10)          =         2.496135	       1.320898
	 R(7,11)          =         2.494988	       1.320291
	 R(7,12)          =         2.463911	       1.303846
	 B(1,2,3)         =         1.877943	     107.598182
	 B(1,2,4)         =         1.905697	     109.188399
	 B(1,2,5)         =         1.937321	     111.000337
	 B(2,3,6)         =         2.088092	     119.638854
	 B(3,2,4)         =         1.941088	     111.216152
	 B(3,2,5)         =         1.922697	     110.162443
	 B(3,6,7)         =         1.942725	     111.309951
	 B(3,6,8)         =         1.952325	     111.859974
	 B(3,6,9)         =         1.856099	     106.346667
	 B(4,2,5)         =         1.879621	     107.694327
	 B(6,7,10)        =         1.923117	     110.186469
	 B(6,7,11)        =         1.913221	     109.619501
	 B(6,7,12)        =         1.950883	     111.777374
	 B(7,6,8)         =         1.914473	     109.691221
	 B(7,6,9)         =         1.926797	     110.397361
	 B(8,6,9)         =         1.869319	     107.104083
	 B(10,7,11)       =         1.868474	     107.055701
	 B(10,7,12)       =         1.901813	     108.965870
	 B(11,7,12)       =         1.904382	     109.113058
	 D(1,2,3,6)       =         3.134546	     179.596271
	 D(2,3,6,7)       =         1.042240	      59.715937
	 D(2,3,6,8)       =        -1.106374	     -63.390547
	*D(2,3,6,9)       =         3.141593	     180.000000
	 D(3,6,7,10)      =         3.026885	     173.427760
	 D(3,6,7,11)      =         0.974920	      55.858780
	 D(3,6,7,12)      =        -1.138919	     -65.255266
	 D(4,2,3,6)       =         1.048201	      60.057467
	 D(5,2,3,6)       =        -1.034527	     -59.274016
	 D(8,6,7,10)      =        -1.086171	     -62.233023
	 D(8,6,7,11)      =        -3.138137	    -179.802003
	 D(8,6,7,12)      =         1.031209	      59.083951
	 D(9,6,7,10)      =         0.969783	      55.564445
	 D(9,6,7,11)      =        -1.082183	     -62.004535
	 D(9,6,7,12)      =         3.087163	     176.881419
	 R(2,11)          =         6.246047	       3.305266
	 R(2,12)          =         5.170974	       2.736362
	 R(4,8)           =         5.120710	       2.709763
	 R(5,7)           =         4.858036	       2.570762
	 R(5,8)           =         6.929614	       3.666994
	 R(5,11)          =         5.270917	       2.789249
	 R(5,12)          =         3.770710	       1.995374

	Current energy   :     -1146.2762261178

	Energy change for the previous step:
		Projected    :        -0.0222299382
		Actual       :        -0.0269209509

	Performing BFGS update.
	Previous computed or guess Hessian on step 1.
	Change in internal coordinate of 6.48e-01 exceeds limit of 5.00e-01.
	 Skipping Hessian update for step 1.
	Steps to be used in Hessian update: 2
	Taking RFO optimization step.
	Going to follow RFO solution 1.
	Using RFO vector 1.
	Norm of target step-size    0.47693
	Projected energy change by RFO approximation:        -0.0165167921

	Back-transformation to cartesian coordinates...
	Successfully converged to displaced geometry.

	Back-transformation to cartesian coordinates to adjust frozen coordinates...
	Successfully converged to displaced geometry.

	--- Internal Coordinate Step in ANG or DEG, aJ/ANG or AJ/DEG ---
	 ---------------------------------------------------------------------------
	   Coordinate                Previous        Force       Change         New 
	   ----------                --------       ------       ------       ------
	    1 R(1,2)          =      1.075525    -0.012966    -0.003000     1.072525
	    2 R(2,3)          =      1.360073    -0.026079     0.002365     1.362439
	    3 R(2,4)          =      1.328279    -0.017519    -0.003444     1.324835
	    4 R(2,5)          =      1.316707    -0.040025     0.007081     1.323788
	    5 R(3,6)          =      1.378802    -0.008412     0.002459     1.381260
	    6 R(6,7)          =      1.529295    -0.042490    -0.006699     1.522596
	    7 R(6,8)          =      1.773400    -0.015199     0.001492     1.774892
	    8 R(6,9)          =      1.074525    -0.002029    -0.000380     1.074145
	    9 R(7,10)         =      1.320898    -0.017418    -0.002504     1.318394
	   10 R(7,11)         =      1.320291    -0.008225    -0.002149     1.318142
	   11 R(7,12)         =      1.303846    -0.032788     0.005222     1.309068
	   12 B(1,2,3)        =    107.598182    -0.000130    -0.269930   107.328252
	   13 B(1,2,4)        =    109.188399     0.000108     1.055896   110.244295
	   14 B(1,2,5)        =    111.000337    -0.000208    -1.083083   109.917254
	   15 B(2,3,6)        =    119.638854     0.000120     1.552859   121.191714
	   16 B(3,2,4)        =    111.216152     0.000194     0.935663   112.151815
[...]

  Nuclear repulsion =  757.545594984318313

  ==> Basis Set <==

  Basis Set: 6-31G*
    Number of shells: 66
    Number of basis function: 158
    Number of Cartesian functions: 158
    Spherical Harmonics?: false
    Max angular momentum: 2

  ==> DFJKGrad: Density-Fitted SCF Gradients <==

    Gradient:                    1
    J tasked:                  Yes
    K tasked:                  Yes
    wK tasked:                  No
    OpenMP threads:              4
    Integrals threads:           4
    Memory (MB):              1430
    Schwarz Cutoff:          0E+00
    Fitting Condition:       1E-12

   => Auxiliary Basis Set <=

  Basis Set: 
    Number of shells: 270
    Number of basis function: 909
    Number of Cartesian functions: 909
    Spherical Harmonics?: false
    Max angular momentum: 3


  -Total Gradient:
     Atom            X                  Y                   Z
    ------   -----------------  -----------------  -----------------
       1        0.000009367701     0.000007310377     0.000005033029
       2        0.000669762632    -0.002764914409    -0.000604990902
       3       -0.000951689156     0.003821174727     0.000745138831
       4       -0.000009223900     0.000008652220     0.000025345729
       5        0.000028547533    -0.000023665363     0.000019977049
       6       -0.000552642813     0.001896999055     0.000429817200
       7       -0.000004332735     0.000003676045    -0.000016708892
       8        0.000006588860    -0.000004147759    -0.000015791341
       9        0.000803917987    -0.002919131799    -0.000586058783
      10        0.000004714641    -0.000001446456     0.000034589842
      11        0.000012184996    -0.000014671551     0.000004979028
      12       -0.000017195670    -0.000009835037    -0.000041330748


*** tstop() called on cx1-1-3-2.cx1.hpc.ic.ac.uk at Fri Sep  2 14:44:53 2016
Module time:
	user time   =      26.25 seconds =       0.44 minutes
	system time =       0.28 seconds =       0.00 minutes
	total time  =          7 seconds =       0.12 minutes
Total time:
	user time   =     903.87 seconds =      15.06 minutes
	system time =      10.98 seconds =       0.18 minutes
	total time  =        263 seconds =       4.38 minutes
CURRENT ENERGY: -1146.3053880950

			-----------------------------------------
			 OPTKING 2.0: for geometry optimizations 
			  - R.A. King,  Bethel University        
			-----------------------------------------

	Previous internal coordinate definitions found.
	---Fragment 1 Geometry and Gradient---
	 H          -3.0867553735       -2.6171412716        3.9149341178
	 C          -2.4640942396       -1.7570477338        2.1875697970
	 O           0.0153953660       -1.1469233651        2.5168117699
	 F          -2.8190205384       -3.3242916378        0.2733835543
	 F          -3.8348968067        0.2954252835        1.7303444589
	 C           1.6627686177       -0.3318327906        0.6629810572
	 C           0.9275369970        2.1833356429       -0.5572462482
	 CL          2.3328963002       -2.6159251514       -1.7102281471
	 H           3.4215813513       -0.0453843906        1.6368678282
	 F           2.8949065025        3.0845325839       -1.7913007207
	 F           0.3190588118        3.8139142548        1.2187142665
	 F          -0.9644674421        1.9925301268       -2.1452212283
	             0.0000093677        0.0000073104        0.0000050330
	             0.0006697626       -0.0027649144       -0.0006049909
	            -0.0009516892        0.0038211747        0.0007451388
	            -0.0000092239        0.0000086522        0.0000253457
	             0.0000285475       -0.0000236654        0.0000199770
	            -0.0005526428        0.0018969991        0.0004298172
	            -0.0000043327        0.0000036760       -0.0000167089
	             0.0000065889       -0.0000041478       -0.0000157913
	             0.0008039180       -0.0029191318       -0.0005860588
	             0.0000047146       -0.0000014465        0.0000345898
	             0.0000121850       -0.0000146716        0.0000049790
	            -0.0000171957       -0.0000098350       -0.0000413307

	---Fragment 1 Intrafragment Coordinates---
	 - Coordinate -           - BOHR/RAD -       - ANG/DEG -
	 R(1,2)           =         2.027623	       1.072972
	 R(2,3)           =         2.574591	       1.362415
	 R(2,4)           =         2.499267	       1.322555
	 R(2,5)           =         2.510139	       1.328309
	 R(3,6)           =         2.610536	       1.381436
	 R(6,7)           =         2.890604	       1.529642
	 R(6,8)           =         3.361290	       1.778718
	 R(6,9)           =         2.030746	       1.074625
	 R(7,10)          =         2.491102	       1.318234
	 R(7,11)          =         2.486578	       1.315840
	 R(7,12)          =         2.477449	       1.311009
	 B(1,2,3)         =         1.862230	     106.697899
	 B(1,2,4)         =         1.920768	     110.051871
	 B(1,2,5)         =         1.911681	     109.531281
	 B(2,3,6)         =         2.202992	     126.222125
	 B(3,2,4)         =         1.964180	     112.539221
	 B(3,2,5)         =         1.934198	     110.821400
	 B(3,6,7)         =         1.994284	     114.264062
	 B(3,6,8)         =         1.998765	     114.520802
	 B(3,6,9)         =         1.823505	     104.479154
	 B(4,2,5)         =         1.870968	     107.198571
	 B(6,7,10)        =         1.899718	     108.845809
	 B(6,7,11)        =         1.908505	     109.349287
	 B(6,7,12)        =         1.979925	     113.441323
	 B(7,6,8)         =         1.921900	     110.116761
	 B(7,6,9)         =         1.875490	     107.457674
	 B(8,6,9)         =         1.835661	     105.175632
	 B(10,7,11)       =         1.885823	     108.049719
	 B(10,7,12)       =         1.889637	     108.268212
	 B(11,7,12)       =         1.898024	     108.748775
	 D(1,2,3,6)       =         2.970417	     170.192351
	 D(2,3,6,7)       =         1.096994	      62.853153
	 D(2,3,6,8)       =        -1.142903	     -65.483502
	*D(2,3,6,9)       =         3.141593	     180.000000
	 D(3,6,7,10)      =         2.866623	     164.245405
	 D(3,6,7,11)      =         0.810100	      46.415319
	 D(3,6,7,12)      =        -1.311729	     -75.156530
	 D(4,2,3,6)       =         0.862036	      49.391032
	 D(5,2,3,6)       =        -1.232743	     -70.630952
	 D(8,6,7,10)      =        -1.138286	     -65.218963
	 D(8,6,7,11)      =         3.088377	     176.950951
	 D(8,6,7,12)      =         0.966548	      55.379102
	 D(9,6,7,10)      =         0.852157	      48.825026
	 D(9,6,7,11)      =        -1.204365	     -69.005060
	 D(9,6,7,12)      =         2.956991	     169.423091
	 R(2,11)          =         6.302399	       3.335086
	 R(2,12)          =         5.922946	       3.134288
	 R(4,8)           =         5.565855	       2.945324
	 R(5,7)           =         5.610531	       2.968965
	 R(5,8)           =         7.639056	       4.042415
	 R(5,11)          =         5.467804	       2.893437
	 R(5,12)          =         5.112684	       2.705516

	Current energy   :     -1146.3053880950

	Energy change for the previous step:
		Projected    :        -0.0000020952
		Actual       :        -0.0000005311

	Performing BFGS update.
	Previous computed or guess Hessian on step 1.
	Steps to be used in Hessian update: 18 17
	Taking RFO optimization step.
	Going to follow RFO solution 1.
	Rejecting RFO root 1 because normalization gives large value.
	Using RFO vector 2.

	Determining step-restricting scale parameter for RS-RFO.
	Maximum step size allowed    0.01562

	 Iter      |step|        alpha        rfo_root  
	------------------------------------------------
	    0     0.01857       1.00000           2
	    1     0.01625     353.23330           2
	    2     0.01566     472.35314           2
	    3     0.01563     480.52806           2
	------------------------------------------------
	Norm of target step-size    0.01563
	Projected energy change by RFO approximation:        -0.0000020503

	Back-transformation to cartesian coordinates...
	Successfully converged to displaced geometry.

	Back-transformation to cartesian coordinates to adjust frozen coordinates...
	Successfully converged to displaced geometry.

	--- Internal Coordinate Step in ANG or DEG, aJ/ANG or AJ/DEG ---
	 ---------------------------------------------------------------------------
	   Coordinate                Previous        Force       Change         New 
	   ----------                --------       ------       ------       ------
	    1 R(1,2)          =      1.072972     0.000014     0.000003     1.072975
	    2 R(2,3)          =      1.362415    -0.000418    -0.000017     1.362399
	    3 R(2,4)          =      1.322555     0.000185    -0.000007     1.322548
	    4 R(2,5)          =      1.328309     0.000239     0.000059     1.328368
	    5 R(3,6)          =      1.381436     0.000352     0.000033     1.381469
	    6 R(6,7)          =      1.529642     0.000085    -0.000054     1.529588
	    7 R(6,8)          =      1.778718    -0.000149     0.000015     1.778733
	    8 R(6,9)          =      1.074625    -0.000028    -0.000000     1.074625
	    9 R(7,10)         =      1.318234     0.000115    -0.000035     1.318200
	   10 R(7,11)         =      1.315840     0.000055     0.000021     1.315861
	   11 R(7,12)         =      1.311009    -0.000333    -0.000005     1.311005
	   12 B(1,2,3)        =    106.697899     0.000001     0.014295   106.712194
	   13 B(1,2,4)        =    110.051871    -0.000001     0.004437   110.056309
	   14 B(1,2,5)        =    109.531281    -0.000000    -0.003323   109.527958
	   15 B(2,3,6)        =    126.222125     0.000001     0.001128   126.223253
	   16 B(3,2,4)        =    112.539221    -0.000000    -0.000645   112.538576
	   17 B(3,2,5)        =    110.821400     0.000001    -0.011481   110.809919
	   18 B(3,6,7)        =    114.264062    -0.000001    -0.016413   114.247648
	   19 B(3,6,8)        =    114.520802    -0.000000    -0.001675   114.519127
	   20 B(3,6,9)        =    104.479154     0.000000     0.008801   104.487955
	   21 B(4,2,5)        =    107.198571    -0.000001    -0.003393   107.195178
	   22 B(6,7,10)       =    108.845809     0.000002     0.022751   108.868560
	   23 B(6,7,11)       =    109.349287     0.000001    -0.003522   109.345765
	   24 B(6,7,12)       =    113.441323     0.000000    -0.013853   113.427470
	   25 B(7,6,8)        =    110.116761     0.000001     0.013652   110.130413
	   26 B(7,6,9)        =    107.457674    -0.000000     0.003339   107.461013
	   27 B(8,6,9)        =    105.175632     0.000000    -0.007048   105.168584
	   28 B(10,7,11)      =    108.049719     0.000000     0.006321   108.056039
	   29 B(10,7,12)      =    108.268212    -0.000002    -0.000887   108.267324
	   30 B(11,7,12)      =    108.748775    -0.000002    -0.009865   108.738910
	   31 D(1,2,3,6)      =    170.192351    -0.000000    -0.248840   169.943512
	   32 D(2,3,6,7)      =     62.853153     0.000000    -0.001212    62.851941
	   33 D(2,3,6,8)      =    -65.483502     0.000000    -0.003953   -65.487455
	   34 *D(2,3,6,9)     =    180.000000    -0.000000     0.000000   180.000000
	   35 D(3,6,7,10)     =    164.245405     0.000000     0.156812   164.402218
	   36 D(3,6,7,11)     =     46.415319    -0.000000     0.138076    46.553396
	   37 D(3,6,7,12)     =    -75.156530     0.000000     0.162689   -74.993841
	   38 D(4,2,3,6)      =     49.391032    -0.000000    -0.263407    49.127625
	   39 D(5,2,3,6)      =    -70.630952     0.000000    -0.250609   -70.881561
	   40 D(8,6,7,10)     =    -65.218963     0.000000     0.152604   -65.066359
	   41 D(8,6,7,11)     =    176.950951    -0.000000     0.133868   177.084819
	   42 D(8,6,7,12)     =     55.379102     0.000000     0.158480    55.537582
	   43 D(9,6,7,10)     =     48.825026     0.000000     0.153030    48.978056
	   44 D(9,6,7,11)     =    -69.005060    -0.000000     0.134294   -68.870766
	   45 D(9,6,7,12)     =    169.423091     0.000000     0.158906   169.581997
	   46 R(2,11)         =      3.335086     0.000036     0.001553     3.336640
	   47 R(2,12)         =      3.134288     0.000021    -0.002717     3.131571
	   48 R(4,8)          =      2.945324    -0.000136    -0.001164     2.944160
	   49 R(5,7)          =      2.968965     0.000043     0.002100     2.971065
	   50 R(5,8)          =      4.042415     0.000096     0.003329     4.045744
	   51 R(5,11)         =      2.893437     0.000036     0.002722     2.896160
	   52 R(5,12)         =      2.705516    -0.000144     0.000508     2.706025
	 ---------------------------------------------------------------------------

  ==> Convergence Check <==

  Measures of convergence in internal coordinates in au.
  Criteria marked as inactive (o), active & met (*), and active & unmet ( ).
  ---------------------------------------------------------------------------------------------
   Step     Total Energy     Delta E     MAX Force     RMS Force      MAX Disp      RMS Disp   
  ---------------------------------------------------------------------------------------------
    Convergence Criteria    1.00e-06 *    3.00e-04 *             o    1.20e-03 *             o
  ---------------------------------------------------------------------------------------------
     19   -1146.30538809   -5.31e-07 *    5.07e-05 *    1.58e-05 o    6.29e-03      2.17e-03 o  ~
  ---------------------------------------------------------------------------------------------


  **** Optimization is complete! (in 19 steps) ****

  ==> Optimization Summary <==

  Measures of convergence in internal coordinates in au.
  --------------------------------------------------------------------------------------------------------------- ~
   Step         Total Energy             Delta E       MAX Force       RMS Force        MAX Disp        RMS Disp  ~
  --------------------------------------------------------------------------------------------------------------- ~
      1   -1146.180873086748  -1146.180873086748      0.16967966      0.02925665      0.39375647      0.06932008  ~
      2   -1146.249305166867     -0.068432080119      0.06224399      0.01166585      0.25390070      0.06658497  ~
      3   -1146.276226117795     -0.026920950928      0.03943979      0.00703950      0.28858858      0.06613772  ~
      4   -1146.291957597514     -0.015731479718      0.01978945      0.00384659      0.27454700      0.06377381  ~
      5   -1146.299823797370     -0.007866199856      0.01117060      0.00273589      0.26059128      0.05823223  ~
      6   -1146.303554184420     -0.003730387050      0.00627631      0.00174409      0.20824047      0.04322286  ~
      7   -1146.304863833071     -0.001309648651      0.00170955      0.00076881      0.09970171      0.02237570  ~
      8   -1146.305162372367     -0.000298539296      0.00140300      0.00049918      0.06607498      0.01309773  ~
      9   -1146.305260770623     -0.000098398256      0.00070536      0.00028175      0.03608880      0.00750848  ~
     10   -1146.305295720077     -0.000034949454      0.00051835      0.00011852      0.02562710      0.00562618  ~
     11   -1146.305313727155     -0.000018007078      0.00023409      0.00007757      0.02591736      0.00669526  ~
     12   -1146.305326462863     -0.000012735708      0.00024314      0.00007222      0.02674360      0.00735475  ~
     13   -1146.305337005402     -0.000010542539      0.00027019      0.00008077      0.05680159      0.01345871  ~
     14   -1146.305353784880     -0.000016779478      0.00033575      0.00009972      0.06672323      0.01542138  ~
     15   -1146.305368721632     -0.000014936752      0.00032284      0.00009726      0.03227543      0.00866698  ~
     16   -1146.305377178703     -0.000008457072      0.00020142      0.00005373      0.02730779      0.00866698  ~
     17   -1146.305383768812     -0.000006590109      0.00012775      0.00003429      0.02544678      0.00866711  ~
     18   -1146.305387563894     -0.000003795082      0.00007727      0.00002521      0.00671536      0.00216701  ~
     19   -1146.305388094989     -0.000000531095      0.00005071      0.00001583      0.00629097      0.00216682  ~
  --------------------------------------------------------------------------------------------------------------- ~

	Writing optimization data to binary file.
	Final energy is  -1146.3053880949892
	Final (previous) structure:
	Cartesian Geometry (in Angstrom)
	    H    -1.6334407169  -1.3849316184   2.0716940665
	    C    -1.3039426110  -0.9297896861   1.1576121672
	    O     0.0081468775  -0.6069257512   1.3318395287
	    F    -1.4917615334  -1.7591395038   0.1446683572
	    F    -2.0293401423   0.1563323388   0.9156589206
	    C     0.8798993228  -0.1755983632   0.3508344920
	    C     0.4908314764   1.1553715492  -0.2948820366
	   CL     1.2345156463  -1.3842880752  -0.9050138261
	    H     1.8106230067  -0.0240163870   0.8661932143
	    F     1.5319186591   1.6322644672  -0.9479155875
	    F     0.1688386643   2.0182366533   0.6449158629
	    F    -0.5103742278   1.0544016110  -1.1352022681
	Saving final (previous) structure.
			--------------------------
			 OPTKING Finished Execution 
			--------------------------

    Final optimized geometry and variables:
    Molecular point group: c1
    Full point group: C1

    Geometry (in Angstrom), charge = 0, multiplicity = 1:

    H           -1.633440592156    -1.384931512597     2.071693908252
    C           -1.303942511428    -0.929789615128     1.157612078760
    O            0.008146876830    -0.606925704806     1.331839426956
    F           -1.491761419463    -1.759139369443     0.144668346122
    F           -2.029339987381     0.156332326878     0.915658850685
    C            0.879899255629    -0.175598349832     0.350834465175
    C            0.490831438947     1.155371460926    -0.294882014100
    CL           1.234515552074    -1.384287969509    -0.905013756954
    H            1.810622868446    -0.024016385151     0.866193148161
    F            1.531918542128     1.632264342560    -0.947915515110
    F            0.168838651412     2.018236499177     0.644915813637
    F           -0.510374188785     1.054401530514    -1.135202181392

	Cleaning optimization helper files.


Properties will be evaluated at   0.000000,   0.000000,   0.000000 Bohr

Properties computed using the  density matrix

  Nuclear Dipole Moment: (a.u.)
     X:     1.2347      Y:    -2.9829      Z:     3.9455

  Electronic Dipole Moment: (a.u.)
     X:    -1.0034      Y:     2.7078      Z:    -3.1128

  Dipole Moment: (a.u.)
     X:     0.2313      Y:    -0.2751      Z:     0.8327     Total:     0.9070

  Dipole Moment: (Debye)
     X:     0.5880      Y:    -0.6994      Z:     2.1166     Total:     2.3054

  Quadrupole Moment: (Debye Ang)
    XX:   -58.8454     YY:   -62.0726     ZZ:   -58.0657
    XY:     1.9465     XZ:    -0.9143     YZ:    -2.5237

  Traceless Quadrupole Moment: (Debye Ang)
    XX:     0.8159     YY:    -2.4114     ZZ:     1.5955
    XY:     1.9465     XZ:    -0.9143     YZ:    -2.5237

  Mulliken Charges: (a.u.)
   Center  Symbol    Alpha    Beta     Spin     Total
       1     H     0.40694  0.40694  0.00000  0.18612
       2     C     2.56340  2.56340  0.00000  0.87319
       3     O     4.31171  4.31171  0.00000 -0.62343
       4     F     4.67606  4.67606  0.00000 -0.35213
       5     F     4.68142  4.68142  0.00000 -0.36283
       6     C     3.02931  3.02931  0.00000 -0.05863
       7     C     2.44645  2.44645  0.00000  1.10710
       8    CL     8.50489  8.50489  0.00000 -0.00978
       9     H     0.36391  0.36391  0.00000  0.27218
      10     F     4.67506  4.67506  0.00000 -0.35012
      11     F     4.67406  4.67406  0.00000 -0.34813
      12     F     4.66678  4.66678  0.00000 -0.33355

   Total alpha = 45.00000, Total beta = 45.00000, Total charge = -0.00000


*** PSI4 exiting successfully. Buy a developer a beer!
