    -----------------------------------------------------------------------
          Psi4: An Open-Source Ab Initio Electronic Structure Package
                              Psi4 (no tag) Driver

                          Git: Rev {detached?}  

    J. M. Turney, A. C. Simmonett, R. M. Parrish, E. G. Hohenstein,
    F. A. Evangelista, J. T. Fermann, B. J. Mintz, L. A. Burns, J. J. Wilke,
    M. L. Abrams, N. J. Russ, M. L. Leininger, C. L. Janssen, E. T. Seidl,
    W. D. Allen, H. F. Schaefer, R. A. King, E. F. Valeev, C. D. Sherrill,
    and T. D. Crawford, WIREs Comput. Mol. Sci. 2, 556-565 (2012)
    (doi: 10.1002/wcms.93)

                         Additional Contributions by
    A. E. DePrince, M. Saitow, U. Bozkaya, A. Yu. Sokolov
    -----------------------------------------------------------------------


    Psi4 started on: Thu Sep  1 22:21:31 2016

    Process ID:  27317
    PSI4DATADIR: /export131/home/mjharvey/miniconda3/share
    Memory level set to 256.000 MB

  ==> Input File <==

--------------------------------------------------------------------------
set {
	reference rhf
	basis 6-31G*
}


set_num_threads( 1 )
memory 2 gb

molecule MOL {
0 1

O	 0.625848	 1.349995	 -0.000749
C	 0.486307	 0.169203	 0.000779
C	 1.608116	 -0.841643	 0.000302
O	 -0.698257	 -0.426125	 0.001050
C	 2.990107	 -0.200498	 -0.000684
H	 1.468623	 -1.481519	 -0.865924
H	 1.469683	 -1.481289	 0.866878
H	 3.129736	 0.423364	 -0.875135
H	 3.757882	 -0.966877	 -0.001197
H	 3.130964	 0.423383	 0.873533
C	 -0.851413	 -1.585981	 0.812639
C	 -2.275069	 -2.072959	 0.644212
H	 -0.636223	 -1.327864	 1.840576
H	 -0.133902	 -2.332341	 0.500044
H	 -2.981403	 -1.312178	 0.956404
H	 -2.436068	 -2.959840	 1.248505
H	 -2.476424	 -2.322243	 -0.391437

	symmetry c1
}
set optking {
	frozen_dihedral = ("
		2 4 11 13,
		4 2 3 6
	")
}

ee = energy('scf')
oeprop('DIPOLE', 'QUADRUPOLE', 'MULLIKEN_CHARGES')
f=open( 'psi4out.xyz', 'w' )
f.write( "17  " )
f.write( str(ee) + "\n" )
f.write( MOL.save_string_xyz() )
f.close()
--------------------------------------------------------------------------

  Memory set to   2.000 GiB by Python script.

*** tstart() called on cx1-3-2-3.cx1.hpc.ic.ac.uk
*** at Thu Sep  1 22:21:31 2016


         ---------------------------------------------------------
                                   SCF
            by Justin Turney, Rob Parrish, and Andy Simmonett
                              RHF Reference
                        1 Threads,   2000 MiB Core
         ---------------------------------------------------------

  ==> Geometry <==

    Molecular point group: c1
    Full point group: C1

    Geometry (in Angstrom), charge = 0, multiplicity = 1:

       Center              X                  Y                   Z               Mass       
    ------------   -----------------  -----------------  -----------------  -----------------
           O          0.364602171019     1.869717562365    -0.213122241749    15.994914619560
           C          0.225061171019     0.688925562365    -0.211594241749    12.000000000000
           C          1.346870171019    -0.321920437635    -0.212071241749    12.000000000000
           O         -0.959502828981     0.093597562365    -0.211323241749    15.994914619560
           C          2.728861171019     0.319224562365    -0.213057241749    12.000000000000
           H          1.207377171019    -0.961796437635    -1.078297241749     1.007825032070
           H          1.208437171019    -0.961566437635     0.654504758251     1.007825032070
           H          2.868490171019     0.943086562365    -1.087508241749     1.007825032070
           H          3.496636171019    -0.447154437635    -0.213570241749     1.007825032070
           H          2.869718171019     0.943105562365     0.661159758251     1.007825032070
           C         -1.112658828981    -1.066258437635     0.600265758251    12.000000000000
           C         -2.536314828981    -1.553236437635     0.431838758251    12.000000000000
           H         -0.897468828981    -0.808141437635     1.628202758251     1.007825032070
           H         -0.395147828981    -1.812618437635     0.287670758251     1.007825032070
           H         -3.242648828981    -0.792455437635     0.744030758251     1.007825032070
           H         -2.697313828981    -2.440117437635     1.036131758251     1.007825032070
           H         -2.737669828981    -1.802520437635    -0.603810241749     1.007825032070

  Running in c1 symmetry.

  Rotational constants: A =      0.18733  B =      0.04945  C =      0.04097 [cm^-1]
  Rotational constants: A =   5616.09794  B =   1482.42619  C =   1228.36344 [MHz]
  Nuclear repulsion =  317.924349071790459

  Charge       = 0
  Multiplicity = 1
  Electrons    = 56
  Nalpha       = 28
  Nbeta        = 28

  ==> Algorithm <==

  SCF Algorithm Type is DF.
  DIIS enabled.
  MOM disabled.
  Fractional occupation disabled.
  Guess Type is CORE.
  Energy threshold   = 1.00e-06
  Density threshold  = 1.00e-06
  Integral threshold = 0.00e+00

  ==> Primary Basis <==

  Basis Set: 6-31G*
    Number of shells: 62
    Number of basis function: 125
    Number of Cartesian functions: 125
    Spherical Harmonics?: false
    Max angular momentum: 2

  ==> Pre-Iterations <==

   -------------------------------------------------------
    Irrep   Nso     Nmo     Nalpha   Nbeta   Ndocc  Nsocc
   -------------------------------------------------------
     A        125     125       0       0       0       0
   -------------------------------------------------------
    Total     125     125      28      28      28       0
   -------------------------------------------------------

 OEINTS: Overlap, kinetic, potential, dipole, and quadrupole integrals
         stored in file 35.

  ==> Integral Setup <==

  ==> DFJK: Density-Fitted J/K Matrices <==

    J tasked:                  Yes
    K tasked:                  Yes
    wK tasked:                  No
    OpenMP threads:              1
    Integrals threads:           1
    Memory (MB):              1430
    Algorithm:                Core
    Integral Cache:           NONE
    Schwarz Cutoff:          1E-12
    Fitting Condition:       1E-12

   => Auxiliary Basis Set <=

  Basis Set: 
    Number of shells: 258
    Number of basis function: 817
    Number of Cartesian functions: 817
    Spherical Harmonics?: false
    Max angular momentum: 3

  Minimum eigenvalue in the overlap matrix is 3.2777288046E-03.
  Using Symmetric Orthogonalization.
  SCF Guess: Core (One-Electron) Hamiltonian.

  ==> Iterations <==

                           Total Energy        Delta E     RMS |[F,P]|

   @DF-RHF iter   1:  -257.30396758085243   -2.57304e+02   7.49769e-02 
   @DF-RHF iter   2:  -213.63510131995821    4.36689e+01   6.27564e-02 DIIS
   @DF-RHF iter   3:  -304.59150907022735   -9.09564e+01   4.88828e-02 DIIS
   @DF-RHF iter   4:  -343.11412471825560   -3.85226e+01   1.29272e-02 DIIS
   @DF-RHF iter   5:  -344.70796172599029   -1.59384e+00   4.74890e-03 DIIS
   @DF-RHF iter   6:  -344.87264107504876   -1.64679e-01   1.19456e-03 DIIS
   @DF-RHF iter   7:  -344.88450476354791   -1.18637e-02   5.11330e-04 DIIS
   @DF-RHF iter   8:  -344.88625570523124   -1.75094e-03   1.19109e-04 DIIS
   @DF-RHF iter   9:  -344.88648931717529   -2.33612e-04   4.76108e-05 DIIS
   @DF-RHF iter  10:  -344.88652674563451   -3.74285e-05   2.06249e-05 DIIS
   @DF-RHF iter  11:  -344.88653347879819   -6.73316e-06   8.47601e-06 DIIS
   @DF-RHF iter  12:  -344.88653445585879   -9.77061e-07   2.46567e-06 DIIS
   @DF-RHF iter  13:  -344.88653453631940   -8.04606e-08   6.79036e-07 DIIS

  ==> Post-Iterations <==

    Orbital Energies (a.u.)
    -----------------------

    Doubly Occupied:                                                      

       1A    -20.596296     2A    -20.547947     3A    -11.373240  
       4A    -11.300947     5A    -11.241711     6A    -11.229448  
       7A    -11.218534     8A     -1.464411     9A     -1.368382  
      10A     -1.064037    11A     -1.048394    12A     -0.903624  
      13A     -0.885025    14A     -0.770763    15A     -0.705432  
      16A     -0.693307    17A     -0.659729    18A     -0.638776  
      19A     -0.599365    20A     -0.570362    21A     -0.559472  
      22A     -0.542028    23A     -0.528677    24A     -0.516656  
      25A     -0.513075    26A     -0.488669    27A     -0.452087  
      28A     -0.430554  

    Virtual:                                                              

      29A      0.185956    30A      0.220579    31A      0.246156  
      32A      0.276846    33A      0.279342    34A      0.302073  
      35A      0.305693    36A      0.320443    37A      0.326505  
      38A      0.332512    39A      0.340211    40A      0.367294  
      41A      0.402962    42A      0.423043    43A      0.442932  
      44A      0.520424    45A      0.557200    46A      0.709953  
      47A      0.719489    48A      0.732971    49A      0.739617  
      50A      0.768905    51A      0.784725    52A      0.808609  
      53A      0.845122    54A      0.871881    55A      0.899653  
      56A      0.938544    57A      0.980694    58A      0.981790  
      59A      0.988568    60A      1.027330    61A      1.092072  
      62A      1.112620    63A      1.129025    64A      1.147007  
      65A      1.157059    66A      1.170374    67A      1.174199  
      68A      1.185213    69A      1.190639    70A      1.215516  
      71A      1.244150    72A      1.262279    73A      1.291228  
      74A      1.311785    75A      1.327069    76A      1.396096  
      77A      1.423999    78A      1.492910    79A      1.574225  
      80A      1.640737    81A      1.668659    82A      1.702164  
      83A      1.750018    84A      1.812135    85A      1.896357  
      86A      1.917960    87A      1.971930    88A      2.022326  
      89A      2.077630    90A      2.109077    91A      2.116528  
      92A      2.148356    93A      2.192827    94A      2.203994  
      95A      2.283748    96A      2.299586    97A      2.307949  
      98A      2.321377    99A      2.389001   100A      2.436896  
     101A      2.453354   102A      2.521094   103A      2.575478  
     104A      2.640400   105A      2.664708   106A      2.676590  
     107A      2.691471   108A      2.696310   109A      2.767557  
     110A      2.811493   111A      2.913039   112A      2.962845  
     113A      3.063232   114A      3.140002   115A      3.229524  
     116A      3.310554   117A      3.429176   118A      3.572723  
     119A      4.380087   120A      4.570144   121A      4.605636  
     122A      4.686142   123A      4.805591   124A      4.844249  
     125A      4.962528  

    Final Occupation by Irrep:
              A 
    DOCC [    28 ]

  Energy converged.

  @DF-RHF Final Energy:  -344.88653453631940

   => Energetics <=

    Nuclear Repulsion Energy =            317.9243490717904592
    One-Electron Energy =               -1099.7999315188728815
    Two-Electron Energy =                 436.9890479107633041
    DFT Exchange-Correlation Energy =       0.0000000000000000
    Empirical Dispersion Energy =           0.0000000000000000
    PCM Polarization Energy =               0.0000000000000000
    EFP Energy =                            0.0000000000000000
    Total Energy =                       -344.8865345363191750

    Alert: EFP and PCM quantities not currently incorporated into SCF psivars.

Properties will be evaluated at   0.000000,   0.000000,   0.000000 Bohr
  ==> Properties <==


Properties computed using the SCF density matrix

  Nuclear Dipole Moment: (a.u.)
     X:     1.5725      Y:    -7.6217      Z:     1.8996

  Electronic Dipole Moment: (a.u.)
     X:    -1.4473      Y:     5.9171      Z:    -1.4891

  Dipole Moment: (a.u.)
     X:     0.1252      Y:    -1.7047      Z:     0.4105     Total:     1.7579

  Dipole Moment: (Debye)
     X:     0.3182      Y:    -4.3329      Z:     1.0434     Total:     4.4681


  Saving occupied orbitals to File 180.

*** tstop() called on cx1-3-2-3.cx1.hpc.ic.ac.uk at Thu Sep  1 22:21:41 2016
Module time:
	user time   =       9.09 seconds =       0.15 minutes
	system time =       0.06 seconds =       0.00 minutes
	total time  =         10 seconds =       0.17 minutes
Total time:
	user time   =       9.09 seconds =       0.15 minutes
	system time =       0.06 seconds =       0.00 minutes
	total time  =         10 seconds =       0.17 minutes


Properties will be evaluated at   0.000000,   0.000000,   0.000000 Bohr

Properties computed using the  density matrix

  Nuclear Dipole Moment: (a.u.)
     X:     1.5725      Y:    -7.6217      Z:     1.8996

  Electronic Dipole Moment: (a.u.)
     X:    -1.4473      Y:     5.9171      Z:    -1.4891

  Dipole Moment: (a.u.)
     X:     0.1252      Y:    -1.7047      Z:     0.4105     Total:     1.7579

  Dipole Moment: (Debye)
     X:     0.3182      Y:    -4.3329      Z:     1.0434     Total:     4.4681

  Quadrupole Moment: (Debye Ang)
    XX:   -42.0251     YY:   -48.6611     ZZ:   -41.6726
    XY:     0.8807     XZ:    -1.5320     YZ:     0.0525

  Traceless Quadrupole Moment: (Debye Ang)
    XX:     2.0945     YY:    -4.5415     ZZ:     2.4470
    XY:     0.8807     XZ:    -1.5320     YZ:     0.0525

  Mulliken Charges: (a.u.)
   Center  Symbol    Alpha    Beta     Spin     Total
       1     O     4.26649  4.26649  0.00000 -0.53298
       2     C     2.59817  2.59817  0.00000  0.80367
       3     C     3.23532  3.23532  0.00000 -0.47064
       4     O     4.30738  4.30738  0.00000 -0.61476
       5     C     3.23549  3.23549  0.00000 -0.47098
       6     H     0.39904  0.39904  0.00000  0.20192
       7     H     0.40233  0.40233  0.00000  0.19534
       8     H     0.40804  0.40804  0.00000  0.18393
       9     H     0.41953  0.41953  0.00000  0.16094
      10     H     0.40965  0.40965  0.00000  0.18071
      11     C     3.01436  3.01436  0.00000 -0.02873
      12     C     3.24533  3.24533  0.00000 -0.49066
      13     H     0.41315  0.41315  0.00000  0.17370
      14     H     0.41440  0.41440  0.00000  0.17120
      15     H     0.40540  0.40540  0.00000  0.18920
      16     H     0.41734  0.41734  0.00000  0.16531
      17     H     0.40859  0.40859  0.00000  0.18283

   Total alpha = 28.00000, Total beta = 28.00000, Total charge = -0.00000


*** PSI4 exiting successfully. Buy a developer a beer!
