    -----------------------------------------------------------------------
          Psi4: An Open-Source Ab Initio Electronic Structure Package
                              Psi4 (no tag) Driver

                          Git: Rev {detached?}  

    J. M. Turney, A. C. Simmonett, R. M. Parrish, E. G. Hohenstein,
    F. A. Evangelista, J. T. Fermann, B. J. Mintz, L. A. Burns, J. J. Wilke,
    M. L. Abrams, N. J. Russ, M. L. Leininger, C. L. Janssen, E. T. Seidl,
    W. D. Allen, H. F. Schaefer, R. A. King, E. F. Valeev, C. D. Sherrill,
    and T. D. Crawford, WIREs Comput. Mol. Sci. 2, 556-565 (2012)
    (doi: 10.1002/wcms.93)

                         Additional Contributions by
    A. E. DePrince, M. Saitow, U. Bozkaya, A. Yu. Sokolov
    -----------------------------------------------------------------------


    Psi4 started on: Fri Sep  2 13:57:53 2016

    Process ID:  17788
    PSI4DATADIR: /export131/home/mjharvey/miniconda3/share
    Memory level set to 256.000 MB

  ==> Input File <==

--------------------------------------------------------------------------
set {
	reference rhf
	basis 6-31G*
}


set_num_threads( 4 )
memory 2 gb

molecule MOL {
0 1

H	 -3.420663	 1.227371	 -1.044276
O	 -3.452007	 0.283848	 -0.965577
C	 -3.181085	 -0.079926	 0.364119
C	 -1.765924	 0.277073	 0.805136
H	 -3.327791	 -1.152017	 0.410903
H	 -3.905698	 0.375695	 1.036898
C	 -0.677594	 -0.417312	 -0.014550
H	 -1.637766	 1.358238	 0.744969
H	 -1.659588	 0.017670	 1.857098
C	 0.738335	 -0.034840	 0.421385
H	 -0.814977	 -0.178223	 -1.064632
H	 -0.802730	 -1.495410	 0.071702
C	 1.008596	 -0.343304	 1.896476
H	 1.455242	 -0.559860	 -0.205366
H	 0.897560	 1.027896	 0.242933
C	 2.384561	 0.103440	 2.403718
H	 0.893579	 -1.412569	 2.067175
H	 0.244371	 0.143022	 2.499191
C	 3.565767	 -0.636396	 1.773003
H	 2.418084	 -0.041684	 3.480800
H	 2.498735	 1.173006	 2.238809
H	 3.472125	 -1.710274	 1.911406
H	 4.501869	 -0.326168	 2.227215
H	 3.642984	 -0.445587	 0.707736

	symmetry c1
}
set optking {
	frozen_dihedral = ("
		13 10 7 11
	")
}

ee = optimize('scf')
oeprop('DIPOLE', 'QUADRUPOLE', 'MULLIKEN_CHARGES')
f=open( 'psi4out.xyz', 'w' )
f.write( "24  " )
f.write( str(ee) + "\n" )
f.write( MOL.save_string_xyz() )
f.close()
--------------------------------------------------------------------------

  Memory set to   2.000 GiB by Python script.
gradient() will perform analytic gradient computation.

*** tstart() called on cx1-1-1-2.cx1.hpc.ic.ac.uk
*** at Fri Sep  2 13:57:54 2016


         ---------------------------------------------------------
                                   SCF
            by Justin Turney, Rob Parrish, and Andy Simmonett
                              RHF Reference
                        4 Threads,   2000 MiB Core
         ---------------------------------------------------------

  ==> Geometry <==

    Molecular point group: c1
    Full point group: C1

    Geometry (in Angstrom), charge = 0, multiplicity = 1:

       Center              X                  Y                   Z               Mass       
    ------------   -----------------  -----------------  -----------------  -----------------
           H         -3.198027274445     1.322527561566    -1.850890231395     1.007825032070
           O         -3.229371274445     0.379004561566    -1.772191231395    15.994914619560
           C         -2.958449274445     0.015230561566    -0.442495231395    12.000000000000
           C         -1.543288274445     0.372229561566    -0.001478231395    12.000000000000
           H         -3.105155274445    -1.056860438434    -0.395711231395     1.007825032070
           H         -3.683062274445     0.470851561566     0.230283768605     1.007825032070
           C         -0.454958274445    -0.322155438434    -0.821164231395    12.000000000000
           H         -1.415130274445     1.453394561566    -0.061645231395     1.007825032070
           H         -1.436952274445     0.112826561566     1.050483768605     1.007825032070
           C          0.960970725555     0.060316561566    -0.385229231395    12.000000000000
           H         -0.592341274445    -0.083066438434    -1.871246231395     1.007825032070
           H         -0.580094274445    -1.400253438434    -0.734912231395     1.007825032070
           C          1.231231725555    -0.248147438434     1.089861768605    12.000000000000
           H          1.677877725555    -0.464703438434    -1.011980231395     1.007825032070
           H          1.120195725555     1.123052561566    -0.563681231395     1.007825032070
           C          2.607196725555     0.198596561566     1.597103768605    12.000000000000
           H          1.116214725555    -1.317412438434     1.260560768605     1.007825032070
           H          0.467006725555     0.238178561566     1.692576768605     1.007825032070
           C          3.788402725555    -0.541239438434     0.966388768605    12.000000000000
           H          2.640719725555     0.053472561566     2.674185768605     1.007825032070
           H          2.721370725555     1.268162561566     1.432194768605     1.007825032070
           H          3.694760725555    -1.615117438434     1.104791768605     1.007825032070
           H          4.724504725555    -0.231011438434     1.420600768605     1.007825032070
           H          3.865619725555    -0.350430438434    -0.098878231395     1.007825032070

  Running in c1 symmetry.

  Rotational constants: A =      0.23140  B =      0.02073  C =      0.01991 [cm^-1]
  Rotational constants: A =   6937.19599  B =    621.33631  C =    596.75808 [MHz]
  Nuclear repulsion =  389.175610042146957

  Charge       = 0
  Multiplicity = 1
  Electrons    = 66
  Nalpha       = 33
  Nbeta        = 33

  ==> Algorithm <==

  SCF Algorithm Type is DF.
  DIIS enabled.
  MOM disabled.
  Fractional occupation disabled.
  Guess Type is CORE.
  Energy threshold   = 1.00e-08
  Density threshold  = 1.00e-08
  Integral threshold = 0.00e+00

  ==> Primary Basis <==

  Basis Set: 6-31G*
    Number of shells: 80
    Number of basis function: 152
    Number of Cartesian functions: 152
    Spherical Harmonics?: false
    Max angular momentum: 2

  ==> Pre-Iterations <==

   -------------------------------------------------------
    Irrep   Nso     Nmo     Nalpha   Nbeta   Ndocc  Nsocc
   -------------------------------------------------------
     A        152     152       0       0       0       0
   -------------------------------------------------------
    Total     152     152      33      33      33       0
   -------------------------------------------------------

 OEINTS: Overlap, kinetic, potential, dipole, and quadrupole integrals
         stored in file 35.

  ==> Integral Setup <==

  ==> DFJK: Density-Fitted J/K Matrices <==

    J tasked:                  Yes
    K tasked:                  Yes
    wK tasked:                  No
    OpenMP threads:              4
    Integrals threads:           4
    Memory (MB):              1430
    Algorithm:                Core
    Integral Cache:           NONE
    Schwarz Cutoff:          1E-12
    Fitting Condition:       1E-12

   => Auxiliary Basis Set <=

  Basis Set: 
    Number of shells: 336
    Number of basis function: 1048
    Number of Cartesian functions: 1048
    Spherical Harmonics?: false
    Max angular momentum: 3

  Minimum eigenvalue in the overlap matrix is 3.2601185323E-03.
  Using Symmetric Orthogonalization.
  SCF Guess: Core (One-Electron) Hamiltonian.

  ==> Iterations <==

                           Total Energy        Delta E     RMS |[F,P]|

   @DF-RHF iter   1:  -265.92227849812144   -2.65922e+02   6.17494e-02 
   @DF-RHF iter   2:   -55.48761220131445    2.10435e+02   7.81666e-02 DIIS
   @DF-RHF iter   3:  -231.70323602081766   -1.76216e+02   5.70239e-02 DIIS
   @DF-RHF iter   4:  -247.13508809495573   -1.54319e+01   5.69881e-02 DIIS
   @DF-RHF iter   5:  -334.13621385837354   -8.70011e+01   2.37903e-02 DIIS
   @DF-RHF iter   6:  -337.81803426893265   -3.68182e+00   2.21486e-02 DIIS
   @DF-RHF iter   7:  -348.80290741952246   -1.09849e+01   6.58109e-03 DIIS
   @DF-RHF iter   8:  -349.20520182926629   -4.02294e-01   1.98168e-03 DIIS
   @DF-RHF iter   9:  -349.24220093425896   -3.69991e-02   3.46289e-04 DIIS
   @DF-RHF iter  10:  -349.24407673576678   -1.87580e-03   1.21964e-04 DIIS
   @DF-RHF iter  11:  -349.24428683530772   -2.10100e-04   4.44673e-05 DIIS
   @DF-RHF iter  12:  -349.24431863311798   -3.17978e-05   1.70834e-05 DIIS
   @DF-RHF iter  13:  -349.24432288915995   -4.25604e-06   6.53346e-06 DIIS
   @DF-RHF iter  14:  -349.24432352907451   -6.39915e-07   2.03852e-06 DIIS
   @DF-RHF iter  15:  -349.24432360128498   -7.22105e-08   4.81982e-07 DIIS
   @DF-RHF iter  16:  -349.24432360635382   -5.06884e-09   1.08018e-07 DIIS
   @DF-RHF iter  17:  -349.24432360661484   -2.61025e-10   2.82682e-08 DIIS
   @DF-RHF iter  18:  -349.24432360663212   -1.72804e-11   7.02932e-09 DIIS

  ==> Post-Iterations <==

    Orbital Energies (a.u.)
    -----------------------

    Doubly Occupied:                                                      

       1A    -20.553177     2A    -11.267428     3A    -11.216381  
       4A    -11.214902     5A    -11.212650     6A    -11.212001  
       7A    -11.211225     8A    -11.207539     9A     -1.359812  
      10A     -1.091248    11A     -1.046540    12A     -0.984092  
      13A     -0.916213    14A     -0.853942    15A     -0.807191  
      16A     -0.768966    17A     -0.679447    18A     -0.642810  
      19A     -0.633546    20A     -0.618844    21A     -0.597937  
      22A     -0.585982    23A     -0.558741    24A     -0.546953  
      25A     -0.517332    26A     -0.507548    27A     -0.499548  
      28A     -0.479735    29A     -0.470048    30A     -0.456523  
      31A     -0.453387    32A     -0.437196    33A     -0.424719  

    Virtual:                                                              

      34A      0.222385    35A      0.232444    36A      0.260295  
      37A      0.262559    38A      0.272822    39A      0.289777  
      40A      0.303070    41A      0.310270    42A      0.316350  
      43A      0.323825    44A      0.333109    45A      0.339071  
      46A      0.353064    47A      0.356793    48A      0.363472  
      49A      0.388446    50A      0.401921    51A      0.412809  
      52A      0.426318    53A      0.451235    54A      0.461129  
      55A      0.475521    56A      0.482179    57A      0.699408  
      58A      0.718485    59A      0.725034    60A      0.738298  
      61A      0.747442    62A      0.752058    63A      0.792714  
      64A      0.825007    65A      0.835180    66A      0.902383  
      67A      0.907809    68A      0.916712    69A      0.947651  
      70A      0.972096    71A      0.976387    72A      1.001282  
      73A      1.028475    74A      1.077535    75A      1.093155  
      76A      1.105897    77A      1.145470    78A      1.153100  
      79A      1.159063    80A      1.160508    81A      1.166997  
      82A      1.174210    83A      1.187380    84A      1.190743  
      85A      1.204679    86A      1.219784    87A      1.223767  
      88A      1.234798    89A      1.240710    90A      1.254384  
      91A      1.265049    92A      1.288961    93A      1.309070  
      94A      1.317914    95A      1.360708    96A      1.408257  
      97A      1.426803    98A      1.466650    99A      1.573440  
     100A      1.652542   101A      1.668315   102A      1.722233  
     103A      1.787180   104A      1.820791   105A      1.855996  
     106A      1.871690   107A      1.904597   108A      1.955519  
     109A      1.991429   110A      2.018773   111A      2.076055  
     112A      2.101525   113A      2.144995   114A      2.153864  
     115A      2.214356   116A      2.244553   117A      2.284183  
     118A      2.294093   119A      2.312044   120A      2.317567  
     121A      2.337344   122A      2.344462   123A      2.446662  
     124A      2.468986   125A      2.487198   126A      2.541517  
     127A      2.588758   128A      2.635245   129A      2.642557  
     130A      2.674809   131A      2.704092   132A      2.724188  
     133A      2.747943   134A      2.757788   135A      2.788313  
     136A      2.823120   137A      2.877248   138A      2.944842  
     139A      2.976664   140A      3.018590   141A      3.069275  
     142A      3.104772   143A      3.192422   144A      3.220848  
     145A      4.184339   146A      4.552174   147A      4.624698  
     148A      4.720446   149A      4.804551   150A      4.861568  
     151A      4.918833   152A      5.010553  

    Final Occupation by Irrep:
              A 
    DOCC [    33 ]

  Energy converged.

  @DF-RHF Final Energy:  -349.24432360663212

   => Energetics <=

    Nuclear Repulsion Energy =            389.1756100421469569
    One-Electron Energy =               -1244.7726573997354080
    Two-Electron Energy =                 506.3527237509561019
    DFT Exchange-Correlation Energy =       0.0000000000000000
    Empirical Dispersion Energy =           0.0000000000000000
    PCM Polarization Energy =               0.0000000000000000
    EFP Energy =                            0.0000000000000000
    Total Energy =                       -349.2443236066324062

    Alert: EFP and PCM quantities not currently incorporated into SCF psivars.

Properties will be evaluated at   0.000000,   0.000000,   0.000000 Bohr
  ==> Properties <==


Properties computed using the SCF density matrix

  Nuclear Dipole Moment: (a.u.)
     X:     7.5007      Y:    -0.4448      Z:     4.0008

  Electronic Dipole Moment: (a.u.)
     X:    -7.3278      Y:     0.8982      Z:    -3.4964

  Dipole Moment: (a.u.)
     X:     0.1728      Y:     0.4534      Z:     0.5044     Total:     0.6999

  Dipole Moment: (Debye)
     X:     0.4393      Y:     1.1525      Z:     1.2821     Total:     1.7790


  Saving occupied orbitals to File 180.

*** tstop() called on cx1-1-1-2.cx1.hpc.ic.ac.uk at Fri Sep  2 13:58:02 2016
Module time:
	user time   =      24.77 seconds =       0.41 minutes
	system time =       0.33 seconds =       0.01 minutes
	total time  =          8 seconds =       0.13 minutes
Total time:
	user time   =      24.77 seconds =       0.41 minutes
	system time =       0.33 seconds =       0.01 minutes
	total time  =          8 seconds =       0.13 minutes

*** tstart() called on cx1-1-1-2.cx1.hpc.ic.ac.uk
*** at Fri Sep  2 13:58:02 2016


         ------------------------------------------------------------
                                   SCF GRAD                          
                          Rob Parrish, Justin Turney,                
                       Andy Simmonett, and Alex Sokolov              
         ------------------------------------------------------------

  ==> Geometry <==

    Molecular point group: c1
    Full point group: C1

    Geometry (in Angstrom), charge = 0, multiplicity = 1:

       Center              X                  Y                   Z               Mass       
    ------------   -----------------  -----------------  -----------------  -----------------
           H         -3.198027274445     1.322527561566    -1.850890231395     1.007825032070
           O         -3.229371274445     0.379004561566    -1.772191231395    15.994914619560
           C         -2.958449274445     0.015230561566    -0.442495231395    12.000000000000
           C         -1.543288274445     0.372229561566    -0.001478231395    12.000000000000
           H         -3.105155274445    -1.056860438434    -0.395711231395     1.007825032070
           H         -3.683062274445     0.470851561566     0.230283768605     1.007825032070
           C         -0.454958274445    -0.322155438434    -0.821164231395    12.000000000000
           H         -1.415130274445     1.453394561566    -0.061645231395     1.007825032070
           H         -1.436952274445     0.112826561566     1.050483768605     1.007825032070
           C          0.960970725555     0.060316561566    -0.385229231395    12.000000000000
           H         -0.592341274445    -0.083066438434    -1.871246231395     1.007825032070
           H         -0.580094274445    -1.400253438434    -0.734912231395     1.007825032070
           C          1.231231725555    -0.248147438434     1.089861768605    12.000000000000
           H          1.677877725555    -0.464703438434    -1.011980231395     1.007825032070
           H          1.120195725555     1.123052561566    -0.563681231395     1.007825032070
           C          2.607196725555     0.198596561566     1.597103768605    12.000000000000
           H          1.116214725555    -1.317412438434     1.260560768605     1.007825032070
           H          0.467006725555     0.238178561566     1.692576768605     1.007825032070
           C          3.788402725555    -0.541239438434     0.966388768605    12.000000000000
           H          2.640719725555     0.053472561566     2.674185768605     1.007825032070
           H          2.721370725555     1.268162561566     1.432194768605     1.007825032070
           H          3.694760725555    -1.615117438434     1.104791768605     1.007825032070
           H          4.724504725555    -0.231011438434     1.420600768605     1.007825032070
           H          3.865619725555    -0.350430438434    -0.098878231395     1.007825032070

  Nuclear repulsion =  389.175610042146957

  ==> Basis Set <==

  Basis Set: 6-31G*
    Number of shells: 80
    Number of basis function: 152
    Number of Cartesian functions: 152
    Spherical Harmonics?: false
    Max angular momentum: 2

  ==> DFJKGrad: Density-Fitted SCF Gradients <==

    Gradient:                    1
    J tasked:                  Yes
    K tasked:                  Yes
    wK tasked:                  No
    OpenMP threads:              4
    Integrals threads:           4
    Memory (MB):              1430
    Schwarz Cutoff:          0E+00
    Fitting Condition:       1E-12

   => Auxiliary Basis Set <=

  Basis Set: 
    Number of shells: 336
    Number of basis function: 1048
    Number of Cartesian functions: 1048
    Spherical Harmonics?: false
    Max angular momentum: 3


  -Total Gradient:
     Atom            X                  Y                   Z
    ------   -----------------  -----------------  -----------------
       1       -0.000013855568     0.000063975899    -0.000023825681
       2        0.000172285607     0.000019677885     0.000189840052
       3       -0.000351919444    -0.000236785171     0.000257271510
       4        0.002543096719     0.001006053388    -0.000680001382
       5       -0.000044382848    -0.000050518552    -0.000014980219
       6        0.000004729406     0.000000972485     0.000019300735
       7        0.000909540172    -0.000171571122     0.000889494664
       8       -0.000284228996    -0.000386409864     0.000017028098
       9        0.003754593550    -0.000520089978     0.002975271830
      10       -0.001190719922     0.000370075570    -0.000655127584
      11       -0.000147917657     0.000174383302    -0.000528094369
      12        0.000001798707     0.000125480945    -0.000265318031
      13       -0.001625987754    -0.001392223609    -0.001297211098
      14        0.000918203983    -0.000373867934    -0.000182519551
      15        0.000239821030    -0.000172080625    -0.000144534301
      16       -0.000092118407     0.000369407778     0.000022772985
      17        0.000123128068     0.000498706687     0.000055873127
      18       -0.004914029545     0.000749203225    -0.000633416870
      19       -0.000027174640    -0.000058581466     0.000052650148
      20       -0.000056329397    -0.000025219110    -0.000046788641
      21        0.000066525469    -0.000003333603     0.000048979591
      22       -0.000003857656    -0.000023862369     0.000010961193
      23       -0.000004459942     0.000008371160    -0.000010755249
      24        0.000023259068     0.000028235079    -0.000056870953


*** tstop() called on cx1-1-1-2.cx1.hpc.ic.ac.uk at Fri Sep  2 13:58:11 2016
Module time:
	user time   =      31.27 seconds =       0.52 minutes
	system time =       0.29 seconds =       0.00 minutes
	total time  =          9 seconds =       0.15 minutes
Total time:
	user time   =      56.06 seconds =       0.93 minutes
	system time =       0.62 seconds =       0.01 minutes
	total time  =         17 seconds =       0.28 minutes
CURRENT ENERGY: -349.2443236066

			-----------------------------------------
			 OPTKING 2.0: for geometry optimizations 
			  - R.A. King,  Bethel University        
			-----------------------------------------

	Internal coordinates to be generated automatically.
	Detected frag with atoms:  1 2 3 4 5 6 7 8 9 10 11 12 13 14 15 16 17 18 19 20
	 21 22 23 24
	---Fragment 1 Bond Connectivity---
	 1 : 2
	 2 : 1 3
	 3 : 2 4 5 6
	 4 : 3 7 8 9
	 5 : 3
	 6 : 3
	 7 : 4 10 11 12
	 8 : 4
	 9 : 4
	 10 : 7 13 14 15
	 11 : 7
	 12 : 7
	 13 : 10 16 17 18
	 14 : 10
	 15 : 10
	 16 : 13 19 20 21
	 17 : 13
	 18 : 13
	 19 : 16 22 23 24
	 20 : 16
	 21 : 16
	 22 : 19
	 23 : 19
	 24 : 19

	Assuming in current code that numbering for constraints corresponds to unified fragment.
	Frozen dihedral atom list: 
	    13    10     7    11
	---Fragment 1 Geometry and Gradient---
	 H          -6.0433957142        2.4992148946       -3.4976756394
	 O          -6.1026272901        0.7162148245       -3.3489560824
	 C          -5.5906589067        0.0287815902       -0.8361948024
	 C          -2.9163921828        0.7034119299       -0.0027934525
	 H          -5.8678930688       -1.9971767893       -0.7477858550
	 H          -6.9599790291        0.8897805006        0.4351732555
	 C          -0.8597465406       -0.6087855509       -1.5517755075
	 H          -2.6742086611        2.7465176844       -0.1164926047
	 H          -2.7154462647        0.2132113019        1.9851266297
	 C           1.8159714930        0.1139817826       -0.7279777457
	 H          -1.1193627859       -0.1569728195       -3.5361429045
	 H          -1.0962193100       -2.6460955153       -1.3887828490
	 C           2.3266907674       -0.4689306992        2.0595402654
	 H           3.1707293858       -0.8781622316       -1.9123654892
	 H           2.1168631365        2.1222617742       -1.0652031536
	 C           4.9268877859        0.3752931123        3.0180887285
	 H           2.1093401368       -2.4895487127        2.3821146265
	 H           0.8825148135        0.4500922521        3.1985065515
	 C           7.1590436324       -1.0227943110        1.8262101106
	 H           4.9902370750        0.1010484970        5.0534787311
	 H           5.1426453774        2.3964799333        2.7064558816
	 H           6.9820858978       -3.0521296311        2.0877538765
	 H           8.9280200448       -0.4365483522        2.6845463968
	 H           7.3049626152       -0.6622175573       -0.1868527778
	            -0.0000138556        0.0000639759       -0.0000238257
	             0.0001722856        0.0000196779        0.0001898401
	            -0.0003519194       -0.0002367852        0.0002572715
	             0.0025430967        0.0010060534       -0.0006800014
	            -0.0000443828       -0.0000505186       -0.0000149802
	             0.0000047294        0.0000009725        0.0000193007
	             0.0009095402       -0.0001715711        0.0008894947
	            -0.0002842290       -0.0003864099        0.0000170281
	             0.0037545936       -0.0005200900        0.0029752718
	            -0.0011907199        0.0003700756       -0.0006551276
	            -0.0001479177        0.0001743833       -0.0005280944
	             0.0000017987        0.0001254809       -0.0002653180
	            -0.0016259878       -0.0013922236       -0.0012972111
	             0.0009182040       -0.0003738679       -0.0001825196
	             0.0002398210       -0.0001720806       -0.0001445343
	            -0.0000921184        0.0003694078        0.0000227730
	             0.0001231281        0.0004987067        0.0000558731
	            -0.0049140295        0.0007492032       -0.0006334169
	            -0.0000271746       -0.0000585815        0.0000526501
	            -0.0000563294       -0.0000252191       -0.0000467886
	             0.0000665255       -0.0000033336        0.0000489796
	            -0.0000038577       -0.0000238624        0.0000109612
	            -0.0000044599        0.0000083712       -0.0000107552
	             0.0000232591        0.0000282351       -0.0000568710

	Previous optimization step data not found.  Starting new optimization.

	---Fragment 1 Intrafragment Coordinates---
	 - Coordinate -           - BOHR/RAD -       - ANG/DEG -
	 R(1,2)           =         1.790172	       0.947318
	 R(2,3)           =         2.654928	       1.404928
	 R(3,4)           =         2.881213	       1.524672
	 R(3,5)           =         2.046749	       1.083093
	 R(3,6)           =         2.057361	       1.088709
	 R(4,7)           =         2.889809	       1.529221
	 R(4,8)           =         2.060549	       1.090396
	 R(4,9)           =         2.057305	       1.088679
	 R(7,10)          =         2.891453	       1.530091
	 R(7,11)          =         2.051646	       1.085684
	 R(7,12)          =         2.057454	       1.088758
	 R(10,13)         =         2.893247	       1.531040
	 R(10,14)         =         2.054871	       1.087391
	 R(10,15)         =         2.058506	       1.089314
	 R(13,16)         =         2.896990	       1.533021
	 R(13,17)         =         2.057715	       1.088896
	 R(13,18)         =         2.056086	       1.088034
	 R(16,19)         =         2.890976	       1.529839
	 R(16,20)         =         2.054759	       1.087332
	 R(16,21)         =         2.056420	       1.088211
	 R(19,22)         =         2.053758	       1.086802
	 R(19,23)         =         2.051756	       1.085743
	 R(19,24)         =         2.050300	       1.084972
	 B(1,2,3)         =         1.907245	     109.277061
	 B(2,3,4)         =         1.973735	     113.086699
	 B(2,3,5)         =         1.845289	     105.727286
	 B(2,3,6)         =         1.926407	     110.374991
	 B(3,4,7)         =         1.981446	     113.528519
	 B(3,4,8)         =         1.902122	     108.983553
	 B(3,4,9)         =         1.890585	     108.322539
	 B(4,3,5)         =         1.923032	     110.181637
	 B(4,3,6)         =         1.918807	     109.939536
	 B(4,7,10)        =         1.974003	     113.102026
	 B(4,7,11)        =         1.905388	     109.170710
	 B(4,7,12)        =         1.902200	     108.988026
	 B(5,3,6)         =         1.872765	     107.301553
	 B(7,4,8)         =         1.914535	     109.694781
	 B(7,4,9)         =         1.917957	     109.890850
	 B(7,10,13)       =         1.968699	     112.798121
	 B(7,10,14)       =         1.902014	     108.977374
	 B(7,10,15)       =         1.909705	     109.418040
	 B(8,4,9)         =         1.852606	     106.146498
	 B(10,7,11)       =         1.915180	     109.731731
	 B(10,7,12)       =         1.908486	     109.348189
	 B(10,13,16)      =         2.002601	     114.740586
	 B(10,13,17)      =         1.907344	     109.282765
	 B(10,13,18)      =         1.896172	     108.642650
	 B(11,7,12)       =         1.854739	     106.268703
	 B(13,10,14)      =         1.919482	     109.978193
	 B(13,10,15)      =         1.905606	     109.183190
	 B(13,16,19)      =         1.999473	     114.561385
	 B(13,16,20)      =         1.892872	     108.453554
	 B(13,16,21)      =         1.907576	     109.296079
	 B(14,10,15)      =         1.854855	     106.275338
	 B(16,13,17)      =         1.906143	     109.213957
	 B(16,13,18)      =         1.893242	     108.474777
	 B(16,19,22)      =         1.937803	     111.027925
	 B(16,19,23)      =         1.933758	     110.796184
	 B(16,19,24)      =         1.954858	     112.005124
	 B(17,13,18)      =         1.852391	     106.134202
	 B(19,16,20)      =         1.896567	     108.665279
	 B(19,16,21)      =         1.909042	     109.380023
	 B(20,16,21)      =         1.852570	     106.144424
	 B(22,19,23)      =         1.878996	     107.658523
	 B(22,19,24)      =         1.880674	     107.754688
	 B(23,19,24)      =         1.874581	     107.405588
	 D(1,2,3,4)       =        -1.131450	     -64.827308
	 D(1,2,3,5)       =         3.046155	     174.531845
	 D(1,2,3,6)       =         1.026236	      58.799013
	 D(2,3,4,7)       =        -1.064470	     -60.989648
	 D(2,3,4,8)       =         1.074972	      61.591374
	 D(2,3,4,9)       =         3.083311	     176.660708
	 D(3,4,7,10)      =         3.125387	     179.071497
	 D(3,4,7,11)      =         0.987824	      56.598154
	 D(3,4,7,12)      =        -1.031108	     -59.078131
	 D(4,7,10,13)     =         1.009496	      57.839865
	 D(4,7,10,14)     =        -3.136654	    -179.717049
	 D(4,7,10,15)     =        -1.115310	     -63.902537
	 D(5,3,4,7)       =         0.996308	      57.084264
	 D(5,3,4,8)       =         3.135751	     179.665286
	 D(5,3,4,9)       =        -1.139096	     -65.265380
	 D(6,3,4,7)       =         3.056853	     175.144765
	 D(6,3,4,8)       =        -1.086890	     -62.274213
	 D(6,3,4,9)       =         0.921449	      52.795121
	 D(7,10,13,16)    =        -3.077327	    -176.317858
	 D(7,10,13,17)    =         1.058542	      60.649980
	 D(7,10,13,18)    =        -0.955348	     -54.737433
	 D(8,4,7,10)      =         0.992814	      56.884047
	 D(8,4,7,11)      =        -1.144749	     -65.589296
	 D(8,4,7,12)      =         3.119504	     178.734419
	 D(9,4,7,10)      =        -1.037620	     -59.451259
	 D(9,4,7,11)      =         3.108002	     178.075399
	 D(9,4,7,12)      =         1.089070	      62.399114
	 D(10,13,16,19)   =        -1.149975	     -65.888687
	 D(10,13,16,20)   =         3.011511	     172.546857
	 D(10,13,16,21)   =         0.999086	      57.243436
	*D(11,7,10,13)    =         3.141593	     180.000000
	 D(11,7,10,14)    =        -1.004558	     -57.556917
	 D(11,7,10,15)    =         1.016787	      58.257595
	 D(12,7,10,13)    =        -1.113663	     -63.808183
	 D(12,7,10,14)    =         1.023372	      58.634902
	 D(12,7,10,15)    =         3.044717	     174.449414
	 D(13,16,19,22)   =        -0.980829	     -56.197345
	 D(13,16,19,23)   =        -3.067888	    -175.777031
	 D(13,16,19,24)   =         1.122510	      64.315101
	 D(14,10,13,16)   =         1.078648	      61.802000
	 D(14,10,13,17)   =        -1.068668	     -61.230162
	 D(14,10,13,18)   =        -3.082558	    -176.617575
	 D(15,10,13,16)   =        -0.950207	     -54.442851
	 D(15,10,13,17)   =        -3.097523	    -177.475013
	 D(15,10,13,18)   =         1.171772	      67.137575
	 D(17,13,16,19)   =         0.997986	      57.180401
	 D(17,13,16,20)   =        -1.123714	     -64.384055
	 D(17,13,16,21)   =        -3.136138	    -179.687475
	 D(18,13,16,19)   =         3.009635	     172.439368
	 D(18,13,16,20)   =         0.887935	      50.874912
	 D(18,13,16,21)   =        -1.124490	     -64.428509
	 D(20,16,19,22)   =         1.138847	      65.251138
	 D(20,16,19,23)   =        -0.948212	     -54.328548
	 D(20,16,19,24)   =        -3.040999	    -174.236416
	 D(21,16,19,22)   =        -3.129101	    -179.284294
	 D(21,16,19,23)   =         1.067025	      61.136020
	 D(21,16,19,24)   =        -1.025762	     -58.771848

	Current energy   :      -349.2443236066

	Generating empirical Hessian (Schlegel '84) for each fragment.
	Taking RFO optimization step.
	Going to follow RFO solution 1.
	Using RFO vector 1.
	Norm of target step-size    0.44510
	Projected energy change by RFO approximation:        -0.0059159929

	Back-transformation to cartesian coordinates...
	Successfully converged to displaced geometry.

	Back-transformation to cartesian coordinates to adjust frozen coordinates...
	Successfully converged to displaced geometry.

	--- Internal Coordinate Step in ANG or DEG, aJ/ANG or AJ/DEG ---
	 ---------------------------------------------------------------------------
	   Coordinate                Previous        Force       Change         New 
	   ----------                --------       ------       ------       ------
	    1 R(1,2)          =      0.947318    -0.000537    -0.000059     0.947259
	    2 R(2,3)          =      1.404928     0.001368     0.000194     1.405122
	    3 R(3,4)          =      1.524672    -0.001155    -0.000244     1.524428
	    4 R(3,5)          =      1.083093    -0.000456    -0.000081     1.083012
	    5 R(3,6)          =      1.088709    -0.000076    -0.000014     1.088695
	    6 R(4,7)          =      1.529221     0.022179     0.004747     1.533969
	    7 R(4,8)          =      1.090396     0.003440     0.000626     1.091022
	    8 R(4,9)          =      1.088679    -0.027728    -0.005020     1.083659
	    9 R(7,10)         =      1.530091     0.056598     0.012147     1.542238
	   10 R(7,11)         =      1.085684    -0.004679    -0.000839     1.084845
	   11 R(7,12)         =      1.088758     0.001199     0.000217     1.088975
	   12 R(10,13)        =      1.531040     0.024434     0.005259     1.536300
	   13 R(10,14)        =      1.087391    -0.007341    -0.001323     1.086067
	   14 R(10,15)        =      1.089314     0.000899     0.000163     1.089477
	   15 R(13,16)        =      1.533021    -0.000069    -0.000015     1.533006
	   16 R(13,17)        =      1.088896     0.004070     0.000737     1.089633
	   17 R(13,18)        =      1.088034    -0.028305    -0.005113     1.082921
	   18 R(16,19)        =      1.529839    -0.000118    -0.000025     1.529813
	   19 R(16,20)        =      1.087332     0.000368     0.000066     1.087398
	   20 R(16,21)        =      1.088211     0.000031     0.000006     1.088216
	   21 R(19,22)        =      1.086802    -0.000208    -0.000038     1.086764
	   22 R(19,23)        =      1.085743     0.000049     0.000009     1.085751
	   23 R(19,24)        =      1.084972    -0.000515    -0.000092     1.084880
	   24 B(1,2,3)        =    109.277061    -0.000003    -0.013325   109.263736
	   25 B(2,3,4)        =    113.086699     0.000023     0.081005   113.167703
	   26 B(2,3,5)        =    105.727286    -0.000007    -0.032962   105.694324
	   27 B(2,3,6)        =    110.374991    -0.000007     0.001241   110.376232
	   28 B(3,4,7)        =    113.528519    -0.000129    -0.534025   112.994494
	   29 B(3,4,8)        =    108.983553     0.000044    -0.271428   108.712126
	   30 B(3,4,9)        =    108.322539    -0.000115    -0.804352   107.518188
	   31 B(4,3,5)        =    110.181637    -0.000009    -0.049118   110.132519
	   32 B(4,3,6)        =    109.939536    -0.000004     0.002739   109.942274
	   33 B(4,7,10)       =    113.102026     0.001037     3.547849   116.649875
	   34 B(4,7,11)       =    109.170710    -0.000477    -3.111956   106.058755
	   35 B(4,7,12)       =    108.988026    -0.000257     0.295397   109.283423
	   36 B(5,3,6)        =    107.301553     0.000003    -0.009241   107.292312
	   37 B(7,4,8)        =    109.694781    -0.000002    -0.158455   109.536326
	   38 B(7,4,9)        =    109.890850     0.000214     1.516112   111.406962
	   39 B(7,10,13)      =    112.798121     0.001134     4.156225   116.954346
	   40 B(7,10,14)      =    108.977374    -0.000423    -1.753658   107.223716
	   41 B(7,10,15)      =    109.418040    -0.000291    -0.399112   109.018928
	   42 B(8,4,9)        =    106.146498    -0.000007     0.275832   106.422330
	   43 B(10,7,11)      =    109.731731    -0.000341    -2.058036   107.673695
	   44 B(10,7,12)      =    109.348189    -0.000236     0.635994   109.984183
	   45 B(10,13,16)     =    114.740586    -0.000106    -0.436799   114.303787
	   46 B(10,13,17)     =    109.282765    -0.000005    -0.174197   109.108568
	   47 B(10,13,18)     =    108.642650     0.000223     1.618882   110.261531
	   48 B(11,7,12)      =    106.268703     0.000226     0.396221   106.664924
	   49 B(13,10,14)     =    109.978193    -0.000318    -1.066242   108.911950
	   50 B(13,10,15)     =    109.183190    -0.000340    -0.681764   108.501426
	   51 B(13,16,19)     =    114.561385     0.000005     0.016152   114.577538
	   52 B(13,16,20)     =    108.453554     0.000004     0.049332   108.502886
	   53 B(13,16,21)     =    109.296079    -0.000007    -0.063237   109.232842
	   54 B(14,10,15)     =    106.275338     0.000181    -0.618341   105.656997
	   55 B(16,13,17)     =    109.213957     0.000035    -0.334911   108.879046
	   56 B(16,13,18)     =    108.474777    -0.000137    -0.886409   107.588368
	   57 B(16,19,22)     =    111.027925     0.000000    -0.001812   111.026113
	   58 B(16,19,23)     =    110.796184     0.000000     0.004960   110.801144
	   59 B(16,19,24)     =    112.005124    -0.000001    -0.002570   112.002553
	   60 B(17,13,18)     =    106.134202    -0.000002     0.258727   106.392929
	   61 B(19,16,20)     =    108.665279    -0.000003     0.009442   108.674721
	   62 B(19,16,21)     =    109.380023     0.000001    -0.013239   109.366784
	   63 B(20,16,21)     =    106.144424     0.000001     0.001703   106.146127
	   64 B(22,19,23)     =    107.658523    -0.000000    -0.002125   107.656398
	   65 B(22,19,24)     =    107.754688    -0.000001    -0.008357   107.746331
	   66 B(23,19,24)     =    107.405588     0.000001     0.009931   107.415519
	   67 D(1,2,3,4)      =    -64.827308    -0.000001     0.006899   -64.820408
	   68 D(1,2,3,5)      =    174.531845    -0.000000     0.042315   174.574160
	   69 D(1,2,3,6)      =     58.799013     0.000001     0.070613    58.869626
	   70 D(2,3,4,7)      =    -60.989648     0.000013     0.792838   -60.196810
	   71 D(2,3,4,8)      =     61.591374    -0.000000     0.033711    61.625085
	   72 D(2,3,4,9)      =    176.660708    -0.000011    -0.205757   176.454951
	   73 D(3,4,7,10)     =    179.071497    -0.000028    -7.680555   171.390942
	   74 D(3,4,7,11)     =     56.598154    -0.000011    -5.070755    51.527399
	   75 D(3,4,7,12)     =    -59.078131     0.000020    -4.031502   -63.109633
	   76 D(4,7,10,13)    =     57.839865     0.000033     3.165052    61.004917
	   77 D(4,7,10,14)    =   -179.717049     0.000046     3.292070  -176.424980
	   78 D(4,7,10,15)    =    -63.902537     0.000005     1.413880   -62.488658
	   79 D(5,3,4,7)      =     57.084264     0.000013     0.769942    57.854206
	   80 D(5,3,4,8)      =    179.665286    -0.000000     0.010815   179.676101
	   81 D(5,3,4,9)      =    -65.265380    -0.000011    -0.228653   -65.494032
	   82 D(6,3,4,7)      =    175.144765     0.000012     0.730489   175.875254
	   83 D(6,3,4,8)      =    -62.274213    -0.000001    -0.028639   -62.302851
	   84 D(6,3,4,9)      =     52.795121    -0.000012    -0.268106    52.527015
	   85 D(7,10,13,16)   =   -176.317858    -0.000017    -6.275915  -182.593773
	   86 D(7,10,13,17)   =     60.649980    -0.000009    -5.397595    55.252385
	   87 D(7,10,13,18)   =    -54.737433    -0.000036    -6.514938   -61.252371
	   88 D(8,4,7,10)     =     56.884047    -0.000021    -6.850251    50.033796
	   89 D(8,4,7,11)     =    -65.589296    -0.000003    -4.240451   -69.829746
	   90 D(8,4,7,12)     =    178.734419     0.000027    -3.201197   175.533222
	   91 D(9,4,7,10)     =    -59.451259    -0.000047    -7.987370   -67.438629
	   92 D(9,4,7,11)     =    178.075399    -0.000030    -5.377570   172.697829
	   93 D(9,4,7,12)     =     62.399114     0.000001    -4.338317    58.060797
	   94 D(10,13,16,19)  =    -65.888687     0.000013     0.701621   -65.187066
	   95 D(10,13,16,20)  =    172.546857     0.000013     0.641949   173.188806
	   96 D(10,13,16,21)  =     57.243436     0.000013     0.646885    57.890321
	   97 *D(11,7,10,13)  =    180.000000     0.000000     0.000000   180.000000
	   98 D(11,7,10,14)   =    -57.556917     0.000013     0.127558   -57.429360
	   99 D(11,7,10,15)   =     58.257595    -0.000028    -1.750633    56.506962
	  100 D(12,7,10,13)   =    -63.808183    -0.000013    -0.333542   -64.141725
	  101 D(12,7,10,14)   =     58.634902     0.000000    -0.206524    58.428378
	  102 D(12,7,10,15)   =    174.449414    -0.000041    -2.084714   172.364700
	  103 D(13,16,19,22)  =    -56.197345    -0.000001    -0.062704   -56.260049
	  104 D(13,16,19,23)  =   -175.777031    -0.000001    -0.062111  -175.839143
	  105 D(13,16,19,24)  =     64.315101    -0.000001    -0.076398    64.238703
	  106 D(14,10,13,16)  =     61.802000    -0.000019    -6.088933    55.713067
	  107 D(14,10,13,17)  =    -61.230162    -0.000011    -5.210614   -66.440776
	  108 D(14,10,13,18)  =   -176.617575    -0.000038    -6.327957  -182.945532
	  109 D(15,10,13,16)  =    -54.442851     0.000017    -4.393047   -58.835898
	  110 D(15,10,13,17)  =   -177.475013     0.000025    -3.514728  -180.989740
	  111 D(15,10,13,18)  =     67.137575    -0.000002    -4.632071    62.505504
	  112 D(17,13,16,19)  =     57.180401     0.000000    -0.088250    57.092151
	  113 D(17,13,16,20)  =    -64.384055     0.000000    -0.147923   -64.531978
	  114 D(17,13,16,21)  =   -179.687475     0.000000    -0.142986  -179.830462
	  115 D(18,13,16,19)  =    172.439368    -0.000013    -0.430636   172.008732
	  116 D(18,13,16,20)  =     50.874912    -0.000013    -0.490309    50.384604
	  117 D(18,13,16,21)  =    -64.428509    -0.000013    -0.485372   -64.913881
	  118 D(20,16,19,22)  =     65.251138     0.000000     0.018919    65.270057
	  119 D(20,16,19,23)  =    -54.328548     0.000000     0.019511   -54.309036
	  120 D(20,16,19,24)  =   -174.236416     0.000000     0.005225  -174.231191
	  121 D(21,16,19,22)  =   -179.284294     0.000000     0.018972  -179.265322
	  122 D(21,16,19,23)  =     61.136020     0.000000     0.019564    61.155584
	  123 D(21,16,19,24)  =    -58.771848     0.000000     0.005278   -58.766570
	 ---------------------------------------------------------------------------

  ==> Convergence Check <==

  Measures of convergence in internal coordinates in au.
  Criteria marked as inactive (o), active & met (*), and active & unmet ( ).
  --------------------------------------------------------------------------------------------- ~
   Step     Total Energy     Delta E     MAX Force     RMS Force      MAX Disp      RMS Disp    ~
  --------------------------------------------------------------------------------------------- ~
    Convergence Criteria    1.00e-06 *    3.00e-04 *             o    1.20e-03 *             o  ~
  --------------------------------------------------------------------------------------------- ~
      1    -349.24432361   -3.49e+02      1.49e-02      2.49e-03 o    1.39e-01      4.01e-02 o  ~
  ---------------------------------------------------------------------------------------------

	Writing optimization data to binary file.
	Structure for next step:
	Cartesian Geometry (in Angstrom)
	    H    -3.0782889978   1.3701454027  -1.9572257745
	    O    -3.1193479637   0.4241194564  -1.9317382353
	    C    -3.0226741986  -0.0083296509  -0.5983183471
	    C    -1.6774932145   0.3160205474   0.0413434685
	    H    -3.1732480172  -1.0804556921  -0.6263955035
	    H    -3.8290676627   0.4162226360  -0.0027166687
	    C    -0.4949919123  -0.3352222636  -0.6871021241
	    H    -1.5473382720   1.3991931012   0.0525412643
	    H    -1.7249603852   0.0024249355   1.0775487254
	    C     0.9161318189   0.0980653931  -0.2404587099
	    H    -0.6048464817  -0.0710536277  -1.7335419962
	    H    -0.5881105757  -1.4185457744  -0.6270551174
	    C     1.2996023044  -0.1788712693   1.2212093236
	    H     1.6271976460  -0.4017582934  -0.8916912468
	    H     1.0383998607   1.1632008542  -0.4341030447
	    C     2.7352879976   0.2186229986   1.5830292457
	    H     1.1639840401  -1.2395333549   1.4307438187
	    H     0.6344147620   0.3523821311   1.8905468485
	    C     3.8189636764  -0.5855020239   0.8623636146
	    H     2.8670431887   0.0973462581   2.6555811180
	    H     2.8761945049   1.2781586588   1.3787160514
	    H     3.6957132553  -1.6508659339   1.0380505175
	    H     4.8064637751  -0.3054459649   1.2162962931
	    H     3.8002139076  -0.4228720894  -0.2100937303
			--------------------------
			 OPTKING Finished Execution 
			--------------------------

    Structure for next step:
    Molecular point group: c1
    Full point group: C1

    Geometry (in Angstrom), charge = 0, multiplicity = 1:

    H           -3.087161424397     1.365273615799    -1.953585634159
    O           -3.128220387207     0.419247741762    -1.928098096929
    C           -3.031546629468    -0.013201332601    -0.594678310521
    C           -1.686365748128     0.311148841002     0.044983456177
    H           -3.182120436528    -1.085327291898    -0.622755464778
    H           -3.837940032028     0.411350921909     0.000923322423
    C           -0.503864536153    -0.340093920263    -0.683462080769
    H           -1.556210815511     1.394321312100     0.056181251147
    H           -1.733832915165    -0.002446746949     1.081188633979
    C            0.907259087307     0.093193703305    -0.236818700638
    H           -0.613719097239    -0.075925304560    -1.729901872977
    H           -0.596983192436    -1.423417348330    -0.623415078647
    C            1.290729543468    -0.183742937970     1.224849221199
    H            1.618324860104    -0.406629945038    -0.888051187856
    H            1.029527119736     1.158329083036    -0.430463020663
    C            2.726415127020     0.213751299614     1.586669115730
    H            1.155111289498    -1.244404942580     1.434383700363
    H            0.625542051867     0.347510421909     1.894186694974
    C            3.810090723039    -0.590373661491     0.866003539657
    H            2.858170308093     0.092474568365     2.659220906075
    H            2.867321623609     1.273286878916     1.382355936958
    H            3.686840311412    -1.655737490172     1.041690429072
    H            4.797590746333    -0.310317623839     1.219936191139
    H            3.791340955718    -0.427743739444    -0.206453723414

gradient() will perform analytic gradient computation.

*** tstart() called on cx1-1-1-2.cx1.hpc.ic.ac.uk
*** at Fri Sep  2 13:58:12 2016


         ---------------------------------------------------------
                                   SCF
            by Justin Turney, Rob Parrish, and Andy Simmonett
                              RHF Reference
                        4 Threads,   2000 MiB Core
         ---------------------------------------------------------

  ==> Geometry <==

    Molecular point group: c1
    Full point group: C1

    Geometry (in Angstrom), charge = 0, multiplicity = 1:

       Center              X                  Y                   Z               Mass       
    ------------   -----------------  -----------------  -----------------  -----------------
           H         -3.087161424397     1.365273615799    -1.953585634159     1.007825032070
           O         -3.128220387207     0.419247741762    -1.928098096929    15.994914619560
           C         -3.031546629468    -0.013201332601    -0.594678310521    12.000000000000
           C         -1.686365748128     0.311148841002     0.044983456177    12.000000000000
           H         -3.182120436528    -1.085327291898    -0.622755464778     1.007825032070
           H         -3.837940032028     0.411350921909     0.000923322423     1.007825032070
           C         -0.503864536153    -0.340093920263    -0.683462080769    12.000000000000
           H         -1.556210815511     1.394321312100     0.056181251147     1.007825032070
           H         -1.733832915165    -0.002446746949     1.081188633979     1.007825032070
           C          0.907259087307     0.093193703305    -0.236818700638    12.000000000000
           H         -0.613719097239    -0.075925304560    -1.729901872977     1.007825032070
           H         -0.596983192436    -1.423417348330    -0.623415078647     1.007825032070
           C          1.290729543468    -0.183742937970     1.224849221199    12.000000000000
           H          1.618324860104    -0.406629945038    -0.888051187856     1.007825032070
           H          1.029527119736     1.158329083036    -0.430463020663     1.007825032070
           C          2.726415127020     0.213751299614     1.586669115730    12.000000000000
           H          1.155111289498    -1.244404942580     1.434383700363     1.007825032070
           H          0.625542051867     0.347510421909     1.894186694974     1.007825032070
           C          3.810090723039    -0.590373661491     0.866003539657    12.000000000000
           H          2.858170308093     0.092474568365     2.659220906075     1.007825032070
           H          2.867321623609     1.273286878916     1.382355936958     1.007825032070
           H          3.686840311412    -1.655737490172     1.041690429072     1.007825032070
           H          4.797590746333    -0.310317623839     1.219936191139     1.007825032070
           H          3.791340955718    -0.427743739444    -0.206453723414     1.007825032070

  Running in c1 symmetry.

  Rotational constants: A =      0.22652  B =      0.02012  C =      0.01936 [cm^-1]
  Rotational constants: A =   6790.95931  B =    603.13353  C =    580.31640 [MHz]
  Nuclear repulsion =  386.359706507101578

  Charge       = 0
  Multiplicity = 1
  Electrons    = 66
  Nalpha       = 33
  Nbeta        = 33

  ==> Algorithm <==

  SCF Algorithm Type is DF.
  DIIS enabled.
  MOM disabled.
  Fractional occupation disabled.
  Guess Type is READ.
  Energy threshold   = 1.00e-08
  Density threshold  = 1.00e-08
  Integral threshold = 0.00e+00

  ==> Primary Basis <==

  Basis Set: 6-31G*
    Number of shells: 80
    Number of basis function: 152
    Number of Cartesian functions: 152
    Spherical Harmonics?: false
    Max angular momentum: 2

  ==> Pre-Iterations <==

   -------------------------------------------------------
    Irrep   Nso     Nmo     Nalpha   Nbeta   Ndocc  Nsocc
   -------------------------------------------------------
     A        152     152       0       0       0       0
   -------------------------------------------------------
    Total     152     152      33      33      33       0
   -------------------------------------------------------

 OEINTS: Overlap, kinetic, potential, dipole, and quadrupole integrals
         stored in file 35.

  ==> Integral Setup <==

  ==> DFJK: Density-Fitted J/K Matrices <==

    J tasked:                  Yes
    K tasked:                  Yes
    wK tasked:                  No
    OpenMP threads:              4
    Integrals threads:           4
    Memory (MB):              1430
    Algorithm:                Core
    Integral Cache:           NONE
    Schwarz Cutoff:          1E-12
    Fitting Condition:       1E-12

   => Auxiliary Basis Set <=

  Basis Set: 
    Number of shells: 336
    Number of basis function: 1048
    Number of Cartesian functions: 1048
    Spherical Harmonics?: false
    Max angular momentum: 3

  Minimum eigenvalue in the overlap matrix is 3.4383738152E-03.
  Using Symmetric Orthogonalization.
  SCF Guess: Reading in previously saved MOs, projecting if necessary.

  Using orbitals from previous SCF, no projection.
  Recomputing DOCC and SOCC from number of alpha and beta electrons from previous calculation.
              A 
    DOCC [    33 ]

  ==> Iterations <==

                           Total Energy        Delta E     RMS |[F,P]|

   @DF-RHF iter   0:  -349.18186163186317   -3.49182e+02   1.95571e-03 
   @DF-RHF iter   1:  -349.24196971449862   -6.01081e-02   3.62859e-04 
   @DF-RHF iter   2:  -349.24456389483657   -2.59418e-03   1.27620e-04 DIIS
   @DF-RHF iter   3:  -349.24487719291290   -3.13298e-04   5.12798e-05 DIIS
   @DF-RHF iter   4:  -349.24492255183350   -4.53589e-05   7.54933e-06 DIIS
   @DF-RHF iter   5:  -349.24492391790295   -1.36607e-06   3.62648e-06 DIIS
   @DF-RHF iter   6:  -349.24492417233103   -2.54428e-07   7.91550e-07 DIIS
   @DF-RHF iter   7:  -349.24492419094133   -1.86103e-08   2.38806e-07 DIIS
   @DF-RHF iter   8:  -349.24492419221644   -1.27511e-09   6.90472e-08 DIIS
   @DF-RHF iter   9:  -349.24492419233911   -1.22668e-10   1.45979e-08 DIIS
   @DF-RHF iter  10:  -349.24492419234525   -6.13909e-12   3.36822e-09 DIIS

  ==> Post-Iterations <==

    Orbital Energies (a.u.)
    -----------------------

    Doubly Occupied:                                                      

       1A    -20.554022     2A    -11.267996     3A    -11.216870  
       4A    -11.215085     5A    -11.213817     6A    -11.212517  
       7A    -11.212247     8A    -11.207379     9A     -1.360653  
      10A     -1.086238    11A     -1.047353    12A     -0.984015  
      13A     -0.917338    14A     -0.854397    15A     -0.805812  
      16A     -0.768223    17A     -0.679129    18A     -0.641302  
      19A     -0.631840    20A     -0.620137    21A     -0.600575  
      22A     -0.583404    23A     -0.556849    24A     -0.547460  
      25A     -0.516292    26A     -0.507969    27A     -0.498676  
      28A     -0.478411    29A     -0.470619    30A     -0.455696  
      31A     -0.454543    32A     -0.437474    33A     -0.424680  

    Virtual:                                                              

      34A      0.221396    35A      0.232000    36A      0.262766  
      37A      0.264314    38A      0.271774    39A      0.288409  
      40A      0.302170    41A      0.311287    42A      0.317877  
      43A      0.324786    44A      0.332995    45A      0.339121  
      46A      0.346288    47A      0.356788    48A      0.358540  
      49A      0.386658    50A      0.399521    51A      0.411633  
      52A      0.421506    53A      0.447887    54A      0.463072  
      55A      0.468634    56A      0.479590    57A      0.703012  
      58A      0.707871    59A      0.723114    60A      0.737347  
      61A      0.745742    62A      0.758101    63A      0.791489  
      64A      0.818985    65A      0.832910    66A      0.899142  
      67A      0.904507    68A      0.914623    69A      0.938485  
      70A      0.968987    71A      0.979343    72A      0.989749  
      73A      1.039131    74A      1.079550    75A      1.093906  
      76A      1.100416    77A      1.147308    78A      1.153201  
      79A      1.153699    80A      1.159583    81A      1.164761  
      82A      1.175769    83A      1.182262    84A      1.189936  
      85A      1.204550    86A      1.220264    87A      1.223702  
      88A      1.232297    89A      1.241356    90A      1.252438  
      91A      1.262785    92A      1.281271    93A      1.299983  
      94A      1.315655    95A      1.363880    96A      1.404213  
      97A      1.412264    98A      1.464633    99A      1.570992  
     100A      1.627564   101A      1.675605   102A      1.723265  
     103A      1.782640   104A      1.806391   105A      1.853043  
     106A      1.874625   107A      1.901763   108A      1.960212  
     109A      2.001752   110A      2.023610   111A      2.078732  
     112A      2.083541   113A      2.129963   114A      2.148541  
     115A      2.215790   116A      2.243155   117A      2.282164  
     118A      2.294073   119A      2.299002   120A      2.320617  
     121A      2.333329   122A      2.345300   123A      2.448539  
     124A      2.465876   125A      2.487089   126A      2.535698  
     127A      2.587738   128A      2.635231   129A      2.640434  
     130A      2.675260   131A      2.703456   132A      2.725335  
     133A      2.748028   134A      2.759323   135A      2.780822  
     136A      2.818085   137A      2.877447   138A      2.950078  
     139A      2.980639   140A      3.015765   141A      3.056971  
     142A      3.114688   143A      3.170816   144A      3.217782  
     145A      4.185144   146A      4.543070   147A      4.619777  
     148A      4.714199   149A      4.801788   150A      4.863586  
     151A      4.926058   152A      4.997449  

    Final Occupation by Irrep:
              A 
    DOCC [    33 ]

  Energy converged.

  @DF-RHF Final Energy:  -349.24492419234525

   => Energetics <=

    Nuclear Repulsion Energy =            386.3597065071015777
    One-Electron Energy =               -1239.1512271840952053
    Two-Electron Energy =                 503.5465964846482620
    DFT Exchange-Correlation Energy =       0.0000000000000000
    Empirical Dispersion Energy =           0.0000000000000000
    PCM Polarization Energy =               0.0000000000000000
    EFP Energy =                            0.0000000000000000
    Total Energy =                       -349.2449241923453656

    Alert: EFP and PCM quantities not currently incorporated into SCF psivars.

Properties will be evaluated at   0.000000,   0.000000,   0.000000 Bohr
  ==> Properties <==


Properties computed using the SCF density matrix

  Nuclear Dipole Moment: (a.u.)
     X:     7.3177      Y:    -0.5505      Z:     4.0363

  Electronic Dipole Moment: (a.u.)
     X:    -7.2155      Y:     0.9820      Z:    -3.4995

  Dipole Moment: (a.u.)
     X:     0.1022      Y:     0.4314      Z:     0.5369     Total:     0.6963

  Dipole Moment: (Debye)
     X:     0.2597      Y:     1.0966      Z:     1.3645     Total:     1.7697


  Saving occupied orbitals to File 180.

*** tstop() called on cx1-1-1-2.cx1.hpc.ic.ac.uk at Fri Sep  2 13:58:20 2016
Module time:
	user time   =      22.94 seconds =       0.38 minutes
	system time =       0.33 seconds =       0.01 minutes
	total time  =          8 seconds =       0.13 minutes
Total time:
	user time   =      80.15 seconds =       1.34 minutes
	system time =       1.01 seconds =       0.02 minutes
	total time  =         26 seconds =       0.43 minutes

*** tstart() called on cx1-1-1-2.cx1.hpc.ic.ac.uk
*** at Fri Sep  2 13:58:20 2016


         ------------------------------------------------------------
                                   SCF GRAD                          
                          Rob Parrish, Justin Turney,                
                       Andy Simmonett, and Alex Sokolov              
         ------------------------------------------------------------

  ==> Geometry <==

    Molecular point group: c1
    Full point group: C1

    Geometry (in Angstrom), charge = 0, multiplicity = 1:

       Center              X                  Y                   Z               Mass       
    ------------   -----------------  -----------------  -----------------  -----------------
           H         -3.087161424397     1.365273615799    -1.953585634159     1.007825032070
           O         -3.128220387207     0.419247741762    -1.928098096929    15.994914619560
           C         -3.031546629468    -0.013201332601    -0.594678310521    12.000000000000
           C         -1.686365748128     0.311148841002     0.044983456177    12.000000000000
           H         -3.182120436528    -1.085327291898    -0.622755464778     1.007825032070
           H         -3.837940032028     0.411350921909     0.000923322423     1.007825032070
           C         -0.503864536153    -0.340093920263    -0.683462080769    12.000000000000
           H         -1.556210815511     1.394321312100     0.056181251147     1.007825032070
           H         -1.733832915165    -0.002446746949     1.081188633979     1.007825032070
           C          0.907259087307     0.093193703305    -0.236818700638    12.000000000000
           H         -0.613719097239    -0.075925304560    -1.729901872977     1.007825032070
           H         -0.596983192436    -1.423417348330    -0.623415078647     1.007825032070
           C          1.290729543468    -0.183742937970     1.224849221199    12.000000000000
           H          1.618324860104    -0.406629945038    -0.888051187856     1.007825032070
           H          1.029527119736     1.158329083036    -0.430463020663     1.007825032070
           C          2.726415127020     0.213751299614     1.586669115730    12.000000000000
           H          1.155111289498    -1.244404942580     1.434383700363     1.007825032070
           H          0.625542051867     0.347510421909     1.894186694974     1.007825032070
           C          3.810090723039    -0.590373661491     0.866003539657    12.000000000000
           H          2.858170308093     0.092474568365     2.659220906075     1.007825032070
           H          2.867321623609     1.273286878916     1.382355936958     1.007825032070
           H          3.686840311412    -1.655737490172     1.041690429072     1.007825032070
           H          4.797590746333    -0.310317623839     1.219936191139     1.007825032070
           H          3.791340955718    -0.427743739444    -0.206453723414     1.007825032070

  Nuclear repulsion =  386.359706507101521

  ==> Basis Set <==

  Basis Set: 6-31G*
    Number of shells: 80
    Number of basis function: 152
    Number of Cartesian functions: 152
    Spherical Harmonics?: false
    Max angular momentum: 2

  ==> DFJKGrad: Density-Fitted SCF Gradients <==

    Gradient:                    1
    J tasked:                  Yes
    K tasked:                  Yes
    wK tasked:                  No
    OpenMP threads:              4
    Integrals threads:           4
    Memory (MB):              1430
    Schwarz Cutoff:          0E+00
    Fitting Condition:       1E-12

   => Auxiliary Basis Set <=

  Basis Set: 
    Number of shells: 336
    Number of basis function: 1048
    Number of Cartesian functions: 1048
    Spherical Harmonics?: false
    Max angular momentum: 3


  -Total Gradient:
     Atom            X                  Y                   Z
    ------   -----------------  -----------------  -----------------
       1        0.000069121712    -0.000098887029     0.000013033945
       2        0.000443844700    -0.000107298665    -0.000084947022
       3       -0.000115391779     0.000797816218     0.001323970560
       4       -0.003067663101    -0.001087798218    -0.001005300500
       5        0.000108865530     0.000083897317     0.000057524944
       6       -0.000261589056    -0.000043971193    -0.000040801509
       7        0.000114397240    -0.003634704752     0.000050518332
       8       -0.000349729254     0.000129608692    -0.000385913337
       9       -0.001277719646     0.000511801809    -0.002964143811
      10        0.001542687089    -0.001851839381    -0.000944109169
      11       -0.002361284352     0.003219209548     0.001283813812
      12       -0.000569288594    -0.000446184814    -0.000800706203
      13        0.001402784193     0.004254936683     0.002804621150
      14        0.000697312924     0.000232034285     0.000293538574
      15        0.001010324739    -0.000358563590     0.000038374724
      16       -0.000896249141    -0.000297054993     0.001381676433
      17        0.000412586112    -0.000032480349    -0.000410612216
      18        0.003546770951    -0.001196187049    -0.000346853483
      19       -0.000293269477    -0.000055114001    -0.000024994344
      20        0.000318707570     0.000028968160     0.000122522927
      21       -0.000147594674    -0.000122856304    -0.000012769755
      22        0.000012788202     0.000016718874    -0.000014533496
      23        0.000013554013    -0.000007031626    -0.000026259973
      24       -0.000353965892     0.000064980376    -0.000307650583


*** tstop() called on cx1-1-1-2.cx1.hpc.ic.ac.uk at Fri Sep  2 13:58:29 2016
Module time:
	user time   =      31.30 seconds =       0.52 minutes
	system time =       0.32 seconds =       0.01 minutes
	total time  =          9 seconds =       0.15 minutes
Total time:
	user time   =     111.47 seconds =       1.86 minutes
	system time =       1.33 seconds =       0.02 minutes
	total time  =         35 seconds =       0.58 minutes
CURRENT ENERGY: -349.2449241923

			-----------------------------------------
			 OPTKING 2.0: for geometry optimizations 
			  - R.A. King,  Bethel University        
			-----------------------------------------

	Previous internal coordinate definitions found.
	---Fragment 1 Geometry and Gradient---
	 H          -5.8338896201        2.5799932303       -3.6917418257
	 O          -5.9114798151        0.7922634138       -3.6435773605
	 C          -5.7287928888       -0.0249469032       -1.1237791441
	 C          -3.1867694238        0.5879860961        0.0850064127
	 H          -6.0133361469       -2.0509713462       -1.1768372762
	 H          -7.2526555750        0.7773405869        0.0017448265
	 C          -0.9521659814       -0.6426843688       -1.2915561549
	 H          -2.9408122463        2.6348854211        0.1061671785
	 H          -3.2764693698       -0.0046236817        2.0431504162
	 C           1.7144712066        0.1761105766       -0.4475224874
	 H          -1.1597610163       -0.1434780322       -3.2690407767
	 H          -1.1281347396       -2.6898689611       -1.1780837658
	 C           2.4391253488       -0.3472238316        2.3146295821
	 H           3.0581907796       -0.7684192336       -1.6781735370
	 H           1.9455243027        2.1889247387       -0.8134572194
	 C           5.1521779146        0.4039314168        2.9983700922
	 H           2.1828439902       -2.3515845399        2.7105923632
	 H           1.1821031626        0.6566995257        3.5794940981
	 C           7.2000280080       -1.1156445363        1.6365095201
	 H           5.4011591234        0.1747516085        5.0251992393
	 H           5.4184526035        2.4061634897        2.6122741390
	 H           6.9671184843       -3.1288904044        1.9685096262
	 H           9.0661326082       -0.5864153233        2.3053453008
	 H           7.1645960827       -0.8083185226       -0.3901409964
	             0.0000691217       -0.0000988870        0.0000130339
	             0.0004438447       -0.0001072987       -0.0000849470
	            -0.0001153918        0.0007978162        0.0013239706
	            -0.0030676631       -0.0010877982       -0.0010053005
	             0.0001088655        0.0000838973        0.0000575249
	            -0.0002615891       -0.0000439712       -0.0000408015
	             0.0001143972       -0.0036347048        0.0000505183
	            -0.0003497293        0.0001296087       -0.0003859133
	            -0.0012777196        0.0005118018       -0.0029641438
	             0.0015426871       -0.0018518394       -0.0009441092
	            -0.0023612844        0.0032192095        0.0012838138
	            -0.0005692886       -0.0004461848       -0.0008007062
	             0.0014027842        0.0042549367        0.0028046211
	             0.0006973129        0.0002320343        0.0002935386
	             0.0010103247       -0.0003585636        0.0000383747
	            -0.0008962491       -0.0002970550        0.0013816764
	             0.0004125861       -0.0000324803       -0.0004106122
	             0.0035467710       -0.0011961870       -0.0003468535
	            -0.0002932695       -0.0000551140       -0.0000249943
	             0.0003187076        0.0000289682        0.0001225229
	            -0.0001475947       -0.0001228563       -0.0000127698
	             0.0000127882        0.0000167189       -0.0000145335
	             0.0000135540       -0.0000070316       -0.0000262600
	            -0.0003539659        0.0000649804       -0.0003076506

	---Fragment 1 Intrafragment Coordinates---
	 - Coordinate -           - BOHR/RAD -       - ANG/DEG -
	 R(1,2)           =         1.790061	       0.947259
	 R(2,3)           =         2.655295	       1.405122
	 R(3,4)           =         2.880752	       1.524428
	 R(3,5)           =         2.046596	       1.083012
	 R(3,6)           =         2.057335	       1.088695
	 R(4,7)           =         2.898780	       1.533969
	 R(4,8)           =         2.061732	       1.091022
	 R(4,9)           =         2.047818	       1.083659
	 R(7,10)          =         2.914408	       1.542238
	 R(7,11)          =         2.050061	       1.084845
	 R(7,12)          =         2.057864	       1.088975
	 R(10,13)         =         2.903186	       1.536300
	 R(10,14)         =         2.052370	       1.086067
	 R(10,15)         =         2.058814	       1.089477
	 R(13,16)         =         2.896962	       1.533006
	 R(13,17)         =         2.059109	       1.089633
	 R(13,18)         =         2.046423	       1.082921
	 R(16,19)         =         2.890928	       1.529813
	 R(16,20)         =         2.054885	       1.087398
	 R(16,21)         =         2.056430	       1.088216
	 R(19,22)         =         2.053687	       1.086764
	 R(19,23)         =         2.051773	       1.085751
	 R(19,24)         =         2.050126	       1.084880
	 B(1,2,3)         =         1.907012	     109.263736
	 B(2,3,4)         =         1.975149	     113.167703
	 B(2,3,5)         =         1.844714	     105.694324
	 B(2,3,6)         =         1.926429	     110.376232
	 B(3,4,7)         =         1.972126	     112.994494
	 B(3,4,8)         =         1.897385	     108.712126
	 B(3,4,9)         =         1.876546	     107.518188
	 B(4,3,5)         =         1.922175	     110.132519
	 B(4,3,6)         =         1.918855	     109.942274
	 B(4,7,10)        =         2.035924	     116.649875
	 B(4,7,11)        =         1.851074	     106.058755
	 B(4,7,12)        =         1.907356	     109.283423
	 B(5,3,6)         =         1.872604	     107.292312
	 B(7,4,8)         =         1.911770	     109.536326
	 B(7,4,9)         =         1.944418	     111.406962
	 B(7,10,13)       =         2.041238	     116.954346
	 B(7,10,14)       =         1.871407	     107.223716
	 B(7,10,15)       =         1.902739	     109.018928
	 B(8,4,9)         =         1.857420	     106.422330
	 B(10,7,11)       =         1.879260	     107.673695
	 B(10,7,12)       =         1.919586	     109.984183
	 B(10,13,16)      =         1.994977	     114.303787
	 B(10,13,17)      =         1.904304	     109.108568
	 B(10,13,18)      =         1.924427	     110.261531
	 B(11,7,12)       =         1.861654	     106.664924
	 B(13,10,14)      =         1.900872	     108.911950
	 B(13,10,15)      =         1.893707	     108.501426
	 B(13,16,19)      =         1.999755	     114.577538
	 B(13,16,20)      =         1.893733	     108.502886
	 B(13,16,21)      =         1.906473	     109.232842
	 B(14,10,15)      =         1.844062	     105.656997
	 B(16,13,17)      =         1.900298	     108.879046
	 B(16,13,18)      =         1.877771	     107.588368
	 B(16,19,22)      =         1.937771	     111.026113
	 B(16,19,23)      =         1.933845	     110.801144
	 B(16,19,24)      =         1.954813	     112.002553
	 B(17,13,18)      =         1.856907	     106.392929
	 B(19,16,20)      =         1.896732	     108.674721
	 B(19,16,21)      =         1.908810	     109.366784
	 B(20,16,21)      =         1.852599	     106.146127
	 B(22,19,23)      =         1.878959	     107.656398
	 B(22,19,24)      =         1.880528	     107.746331
	 B(23,19,24)      =         1.874754	     107.415519
	 D(1,2,3,4)       =        -1.131330	     -64.820408
	 D(1,2,3,5)       =         3.046894	     174.574160
	 D(1,2,3,6)       =         1.027469	      58.869626
	 D(2,3,4,7)       =        -1.050633	     -60.196810
	 D(2,3,4,8)       =         1.075561	      61.625085
	 D(2,3,4,9)       =         3.079720	     176.454951
	 D(3,4,7,10)      =         2.991336	     171.390942
	 D(3,4,7,11)      =         0.899323	      51.527399
	 D(3,4,7,12)      =        -1.101471	     -63.109633
	 D(4,7,10,13)     =         1.064737	      61.004917
	 D(4,7,10,14)     =        -3.079197	    -176.424980
	 D(4,7,10,15)     =        -1.090633	     -62.488658
	 D(5,3,4,7)       =         1.009746	      57.854206
	 D(5,3,4,8)       =         3.135940	     179.676101
	 D(5,3,4,9)       =        -1.143087	     -65.494032
	 D(6,3,4,7)       =         3.069602	     175.875254
	 D(6,3,4,8)       =        -1.087390	     -62.302851
	 D(6,3,4,9)       =         0.916769	      52.527015
	 D(7,10,13,16)    =         3.096323	     177.406227
	 D(7,10,13,17)    =         0.964336	      55.252385
	 D(7,10,13,18)    =        -1.069056	     -61.252371
	 D(8,4,7,10)      =         0.873254	      50.033796
	 D(8,4,7,11)      =        -1.218759	     -69.829746
	 D(8,4,7,12)      =         3.063633	     175.533222
	 D(9,4,7,10)      =        -1.177026	     -67.438629
	 D(9,4,7,11)      =         3.014146	     172.697829
	 D(9,4,7,12)      =         1.013352	      58.060797
	 D(10,13,16,19)   =        -1.137729	     -65.187066
	 D(10,13,16,20)   =         3.022715	     173.188806
	 D(10,13,16,21)   =         1.010377	      57.890321
	*D(11,7,10,13)    =         3.141593	     180.000000
	 D(11,7,10,14)    =        -1.002331	     -57.429360
	 D(11,7,10,15)    =         0.986233	      56.506962
	 D(12,7,10,13)    =        -1.119484	     -64.141725
	 D(12,7,10,14)    =         1.019768	      58.428378
	 D(12,7,10,15)    =         3.008332	     172.364700
	 D(13,16,19,22)   =        -0.981923	     -56.260049
	 D(13,16,19,23)   =        -3.068972	    -175.839143
	 D(13,16,19,24)   =         1.121177	      64.238703
	 D(14,10,13,16)   =         0.972376	      55.713067
	 D(14,10,13,17)   =        -1.159610	     -66.440776
	 D(14,10,13,18)   =         3.090183	     177.054468
	 D(15,10,13,16)   =        -1.026880	     -58.835898
	 D(15,10,13,17)   =         3.124318	     179.010260
	 D(15,10,13,18)   =         1.090927	      62.505504
	 D(17,13,16,19)   =         0.996446	      57.092151
	 D(17,13,16,20)   =        -1.126295	     -64.531978
	 D(17,13,16,21)   =        -3.138634	    -179.830462
	 D(18,13,16,19)   =         3.002119	     172.008732
	 D(18,13,16,20)   =         0.879377	      50.384604
	 D(18,13,16,21)   =        -1.132961	     -64.913881
	 D(20,16,19,22)   =         1.139177	      65.270057
	 D(20,16,19,23)   =        -0.947872	     -54.309036
	 D(20,16,19,24)   =        -3.040908	    -174.231191
	 D(21,16,19,22)   =        -3.128770	    -179.265322
	 D(21,16,19,23)   =         1.067366	      61.155584
	 D(21,16,19,24)   =        -1.025670	     -58.766570

	Current energy   :      -349.2449241923

	Energy change for the previous step:
		Projected    :        -0.0059159929
		Actual       :        -0.0006005857
	Energy ratio indicates iffy step: Trust radius decreased to 1.250e-01.


	Performing BFGS update.
	Previous computed or guess Hessian on step 1.
	Steps to be used in Hessian update: 1
	Taking RFO optimization step.
	Going to follow RFO solution 1.
	Using RFO vector 1.

	Determining step-restricting scale parameter for RS-RFO.
	Maximum step size allowed    0.12500

	 Iter      |step|        alpha        rfo_root  
	------------------------------------------------
	    0     0.24824       1.00000           1
	    1     0.17357       2.04932           1
	    2     0.13965       3.17706           1
	    3     0.12736       3.87715           1
	    4     0.12508       4.03751           1
	    5     0.12500       4.04371           1
	------------------------------------------------
	Norm of target step-size    0.12500
	Projected energy change by RFO approximation:        -0.0009776429

	Back-transformation to cartesian coordinates...
	Successfully converged to displaced geometry.

	Back-transformation to cartesian coordinates to adjust frozen coordinates...
	Successfully converged to displaced geometry.

	--- Internal Coordinate Step in ANG or DEG, aJ/ANG or AJ/DEG ---
	 ---------------------------------------------------------------------------
	   Coordinate                Previous        Force       Change         New 
	   ----------                --------       ------       ------       ------
	    1 R(1,2)          =      0.947259     0.000792     0.000058     0.947317
	    2 R(2,3)          =      1.405122     0.000251     0.000015     1.405137
	    3 R(3,4)          =      1.524428     0.007273     0.000989     1.525418
	    4 R(3,5)          =      1.083012     0.000821     0.000096     1.083108
	    5 R(3,6)          =      1.088695    -0.001271    -0.000146     1.088548
	    6 R(4,7)          =      1.533969    -0.016836    -0.002479     1.531489
	    7 R(4,8)          =      1.091022    -0.000684    -0.000104     1.090918
	    8 R(4,9)          =      1.083659     0.024110     0.002981     1.086640
	    9 R(7,10)         =      1.542238    -0.062434    -0.009011     1.533227
	   10 R(7,11)         =      1.084845     0.001774     0.000236     1.085081
	   11 R(7,12)         =      1.088975    -0.003694    -0.000435     1.088540
	   12 R(10,13)        =      1.536300    -0.029126    -0.004200     1.532100
	   13 R(10,14)        =      1.086067    -0.001431    -0.000113     1.085954
	   14 R(10,15)        =      1.089477     0.002010     0.000226     1.089704
	   15 R(13,16)        =      1.533006     0.009005     0.001246     1.534252
	   16 R(13,17)        =      1.089633     0.000813     0.000066     1.089699
	   17 R(13,18)        =      1.082921     0.024550     0.003029     1.085950
	   18 R(16,19)        =      1.529813     0.002259     0.000310     1.530124
	   19 R(16,20)        =      1.087398    -0.001287    -0.000151     1.087248
	   20 R(16,21)        =      1.088216     0.001123     0.000129     1.088346
	   21 R(19,22)        =      1.086764     0.000166     0.000021     1.086785
	   22 R(19,23)        =      1.085751    -0.000016    -0.000002     1.085749
	   23 R(19,24)        =      1.084880    -0.002636    -0.000297     1.084583
	   24 B(1,2,3)        =    109.263736     0.000002     0.007084   109.270820
	   25 B(2,3,4)        =    113.167703     0.000063     0.138699   113.306402
	   26 B(2,3,5)        =    105.694324    -0.000015     0.055383   105.749707
	   27 B(2,3,6)        =    110.376232    -0.000022    -0.099719   110.276513
	   28 B(3,4,7)        =    112.994494    -0.000050    -0.061467   112.933027
	   29 B(3,4,8)        =    108.712126     0.000031     0.209884   108.922009
	   30 B(3,4,9)        =    107.518188     0.000087     0.342198   107.860385
	   31 B(4,3,5)        =    110.132519     0.000001     0.065534   110.198053
	   32 B(4,3,6)        =    109.942274    -0.000037    -0.150372   109.791903
	   33 B(4,7,10)       =    116.649875    -0.000613    -1.473442   115.176433
	   34 B(4,7,11)       =    106.058755     0.000348     1.640306   107.699061
	   35 B(4,7,12)       =    109.283423     0.000156    -0.080423   109.203000
	   36 B(5,3,6)        =    107.292312     0.000009    -0.006964   107.285348
	   37 B(7,4,8)        =    109.536326     0.000021     0.051834   109.588160
	   38 B(7,4,9)        =    111.406962    -0.000060    -0.391237   111.015724
	   39 B(7,10,13)      =    116.954346    -0.000644    -1.679083   115.275263
	   40 B(7,10,14)      =    107.223716     0.000176     0.393435   107.617152
	   41 B(7,10,15)      =    109.018928     0.000141    -0.029226   108.989702
	   42 B(8,4,9)        =    106.422330    -0.000025    -0.143149   106.279181
	   43 B(10,7,11)      =    107.673695     0.000109     0.475223   108.148919
	   44 B(10,7,12)      =    109.984183     0.000145    -0.344772   109.639411
	   45 B(10,13,16)     =    114.303787    -0.000010     0.023050   114.326837
	   46 B(10,13,17)     =    109.108568     0.000048     0.269248   109.377816
	   47 B(10,13,18)     =    110.261531    -0.000141    -0.809855   109.451676
	   48 B(11,7,12)      =    106.664924    -0.000106    -0.050035   106.614888
	   49 B(13,10,14)     =    108.911950     0.000237     0.703272   109.615222
	   50 B(13,10,15)     =    108.501426     0.000208     0.388647   108.890073
	   51 B(13,16,19)     =    114.577538     0.000120     0.279842   114.857380
	   52 B(13,16,20)     =    108.502886    -0.000060    -0.259864   108.243023
	   53 B(13,16,21)     =    109.232842    -0.000021     0.085045   109.317887
	   54 B(14,10,15)     =    105.656997    -0.000071     0.400133   106.057130
	   55 B(16,13,17)     =    108.879046     0.000001     0.256801   109.135847
[...]
	 D(12,7,10,15)    =         3.030841	     173.654372
	 D(13,16,19,22)   =        -0.986156	     -56.502555
	 D(13,16,19,23)   =        -3.071985	    -176.011759
	 D(13,16,19,24)   =         1.118121	      64.063607
	 D(14,10,13,16)   =         0.971081	      55.638826
	 D(14,10,13,17)   =        -1.171125	     -67.100506
	 D(14,10,13,18)   =         3.088311	     176.947206
	 D(15,10,13,16)   =        -1.048239	     -60.059672
	 D(15,10,13,17)   =         3.092741	     177.200995
	 D(15,10,13,18)   =         1.068992	      61.248707
	 D(17,13,16,19)   =         0.959139	      54.954634
	 D(17,13,16,20)   =        -1.161391	     -66.542831
	 D(17,13,16,21)   =         3.110363	     178.210692
	 D(18,13,16,19)   =         2.968549	     170.085341
	 D(18,13,16,20)   =         0.848018	      48.587877
	 D(18,13,16,21)   =        -1.163412	     -66.658601
	 D(20,16,19,22)   =         1.133254	      64.930665
	 D(20,16,19,23)   =        -0.952575	     -54.578539
	 D(20,16,19,24)   =        -3.045655	    -174.503173
	 D(21,16,19,22)   =        -3.135947	    -179.676529
	 D(21,16,19,23)   =         1.061409	      60.814267
	 D(21,16,19,24)   =        -1.031671	     -59.110366

	Current energy   :      -349.2457106129

	Energy change for the previous step:
		Projected    :        -0.0000011959
		Actual       :        -0.0000008246

	Performing BFGS update.
	Previous computed or guess Hessian on step 1.
	Steps to be used in Hessian update: 7 6
	Taking RFO optimization step.
	Going to follow RFO solution 1.
	Using RFO vector 1.
	Norm of target step-size    0.01509
	Projected energy change by RFO approximation:        -0.0000000561

	Back-transformation to cartesian coordinates...
	Successfully converged to displaced geometry.

	Back-transformation to cartesian coordinates to adjust frozen coordinates...
	Successfully converged to displaced geometry.

	--- Internal Coordinate Step in ANG or DEG, aJ/ANG or AJ/DEG ---
	 ---------------------------------------------------------------------------
	   Coordinate                Previous        Force       Change         New 
	   ----------                --------       ------       ------       ------
	    1 R(1,2)          =      0.947284    -0.000081    -0.000006     0.947278
	    2 R(2,3)          =      1.404967    -0.000131    -0.000011     1.404956
	    3 R(3,4)          =      1.525407    -0.000093    -0.000027     1.525380
	    4 R(3,5)          =      1.083079    -0.000052    -0.000004     1.083075
	    5 R(3,6)          =      1.088616     0.000042     0.000002     1.088618
	    6 R(4,7)          =      1.531243    -0.000056    -0.000021     1.531222
	    7 R(4,8)          =      1.090905    -0.000074    -0.000010     1.090895
	    8 R(4,9)          =      1.086814     0.000081     0.000015     1.086829
	    9 R(7,10)         =      1.533557    -0.000098    -0.000029     1.533528
	   10 R(7,11)         =      1.084955     0.000090     0.000015     1.084970
	   11 R(7,12)         =      1.088771     0.000018     0.000009     1.088780
	   12 R(10,13)        =      1.531999    -0.000172    -0.000029     1.531970
	   13 R(10,14)        =      1.086108    -0.000003    -0.000008     1.086100
	   14 R(10,15)        =      1.089570     0.000049     0.000016     1.089585
	   15 R(13,16)        =      1.534030    -0.000169    -0.000003     1.534027
	   16 R(13,17)        =      1.089627     0.000066     0.000015     1.089643
	   17 R(13,18)        =      1.086347    -0.000019    -0.000006     1.086342
	   18 R(16,19)        =      1.529883    -0.000015     0.000020     1.529903
	   19 R(16,20)        =      1.087326    -0.000049    -0.000012     1.087315
	   20 R(16,21)        =      1.088280     0.000060     0.000016     1.088295
	   21 R(19,22)        =      1.086718     0.000038     0.000011     1.086729
	   22 R(19,23)        =      1.085763    -0.000028    -0.000003     1.085760
	   23 R(19,24)        =      1.084731     0.000003    -0.000009     1.084722
	   24 B(1,2,3)        =    109.265457    -0.000001    -0.003850   109.261607
	   25 B(2,3,4)        =    113.193215    -0.000001    -0.000525   113.192690
	   26 B(2,3,5)        =    105.737433    -0.000001    -0.011030   105.726403
	   27 B(2,3,6)        =    110.328406     0.000001     0.011632   110.340038
	   28 B(3,4,7)        =    113.008497    -0.000001    -0.004292   113.004204
	   29 B(3,4,8)        =    108.915317    -0.000000    -0.007140   108.908177
	   30 B(3,4,9)        =    107.944492     0.000001     0.006708   107.951200
	   31 B(4,3,5)        =    110.161010     0.000000    -0.005440   110.155570
	   32 B(4,3,6)        =    109.897121     0.000001     0.003625   109.900746
	   33 B(4,7,10)       =    114.870475    -0.000000    -0.002689   114.867785
	   34 B(4,7,11)       =    107.953824     0.000000     0.001146   107.954970
	   35 B(4,7,12)       =    109.003870    -0.000000     0.000780   109.004651
	   36 B(5,3,6)        =    107.290813    -0.000000     0.001242   107.292055
	   37 B(7,4,8)        =    109.694458    -0.000000    -0.004879   109.689579
	   38 B(7,4,9)        =    110.762994     0.000001     0.008518   110.771513
	   39 B(7,10,13)      =    114.883339    -0.000002    -0.007649   114.875690
	   40 B(7,10,14)      =    107.913292     0.000001    -0.001892   107.911401
	   41 B(7,10,15)      =    109.047542     0.000001     0.000532   109.048074
	   42 B(8,4,9)        =    106.269673    -0.000000     0.001353   106.271026
	   43 B(10,7,11)      =    108.600131    -0.000001    -0.005080   108.595051
	   44 B(10,7,12)      =    109.462422     0.000001     0.003077   109.465498
	   45 B(10,13,16)     =    114.340682    -0.000000     0.004703   114.345385
	   46 B(10,13,17)     =    109.416538    -0.000000    -0.003392   109.413146
	   47 B(10,13,18)     =    109.305712     0.000001     0.003928   109.309641
	   48 B(11,7,12)      =    106.626046     0.000000     0.003145   106.629191
	   49 B(13,10,14)     =    109.724117     0.000000    -0.004021   109.720097
	   50 B(13,10,15)     =    108.788249     0.000001     0.010941   108.799190
	   51 B(13,16,19)     =    114.686888     0.000001     0.009328   114.696216
	   52 B(13,16,20)     =    108.438821    -0.000001    -0.011388   108.427433
	   53 B(13,16,21)     =    109.268813     0.000000     0.002084   109.270898
	   54 B(14,10,15)     =    106.125760    -0.000000     0.002771   106.128531
	   55 B(16,13,17)     =    109.129527     0.000000     0.002168   109.131694
	   56 B(16,13,18)     =    108.093348    -0.000001    -0.007011   108.086337
	   57 B(16,19,22)     =    110.992836     0.000001     0.008493   111.001329
	   58 B(16,19,23)     =    110.741281    -0.000001    -0.000334   110.740947
	   59 B(16,19,24)     =    112.130524    -0.000001    -0.006244   112.124280
	   60 B(17,13,18)     =    106.237490     0.000000    -0.000794   106.236696
	   61 B(19,16,20)     =    108.556340     0.000001     0.004102   108.560442
	   62 B(19,16,21)     =    109.421898    -0.000001    -0.004208   109.417690
	   63 B(20,16,21)     =    106.115461     0.000000    -0.000694   106.114767
	   64 B(22,19,23)     =    107.649352    -0.000000    -0.001282   107.648070
	   65 B(22,19,24)     =    107.748641    -0.000000     0.000159   107.748801
	   66 B(23,19,24)     =    107.382217     0.000000    -0.000906   107.381311
	   67 D(1,2,3,4)      =    -64.990559    -0.000000    -0.006138   -64.996697
	   68 D(1,2,3,5)      =    174.325419     0.000000     0.008216   174.333635
	   69 D(1,2,3,6)      =     58.622534     0.000000     0.007078    58.629612
	   70 D(2,3,4,7)      =    -61.607715     0.000000     0.164101   -61.443614
	   71 D(2,3,4,8)      =     60.570074     0.000000     0.149865    60.719939
	   72 D(2,3,4,9)      =    175.547994     0.000000     0.151313   175.699306
	   73 D(3,4,7,10)     =    172.151012    -0.000000    -0.063608   172.087404
	   74 D(3,4,7,11)     =     50.834366    -0.000000    -0.056148    50.778218
	   75 D(3,4,7,12)     =    -64.614439    -0.000000    -0.060880   -64.675319
	   76 D(4,7,10,13)    =     59.037411     0.000000     0.004096    59.041507
	   77 D(4,7,10,14)    =   -178.216704    -0.000000    -0.007773  -178.224477
	   78 D(4,7,10,15)    =    -63.356380     0.000000    -0.005239   -63.361620
	   79 D(5,3,4,7)      =     56.533659     0.000000     0.146100    56.679759
	   80 D(5,3,4,8)      =    178.711449    -0.000000     0.131863   178.843312
	   81 D(5,3,4,9)      =    -66.310632    -0.000000     0.133311   -66.177321
	   82 D(6,3,4,7)      =    174.542656     0.000000     0.146534   174.689190
	   83 D(6,3,4,8)      =    -63.279554    -0.000000     0.132298   -63.147257
	   84 D(6,3,4,9)      =     51.698365    -0.000000     0.133746    51.832110
	   85 D(7,10,13,16)   =    177.406848     0.000000     0.156066   177.562914
	   86 D(7,10,13,17)   =     54.667516     0.000000     0.152487    54.820003
	   87 D(7,10,13,18)   =    -61.284772    -0.000000     0.153133   -61.131639
	   88 D(8,4,7,10)     =     50.410695     0.000000    -0.047994    50.362701
	   89 D(8,4,7,11)     =    -70.905951     0.000000    -0.040534   -70.946485
	   90 D(8,4,7,12)     =    173.645244     0.000000    -0.045267   173.599977
	   91 D(9,4,7,10)     =    -66.585940    -0.000000    -0.051751   -66.637691
	   92 D(9,4,7,11)     =    172.097414     0.000000    -0.044291   172.053123
	   93 D(9,4,7,12)     =     56.648609     0.000000    -0.049024    56.599585
	   94 D(10,13,16,19)  =    -67.940322     0.000000     0.141401   -67.798922
	   95 D(10,13,16,20)  =    170.562213     0.000000     0.138301   170.700514
	   96 D(10,13,16,21)  =     55.315736     0.000000     0.144204    55.459939
	   97 *D(11,7,10,13)  =    180.000000     0.000000     0.000000   180.000000
	   98 D(11,7,10,14)   =    -57.253356    -0.000000    -0.011868   -57.265225
	   99 D(11,7,10,15)   =     57.606968    -0.000000    -0.009335    57.597633
	  100 D(12,7,10,13)   =    -63.951836     0.000000     0.002604   -63.949232
	  101 D(12,7,10,14)   =     58.794048    -0.000000    -0.009265    58.784783
	  102 D(12,7,10,15)   =    173.654372     0.000000    -0.006731   173.647641
	  103 D(13,16,19,22)  =    -56.502555     0.000000     0.125151   -56.377404
	  104 D(13,16,19,23)  =   -176.011759     0.000000     0.121437  -175.890322
	  105 D(13,16,19,24)  =     64.063607     0.000000     0.127008    64.190615
	  106 D(14,10,13,16)  =     55.638826     0.000000     0.167051    55.805878
	  107 D(14,10,13,17)  =    -67.100506     0.000000     0.163473   -66.937033
	  108 D(14,10,13,18)  =    176.947206     0.000000     0.164119   177.111325
	  109 D(15,10,13,16)  =    -60.059672     0.000000     0.159803   -59.899869
	  110 D(15,10,13,17)  =    177.200995    -0.000000     0.156225   177.357220
	  111 D(15,10,13,18)  =     61.248707    -0.000000     0.156871    61.405579
	  112 D(17,13,16,19)  =     54.954634     0.000000     0.141948    55.096582
	  113 D(17,13,16,20)  =    -66.542831     0.000000     0.138848   -66.403983
	  114 D(17,13,16,21)  =    178.210692     0.000000     0.144751   178.355442
	  115 D(18,13,16,19)  =    170.085341     0.000000     0.138384   170.223726
	  116 D(18,13,16,20)  =     48.587877    -0.000000     0.135285    48.723161
	  117 D(18,13,16,21)  =    -66.658601     0.000000     0.141187   -66.517414
	  118 D(20,16,19,22)  =     64.930665    -0.000000     0.119795    65.050459
	  119 D(20,16,19,23)  =    -54.578539    -0.000000     0.116081   -54.462459
	  120 D(20,16,19,24)  =   -174.503173    -0.000000     0.121652  -174.381521
	  121 D(21,16,19,22)  =   -179.676529     0.000000     0.118956  -179.557572
	  122 D(21,16,19,23)  =     60.814267     0.000000     0.115242    60.929510
	  123 D(21,16,19,24)  =    -59.110366     0.000000     0.120813   -58.989553
	 ---------------------------------------------------------------------------

  ==> Convergence Check <==

  Measures of convergence in internal coordinates in au.
  Criteria marked as inactive (o), active & met (*), and active & unmet ( ).
  ---------------------------------------------------------------------------------------------
   Step     Total Energy     Delta E     MAX Force     RMS Force      MAX Disp      RMS Disp   
  ---------------------------------------------------------------------------------------------
    Convergence Criteria    1.00e-06 *    3.00e-04 *             o    1.20e-03 *             o
  ---------------------------------------------------------------------------------------------
      8    -349.24571061   -8.25e-07 *    3.28e-05 *    8.72e-06 o    2.92e-03      1.36e-03 o  ~
  ---------------------------------------------------------------------------------------------


  **** Optimization is complete! (in 8 steps) ****

  ==> Optimization Summary <==

  Measures of convergence in internal coordinates in au.
  --------------------------------------------------------------------------------------------------------------- ~
   Step         Total Energy             Delta E       MAX Force       RMS Force        MAX Disp        RMS Disp  ~
  --------------------------------------------------------------------------------------------------------------- ~
      1    -349.244323606632   -349.244323606632      0.01490566      0.00248692      0.13940591      0.04012953  ~
      2    -349.244924192345     -0.000600585713      0.00846412      0.00164697      0.03647466      0.01127037  ~
      3    -349.245665527923     -0.000741335578      0.00176027      0.00030373      0.07086652      0.01959046  ~
      4    -349.245667734580     -0.000002206657      0.00100963      0.00019883      0.03037305      0.00845351  ~
      5    -349.245697384742     -0.000029650162      0.00058747      0.00014331      0.00823851      0.00211331  ~
      6    -349.245707798137     -0.000010413396      0.00008192      0.00001741      0.00684790      0.00211331  ~
      7    -349.245709788386     -0.000001990249      0.00002591      0.00000887      0.00694053      0.00211329  ~
      8    -349.245710612939     -0.000000824553      0.00003281      0.00000872      0.00291560      0.00136069  ~
  --------------------------------------------------------------------------------------------------------------- ~

	Writing optimization data to binary file.
	Final energy is   -349.2457106129390
	Final (previous) structure:
	Cartesian Geometry (in Angstrom)
	    H    -3.1429535912   1.3944431222  -1.8499208546
	    O    -3.1660330988   0.4474635769  -1.8564953559
	    C    -2.9996655054  -0.0294044152  -0.5454453627
	    C    -1.6298668636   0.2946081284   0.0423760695
	    H    -3.1367068534  -1.1022109588  -0.6034604942
	    H    -3.7825766818   0.3622706703   0.1016444221
	    C    -0.4770884650  -0.3385740001  -0.7417717211
	    H    -1.5042470489   1.3778982356   0.0702245421
	    H    -1.6217263293  -0.0395414744   1.0765148972
	    C     0.9229447865   0.1096341885  -0.3049511205
	    H    -0.6088994443  -0.0897405485  -1.7895476749
	    H    -0.5507448004  -1.4222950865  -0.6672981392
	    C     1.2626044803  -0.1749889032   1.1615553150
	    H     1.6467859279  -0.3793022918  -0.9504170804
	    H     1.0274288234   1.1785757216  -0.4882790722
	    C     2.6875062334   0.2211831607   1.5689259885
	    H     1.1134020428  -1.2342435363   1.3689348236
	    H     0.5674051478   0.3607430676   1.8017427116
	    C     3.7926679758  -0.6203499423   0.9278478188
	    H     2.7719468205   0.1377714403   2.6497548014
	    H     2.8495214490   1.2712481936   1.3334119900
	    H     3.6521575635  -1.6763122780   1.1426882419
	    H     4.7666627718  -0.3329957197   1.3120919994
	    H     3.8221615891  -0.5032949256  -0.1501452734
	Saving final (previous) structure.
			--------------------------
			 OPTKING Finished Execution 
			--------------------------

    Final optimized geometry and variables:
    Molecular point group: c1
    Full point group: C1

    Geometry (in Angstrom), charge = 0, multiplicity = 1:

    H           -3.142953351182     1.394443015708    -1.849920713292
    O           -3.166032857010     0.447463542686    -1.856495214135
    C           -2.999665276349    -0.029404412942    -0.545445321096
    C           -1.629866739167     0.294608105917     0.042376066247
    H           -3.136706613820    -1.102210874620    -0.603460448114
    H           -3.782576392971     0.362270642598     0.101644414343
    C           -0.477088428551    -0.338573974210    -0.741771664413
    H           -1.504246934024     1.377898130359     0.070224536689
    H           -1.621726205439    -0.039541471395     1.076514815013
    C            0.922944716010     0.109634180102    -0.304951097197
    H           -0.608899397759    -0.089740541613    -1.789547538204
    H           -0.550744758338    -1.422294977938    -0.667298088279
    C            1.262604383862    -0.174988889835     1.161555226285
    H            1.646785802180    -0.379302262884    -0.950417007832
    H            1.027428744969     1.178575631593    -0.488279034879
    C            2.687506028144     0.221183143798     1.568925868738
    H            1.113401957759    -1.234243442003     1.368934719105
    H            0.567405104451     0.360743040067     1.801742573979
    C            3.792667686158    -0.620349894924     0.927847747910
    H            2.771946608793     0.137771429778     2.649754599031
    H            2.849521231368     1.271248096510     1.333411888162
    H            3.652157284657    -1.676312149943     1.142688154592
    H            4.766662407763    -0.332995694240     1.312091899231
    H            3.822161297181    -0.503294887209    -0.150145261903

	Cleaning optimization helper files.


Properties will be evaluated at   0.000000,   0.000000,   0.000000 Bohr

Properties computed using the  density matrix

  Nuclear Dipole Moment: (a.u.)
     X:     7.3623      Y:    -0.6513      Z:     4.0765

  Electronic Dipole Moment: (a.u.)
     X:    -7.2398      Y:     1.0643      Z:    -3.5273

  Dipole Moment: (a.u.)
     X:     0.1225      Y:     0.4130      Z:     0.5492     Total:     0.6980

  Dipole Moment: (Debye)
     X:     0.3115      Y:     1.0498      Z:     1.3959     Total:     1.7742

  Quadrupole Moment: (Debye Ang)
    XX:   -56.5386     YY:   -49.9868     ZZ:   -57.7514
    XY:    -3.2630     XZ:    -5.0412     YZ:    -2.3054

  Traceless Quadrupole Moment: (Debye Ang)
    XX:    -1.7796     YY:     4.7721     ZZ:    -2.9925
    XY:    -3.2630     XZ:    -5.0412     YZ:    -2.3054

  Mulliken Charges: (a.u.)
   Center  Symbol    Alpha    Beta     Spin     Total
       1     H     0.28334  0.28334  0.00000  0.43332
       2     O     4.36837  4.36837  0.00000 -0.73674
       3     C     2.99615  2.99615  0.00000  0.00770
       4     C     3.17113  3.17113  0.00000 -0.34227
       5     H     0.41628  0.41628  0.00000  0.16744
       6     H     0.42802  0.42802  0.00000  0.14397
       7     C     3.15428  3.15428  0.00000 -0.30857
       8     H     0.42898  0.42898  0.00000  0.14204
       9     H     0.42015  0.42015  0.00000  0.15969
      10     C     3.15501  3.15501  0.00000 -0.31001
      11     H     0.40876  0.40876  0.00000  0.18248
      12     H     0.42386  0.42386  0.00000  0.15228
      13     C     3.15482  3.15482  0.00000 -0.30963
      14     H     0.41886  0.41886  0.00000  0.16228
      15     H     0.42592  0.42592  0.00000  0.14817
      16     C     3.15207  3.15207  0.00000 -0.30414
      17     H     0.42517  0.42517  0.00000  0.14965
      18     H     0.42114  0.42114  0.00000  0.15773
      19     C     3.24098  3.24098  0.00000 -0.48197
      20     H     0.42140  0.42140  0.00000  0.15720
      21     H     0.42373  0.42373  0.00000  0.15255
      22     H     0.42221  0.42221  0.00000  0.15557
      23     H     0.41948  0.41948  0.00000  0.16103
      24     H     0.41989  0.41989  0.00000  0.16022

   Total alpha = 33.00000, Total beta = 33.00000, Total charge =  0.00000


*** PSI4 exiting successfully. Buy a developer a beer!
