    -----------------------------------------------------------------------
          Psi4: An Open-Source Ab Initio Electronic Structure Package
                              Psi4 1.0.54 Driver

                          Git: Rev {master} 8d4cec3 dirty

    J. M. Turney, A. C. Simmonett, R. M. Parrish, E. G. Hohenstein,
    F. A. Evangelista, J. T. Fermann, B. J. Mintz, L. A. Burns, J. J. Wilke,
    M. L. Abrams, N. J. Russ, M. L. Leininger, C. L. Janssen, E. T. Seidl,
    W. D. Allen, H. F. Schaefer, R. A. King, E. F. Valeev, C. D. Sherrill,
    and T. D. Crawford, WIREs Comput. Mol. Sci. 2, 556-565 (2012)
    (doi: 10.1002/wcms.93)

                         Additional Contributions by
    A. E. DePrince, U. Bozkaya, A. Yu. Sokolov, D. G. A. Smith, R. Di Remigio,
    R. M. Richard, J. F. Gonthier, H. R. McAlexander, M. Saitow, and
    B. P. Pritchard
    -----------------------------------------------------------------------


    Psi4 started on: Sat Sep 10 16:50:41 2016

    Process ID:  33378
    PSI4DATADIR: /export131/home/mjharvey/miniconda3/share/psi4
    Memory level set to 256.000 MB

  ==> Input File <==

--------------------------------------------------------------------------
set {
	reference rhf
	basis cc-pvtz
}


set_num_threads( 4 )
memory 2 gb

molecule MOL {
0 1

O	 0.876308	 1.842498	 -0.473877
C	 0.136129	 1.684621	 -1.383970
C	 -1.131502	 0.870107	 -1.350193
O	 0.333130	 2.217784	 -2.578669
C	 -1.413045	 0.229353	 0.001137
H	 -1.942138	 1.525844	 -1.650790
H	 -1.052469	 0.121215	 -2.131459
C	 -2.702562	 -0.586401	 0.000228
H	 -1.467975	 1.002276	 0.759499
H	 -0.577880	 -0.404146	 0.278128
C	 -3.953810	 0.284959	 -0.000782
H	 -2.717793	 -1.238567	 -0.869075
H	 -2.719108	 -1.238472	 0.869576
H	 -3.983727	 0.924403	 -0.876454
H	 -4.852989	 -0.320147	 -0.001515
H	 -3.985140	 0.924399	 0.874841
C	 1.490248	 3.010299	 -2.752786
H	 1.477519	 3.856345	 -2.081764
H	 1.469108	 3.346974	 -3.776539
H	 2.381732	 2.428902	 -2.569871

	symmetry c1
}
set optking {
	frozen_dihedral = ("
		9 5 8 12
	")
}

ee,wfn = optimize('scf', return_wfn=True)
oeprop( wfn, 'DIPOLE', 'QUADRUPOLE', 'MULLIKEN_CHARGES')
f=open( 'psi4out.xyz', 'w' )
f.write( "20  " )
f.write( str(ee) + "\n" )
f.write( MOL.save_string_xyz() )
f.close()
--------------------------------------------------------------------------

  Memory set to   2.000 GiB by Python script.
gradient() will perform analytic gradient computation.

*** tstart() called on cx1-27-2-2
*** at Sat Sep 10 16:50:42 2016


         ---------------------------------------------------------
                                   SCF
            by Justin Turney, Rob Parrish, and Andy Simmonett
                              RHF Reference
                        4 Threads,   2000 MiB Core
         ---------------------------------------------------------

  ==> Geometry <==

    Molecular point group: c1
    Full point group: C1

    Geometry (in Angstrom), charge = 0, multiplicity = 1:

       Center              X                  Y                   Z               Mass       
    ------------   -----------------  -----------------  -----------------  -----------------
           O          1.648691255592     0.620331324620     0.610895828144    15.994914619560
           C          0.908512255592     0.462454324620    -0.299197171856    12.000000000000
           C         -0.359118744408    -0.352059675380    -0.265420171856    12.000000000000
           O          1.105513255592     0.995617324620    -1.493896171856    15.994914619560
           C         -0.640661744408    -0.992813675380     1.085909828144    12.000000000000
           H         -1.169754744408     0.303677324620    -0.566017171856     1.007825032070
           H         -0.280085744408    -1.100951675380    -1.046686171856     1.007825032070
           C         -1.930178744408    -1.808567675380     1.085000828144    12.000000000000
           H         -0.695591744408    -0.219890675380     1.844271828144     1.007825032070
           H          0.194503255592    -1.626312675380     1.362900828144     1.007825032070
           C         -3.181426744408    -0.937207675380     1.083990828144    12.000000000000
           H         -1.945409744408    -2.460733675380     0.215697828144     1.007825032070
           H         -1.946724744408    -2.460638675380     1.954348828144     1.007825032070
           H         -3.211343744408    -0.297763675380     0.208318828144     1.007825032070
           H         -4.080605744408    -1.542313675380     1.083257828144     1.007825032070
           H         -3.212756744408    -0.297767675380     1.959613828144     1.007825032070
           C          2.262631255592     1.788132324620    -1.668013171856    12.000000000000
           H          2.249902255592     2.634178324620    -0.996991171856     1.007825032070
           H          2.241491255592     2.124807324620    -2.691766171856     1.007825032070
           H          3.154115255592     1.206735324620    -1.485098171856     1.007825032070

  Running in c1 symmetry.

  Rotational constants: A =      0.19359  B =      0.02753  C =      0.02568 [cm^-1]
  Rotational constants: A =   5803.53625  B =    825.44669  C =    769.94259 [MHz]
  Nuclear repulsion =  385.931029528437477

  Charge       = 0
  Multiplicity = 1
  Electrons    = 64
  Nalpha       = 32
  Nbeta        = 32

  ==> Algorithm <==

  SCF Algorithm Type is DF.
  DIIS enabled.
  MOM disabled.
  Fractional occupation disabled.
  Guess Type is SAD.
  Energy threshold   = 1.00e-08
  Density threshold  = 1.00e-08
  Integral threshold = 0.00e+00

  ==> Primary Basis <==

  Basis Set: CC-PVTZ
    Number of shells: 152
    Number of basis function: 408
    Number of Cartesian functions: 460
    Spherical Harmonics?: true
    Max angular momentum: 3

  ==> Pre-Iterations <==

   -------------------------------------------------------
    Irrep   Nso     Nmo     Nalpha   Nbeta   Ndocc  Nsocc
   -------------------------------------------------------
     A        408     408       0       0       0       0
   -------------------------------------------------------
    Total     408     408      32      32      32       0
   -------------------------------------------------------

  ==> Integral Setup <==

  ==> DFJK: Density-Fitted J/K Matrices <==

    J tasked:                  Yes
    K tasked:                  Yes
    wK tasked:                  No
    OpenMP threads:              4
    Integrals threads:           4
    Memory (MB):              1430
    Algorithm:                Core
    Integral Cache:           NONE
    Schwarz Cutoff:          1E-12
    Fitting Condition:       1E-12

   => Auxiliary Basis Set <=

  Basis Set: 
    Number of shells: 320
    Number of basis function: 992
    Number of Cartesian functions: 1188
    Spherical Harmonics?: true
    Max angular momentum: 4

  Minimum eigenvalue in the overlap matrix is 2.2560785369E-04.
  Using Symmetric Orthogonalization.
  SCF Guess: Superposition of Atomic Densities via on-the-fly atomic UHF.

  ==> Iterations <==

                           Total Energy        Delta E     RMS |[F,P]|

   @DF-RHF iter   0:  -387.52792292701889   -3.87528e+02   1.37630e-02 
   @DF-RHF iter   1:  -383.82403042348227    3.70389e+00   1.67151e-03 
   @DF-RHF iter   2:  -384.01352093619022   -1.89491e-01   9.82450e-04 DIIS
   @DF-RHF iter   3:  -384.07270570193640   -5.91848e-02   2.74458e-04 DIIS
   @DF-RHF iter   4:  -384.08013369595375   -7.42799e-03   8.47948e-05 DIIS
   @DF-RHF iter   5:  -384.08094097599741   -8.07280e-04   2.38910e-05 DIIS
   @DF-RHF iter   6:  -384.08104594601963   -1.04970e-04   1.00190e-05 DIIS
   @DF-RHF iter   7:  -384.08106319213942   -1.72461e-05   3.62568e-06 DIIS
   @DF-RHF iter   8:  -384.08106712078001   -3.92864e-06   1.46524e-06 DIIS
   @DF-RHF iter   9:  -384.08106796612157   -8.45342e-07   5.28278e-07 DIIS
   @DF-RHF iter  10:  -384.08106806753887   -1.01417e-07   1.61924e-07 DIIS
   @DF-RHF iter  11:  -384.08106807511621   -7.57734e-09   4.71919e-08 DIIS
   @DF-RHF iter  12:  -384.08106807569169   -5.75483e-10   1.46117e-08 DIIS
   @DF-RHF iter  13:  -384.08106807574239   -5.07043e-11   4.78177e-09 DIIS

  ==> Post-Iterations <==

    Orbital Energies (a.u.)
    -----------------------

    Doubly Occupied:                                                      

       1A    -20.596372     2A    -20.534121     3A    -11.364610  
       4A    -11.278523     5A    -11.233571     6A    -11.218247  
       7A    -11.217010     8A    -11.210330     9A     -1.472245  
      10A     -1.365797    11A     -1.091789    12A     -1.023791  
      13A     -0.968447    14A     -0.893746    15A     -0.801346  
      16A     -0.767287    17A     -0.704333    18A     -0.685927  
      19A     -0.676334    20A     -0.634364    21A     -0.613851  
      22A     -0.596252    23A     -0.571330    24A     -0.549214  
      25A     -0.533225    26A     -0.524464    27A     -0.511171  
      28A     -0.475409    29A     -0.475059    30A     -0.466862  
      31A     -0.459004    32A     -0.440795  

    Virtual:                                                              

      33A      0.137536    34A      0.153286    35A      0.165373  
      36A      0.171785    37A      0.185823    38A      0.194776  
      39A      0.212191    40A      0.220867    41A      0.222966  
      42A      0.228951    43A      0.240265    44A      0.244957  
      45A      0.262677    46A      0.281165    47A      0.321924  
      48A      0.342721    49A      0.358968    50A      0.374174  
      51A      0.380201    52A      0.383375    53A      0.396876  
      54A      0.400731    55A      0.428139    56A      0.446399  
      57A      0.448836    58A      0.469816    59A      0.481729  
      60A      0.516298    61A      0.542165    62A      0.549115  
      63A      0.566616    64A      0.567543    65A      0.580425  
      66A      0.600093    67A      0.610457    68A      0.615268  
      69A      0.624462    70A      0.626296    71A      0.628559  
      72A      0.633350    73A      0.641098    74A      0.648783  
      75A      0.656231    76A      0.670044    77A      0.676379  
      78A      0.683258    79A      0.698492    80A      0.705440  
      81A      0.712134    82A      0.740351    83A      0.749705  
      84A      0.760386    85A      0.777881    86A      0.815296  
      87A      0.824830    88A      0.825962    89A      0.859617  
      90A      0.868543    91A      0.887550    92A      0.897730  
      93A      0.934750    94A      0.943731    95A      0.959396  
      96A      0.967049    97A      0.997287    98A      1.006036  
      99A      1.038003   100A      1.043115   101A      1.064572  
     102A      1.081971   103A      1.094060   104A      1.113700  
     105A      1.123891   106A      1.132204   107A      1.152644  
     108A      1.176111   109A      1.178173   110A      1.191687  
     111A      1.217787   112A      1.229585   113A      1.235250  
     114A      1.255335   115A      1.260859   116A      1.272512  
     117A      1.292625   118A      1.308261   119A      1.313451  
     120A      1.332958   121A      1.342556   122A      1.348987  
     123A      1.356945   124A      1.367133   125A      1.379801  
     126A      1.393402   127A      1.406071   128A      1.429652  
     129A      1.430880   130A      1.450010   131A      1.465230  
     132A      1.475281   133A      1.489491   134A      1.495574  
     135A      1.509158   136A      1.516758   137A      1.524981  
     138A      1.536891   139A      1.538113   140A      1.561124  
     141A      1.570858   142A      1.596077   143A      1.603885  
     144A      1.615343   145A      1.623626   146A      1.662173  
     147A      1.682519   148A      1.701766   149A      1.717024  
     150A      1.735804   151A      1.760311   152A      1.766635  
     153A      1.810965   154A      1.827464   155A      1.831030  
     156A      1.837141   157A      1.851890   158A      1.859691  
     159A      1.915340   160A      1.942575   161A      1.953374  
     162A      2.006088   163A      2.055810   164A      2.078941  
     165A      2.152668   166A      2.256007   167A      2.303506  
     168A      2.329542   169A      2.341125   170A      2.445919  
     171A      2.471374   172A      2.492485   173A      2.512505  
     174A      2.543007   175A      2.585649   176A      2.600722  
     177A      2.619654   178A      2.651899   179A      2.678933  
     180A      2.697365   181A      2.717495   182A      2.731510  
     183A      2.764322   184A      2.798232   185A      2.809021  
     186A      2.819303   187A      2.838236   188A      2.845890  
     189A      2.872440   190A      2.899440   191A      2.934001  
     192A      2.945391   193A      2.950250   194A      2.962258  
     195A      2.972257   196A      2.994852   197A      3.003724  
     198A      3.027183   199A      3.031522   200A      3.045526  
     201A      3.058294   202A      3.090962   203A      3.113559  
     204A      3.116959   205A      3.130352   206A      3.136346  
     207A      3.147717   208A      3.152650   209A      3.178058  
     210A      3.224881   211A      3.236917   212A      3.259463  
     213A      3.272107   214A      3.283118   215A      3.285105  
     216A      3.291393   217A      3.309777   218A      3.326316  
     219A      3.342015   220A      3.351341   221A      3.357592  
     222A      3.371170   223A      3.382654   224A      3.412758  
     225A      3.416785   226A      3.427861   227A      3.441333  
     228A      3.455010   229A      3.467301   230A      3.470611  
     231A      3.478225   232A      3.486083   233A      3.499248  
     234A      3.507870   235A      3.515582   236A      3.522027  
     237A      3.537687   238A      3.567253   239A      3.600095  
     240A      3.622792   241A      3.625393   242A      3.630829  
     243A      3.642686   244A      3.661580   245A      3.674715  
     246A      3.686651   247A      3.716264   248A      3.737106  
     249A      3.745800   250A      3.750141   251A      3.756771  
     252A      3.763964   253A      3.780801   254A      3.797813  
     255A      3.800016   256A      3.836814   257A      3.849245  
     258A      3.863167   259A      3.870608   260A      3.885587  
     261A      3.905095   262A      3.916377   263A      3.945127  
     264A      3.958434   265A      3.969946   266A      3.989521  
     267A      4.007241   268A      4.032977   269A      4.062084  
     270A      4.081492   271A      4.094216   272A      4.097222  
     273A      4.115508   274A      4.132948   275A      4.142796  
     276A      4.156305   277A      4.160427   278A      4.171459  
     279A      4.186303   280A      4.192042   281A      4.214089  
     282A      4.218638   283A      4.228494   284A      4.241173  
     285A      4.248349   286A      4.280460   287A      4.299344  
     288A      4.304700   289A      4.357932   290A      4.360872  
     291A      4.381313   292A      4.387419   293A      4.395780  
     294A      4.399711   295A      4.414284   296A      4.423018  
     297A      4.451139   298A      4.463910   299A      4.478571  
     300A      4.489506   301A      4.507071   302A      4.509911  
     303A      4.528012   304A      4.549066   305A      4.573987  
     306A      4.605401   307A      4.622042   308A      4.628287  
     309A      4.632132   310A      4.640892   311A      4.663543  
     312A      4.685261   313A      4.694163   314A      4.726256  
     315A      4.743877   316A      4.761230   317A      4.767994  
     318A      4.795280   319A      4.822343   320A      4.896279  
     321A      4.903620   322A      4.935807   323A      4.962003  
     324A      4.991176   325A      5.031493   326A      5.044574  
     327A      5.075281   328A      5.086806   329A      5.094727  
     330A      5.112836   331A      5.137866   332A      5.179047  
     333A      5.198237   334A      5.234247   335A      5.240554  
     336A      5.259772   337A      5.269708   338A      5.316690  
     339A      5.327713   340A      5.343634   341A      5.366808  
     342A      5.375496   343A      5.382124   344A      5.441791  
     345A      5.457664   346A      5.459546   347A      5.495446  
     348A      5.526824   349A      5.555038   350A      5.565655  
     351A      5.570603   352A      5.590899   353A      5.604757  
     354A      5.614785   355A      5.665310   356A      5.666843  
     357A      5.691703   358A      5.739173   359A      5.750258  
     360A      5.759846   361A      5.772284   362A      5.804691  
     363A      5.832549   364A      5.845675   365A      5.873438  
     366A      5.875356   367A      5.901125   368A      5.917778  
     369A      5.925704   370A      5.965682   371A      5.986837  
     372A      6.042084   373A      6.045830   374A      6.102029  
     375A      6.180358   376A      6.187627   377A      6.244052  
     378A      6.299595   379A      6.323345   380A      6.338064  
     381A      6.384276   382A      6.430319   383A      6.463691  
     384A      6.597103   385A      6.611614   386A      6.691955  
     387A      6.843999   388A      6.869493   389A      6.898270  
     390A      6.914410   391A      7.048375   392A      7.248987  
     393A      7.262303   394A      7.373923   395A      7.485238  
     396A      7.500955   397A      7.578309   398A      7.689835  
     399A      7.897337   400A      7.984620   401A      9.978460  
     402A     12.101193   403A     13.148352   404A     13.606104  
     405A     13.987710   406A     14.136279   407A     14.263962  
     408A     14.690676  

    Final Occupation by Irrep:
              A 
    DOCC [    32 ]

  Energy converged.

  @DF-RHF Final Energy:  -384.08106807574239

   => Energetics <=

    Nuclear Repulsion Energy =            385.9310295284374774
    One-Electron Energy =               -1288.1145479202668866
    Two-Electron Energy =                 518.1024503160863333
    DFT Exchange-Correlation Energy =       0.0000000000000000
    Empirical Dispersion Energy =           0.0000000000000000
    PCM Polarization Energy =               0.0000000000000000
    EFP Energy =                            0.0000000000000000
    Total Energy =                       -384.0810680757431328


  Saving occupied orbitals to File 180.

*** tstop() called on cx1-27-2-2 at Sat Sep 10 16:50:56 2016
Module time:
	user time   =      50.27 seconds =       0.84 minutes
	system time =       1.10 seconds =       0.02 minutes
	total time  =         14 seconds =       0.23 minutes
Total time:
	user time   =      50.27 seconds =       0.84 minutes
	system time =       1.10 seconds =       0.02 minutes
	total time  =         14 seconds =       0.23 minutes


Properties will be evaluated at   0.000000,   0.000000,   0.000000 Bohr

Properties computed using the SCF density matrix

  Nuclear Dipole Moment: (a.u.)
     X:    -8.1449      Y:    -3.4955      Z:     1.7224

  Electronic Dipole Moment: (a.u.)
     X:     7.8019      Y:     3.4760      Z:    -2.3496

  Dipole Moment: (a.u.)
     X:    -0.3429      Y:    -0.0195      Z:    -0.6272     Total:     0.7151

  Dipole Moment: (Debye)
     X:    -0.8717      Y:    -0.0495      Z:    -1.5941     Total:     1.8175


*** tstart() called on cx1-27-2-2
*** at Sat Sep 10 16:50:56 2016


         ------------------------------------------------------------
                                   SCF GRAD                          
                          Rob Parrish, Justin Turney,                
                       Andy Simmonett, and Alex Sokolov              
         ------------------------------------------------------------

  ==> Geometry <==

    Molecular point group: c1
    Full point group: C1

    Geometry (in Angstrom), charge = 0, multiplicity = 1:

       Center              X                  Y                   Z               Mass       
    ------------   -----------------  -----------------  -----------------  -----------------
           O          1.648691255592     0.620331324620     0.610895828144    15.994914619560
           C          0.908512255592     0.462454324620    -0.299197171856    12.000000000000
           C         -0.359118744408    -0.352059675380    -0.265420171856    12.000000000000
           O          1.105513255592     0.995617324620    -1.493896171856    15.994914619560
           C         -0.640661744408    -0.992813675380     1.085909828144    12.000000000000
           H         -1.169754744408     0.303677324620    -0.566017171856     1.007825032070
           H         -0.280085744408    -1.100951675380    -1.046686171856     1.007825032070
           C         -1.930178744408    -1.808567675380     1.085000828144    12.000000000000
           H         -0.695591744408    -0.219890675380     1.844271828144     1.007825032070
           H          0.194503255592    -1.626312675380     1.362900828144     1.007825032070
           C         -3.181426744408    -0.937207675380     1.083990828144    12.000000000000
           H         -1.945409744408    -2.460733675380     0.215697828144     1.007825032070
           H         -1.946724744408    -2.460638675380     1.954348828144     1.007825032070
           H         -3.211343744408    -0.297763675380     0.208318828144     1.007825032070
           H         -4.080605744408    -1.542313675380     1.083257828144     1.007825032070
           H         -3.212756744408    -0.297767675380     1.959613828144     1.007825032070
           C          2.262631255592     1.788132324620    -1.668013171856    12.000000000000
           H          2.249902255592     2.634178324620    -0.996991171856     1.007825032070
           H          2.241491255592     2.124807324620    -2.691766171856     1.007825032070
           H          3.154115255592     1.206735324620    -1.485098171856     1.007825032070

  Nuclear repulsion =  385.931029528437477

  ==> Basis Set <==

  Basis Set: CC-PVTZ
    Number of shells: 152
    Number of basis function: 408
    Number of Cartesian functions: 460
    Spherical Harmonics?: true
    Max angular momentum: 3

  ==> DFJKGrad: Density-Fitted SCF Gradients <==

    Gradient:                    1
    J tasked:                  Yes
    K tasked:                  Yes
    wK tasked:                  No
    OpenMP threads:              4
    Integrals threads:           4
    Memory (MB):              1430
    Schwarz Cutoff:          0E+00
    Fitting Condition:       1E-12

   => Auxiliary Basis Set <=

  Basis Set: 
    Number of shells: 320
    Number of basis function: 992
    Number of Cartesian functions: 1188
    Spherical Harmonics?: true
    Max angular momentum: 4


  -Total Gradient:
     Atom            X                  Y                   Z
    ------   -----------------  -----------------  -----------------
       1       -0.000027196707     0.000007806110     0.000036784727
       2        0.000271553380    -0.000128128070    -0.000196685386
       3        0.000129231507    -0.001793752028     0.000422040337
       4       -0.000055148492    -0.000022966552     0.000096721092
       5       -0.002835082200     0.001736021178    -0.000881863640
       6       -0.001921988418     0.000028161768     0.000486086515
       7       -0.000132709005     0.000215380048    -0.000248205857
       8        0.001677742657     0.000247933597    -0.001100248584
       9       -0.000417187475     0.000360974352    -0.000324143193
      10        0.000054077268    -0.000635666831     0.001193733830
      11        0.001661313505     0.000519025290     0.001024381487
      12       -0.000108733021     0.000786987244    -0.000569493671
      13       -0.000233129818    -0.001691289182     0.000667482488
      14        0.001961927378     0.000419055652    -0.000803542181
      15        0.000172960384    -0.000339376006     0.000355176975
      16       -0.000212092310     0.000252131356    -0.000164559144
      17        0.000021341501     0.000038444021     0.000002704891
      18        0.000002609996     0.000002739269    -0.000000893494
      19       -0.000004738284    -0.000003049269     0.000005811388
      20       -0.000004751837    -0.000000431948    -0.000001288583


*** tstop() called on cx1-27-2-2 at Sat Sep 10 16:51:09 2016
Module time:
	user time   =      47.90 seconds =       0.80 minutes
	system time =       0.90 seconds =       0.01 minutes
	total time  =         13 seconds =       0.22 minutes
Total time:
	user time   =      98.28 seconds =       1.64 minutes
	system time =       2.00 seconds =       0.03 minutes
	total time  =         27 seconds =       0.45 minutes

			-----------------------------------------
			 OPTKING 2.0: for geometry optimizations 
			  - R.A. King,  Bethel University        
			-----------------------------------------

	Internal coordinates to be generated automatically.
	Detected frag 1 with atoms:  1 2 3 4 5 6 7 8 9 10 11 12 13 14 15 16 17 18 19 20
	---Fragment 1 Bond Connectivity---
	 1 : 2
	 2 : 1 3 4
	 3 : 2 5 6 7
	 4 : 2 17
	 5 : 3 8 9 10
	 6 : 3
	 7 : 3
	 8 : 5 11 12 13
	 9 : 5
	 10 : 5
	 11 : 8 14 15 16
	 12 : 8
	 13 : 8
	 14 : 11
	 15 : 11
	 16 : 11
	 17 : 4 18 19 20
	 18 : 17
	 19 : 17
	 20 : 17

	Assuming in current code that numbering for constraints corresponds to unified fragment.
	Frozen dihedral atom list: 
	     9     5     8    12
	---Fragment 1 Geometry and Gradient---
	 O           3.1155749508        1.1722563152        1.1544258109
	 C           1.7168393514        0.8739120225       -0.5654007145
	 C          -0.6786360761       -0.6652963689       -0.5015714350
	 O           2.0891172893        1.8814440767       -2.8230546358
	 C          -1.2106752407       -1.8761459475        2.0520721802
	 H          -2.2105161096        0.5738669763       -1.0696174413
	 H          -0.5292853507       -2.0804971520       -1.9779502119
	 C          -3.6475092144       -3.4176975993        2.0503544191
	 H          -1.3144778972       -0.4155331556        3.4851686698
	 H           0.3675578850       -3.0732855629        2.5755093115
	 C          -6.0120252588       -1.7710658361        2.0484457958
	 H          -3.6762916332       -4.6501127324        0.4076098226
	 H          -3.6787766230       -4.6499332085        3.6931840533
	 H          -6.0685601955       -0.5626917988        0.3936655335
	 H          -7.7112273132       -2.9145504575        2.0470606265
	 H          -6.0712303785       -0.5626993577        3.7031334614
	 C           4.2757534128        3.3790803829       -3.1520880809
	 H           4.2516990888        4.9778756187       -1.8840402717
	 H           4.2358046023        4.0153039287       -5.0867008786
	 H           5.9604140246        2.2803992784       -2.8064288253
	            -0.0000271967        0.0000078061        0.0000367847
	             0.0002715534       -0.0001281281       -0.0001966854
	             0.0001292315       -0.0017937520        0.0004220403
	            -0.0000551485       -0.0000229666        0.0000967211
	            -0.0028350822        0.0017360212       -0.0008818636
	            -0.0019219884        0.0000281618        0.0004860865
	            -0.0001327090        0.0002153800       -0.0002482059
	             0.0016777427        0.0002479336       -0.0011002486
	            -0.0004171875        0.0003609744       -0.0003241432
	             0.0000540773       -0.0006356668        0.0011937338
	             0.0016613135        0.0005190253        0.0010243815
	            -0.0001087330        0.0007869872       -0.0005694937
	            -0.0002331298       -0.0016912892        0.0006674825
	             0.0019619274        0.0004190557       -0.0008035422
	             0.0001729604       -0.0003393760        0.0003551770
	            -0.0002120923        0.0002521314       -0.0001645591
	             0.0000213415        0.0000384440        0.0000027049
	             0.0000026100        0.0000027393       -0.0000008935
	            -0.0000047383       -0.0000030493        0.0000058114
	            -0.0000047518       -0.0000004319       -0.0000012886

	Previous optimization step data not found.  Starting new optimization.

	---Fragment 1 Intrafragment Coordinates---
	 - Coordinate -           - BOHR/RAD -       - ANG/DEG -
	 R(1,2)           =         2.236800	       1.183664
	 R(2,3)           =         2.848076	       1.507137
	 R(2,4)           =         2.500143	       1.323018
	 R(3,5)           =         2.875816	       1.521816
	 R(3,6)           =         2.050575	       1.085118
	 R(3,7)           =         2.050559	       1.085109
	 R(4,17)          =         2.670684	       1.413265
	 R(5,8)           =         2.883495	       1.525880
	 R(5,9)           =         2.048885	       1.084223
	 R(5,10)          =         2.048890	       1.084226
	 R(8,11)          =         2.881377	       1.524759
	 R(8,12)          =         2.053846	       1.086849
	 R(8,13)          =         2.053843	       1.086847
	 R(11,14)         =         2.049796	       1.084705
	 R(11,15)         =         2.048132	       1.083825
	 R(11,16)         =         2.049792	       1.084703
	 R(17,18)         =         2.040752	       1.079920
	 R(17,19)         =         2.036935	       1.077899
	 R(17,20)         =         2.040750	       1.079919
	 B(1,2,3)         =         2.190516	     125.507320
	 B(1,2,4)         =         2.150099	     123.191616
	 B(2,3,5)         =         1.985648	     113.769256
	 B(2,3,6)         =         1.870814	     107.189728
	 B(2,3,7)         =         1.870869	     107.192889
	 B(2,4,17)        =         2.047836	     117.332368
	 B(3,2,4)         =         1.942570	     111.301064
	 B(3,5,8)         =         1.961581	     112.390308
	 B(3,5,9)         =         1.907429	     109.287636
	 B(3,5,10)        =         1.907479	     109.290513
	 B(4,17,18)       =         1.931702	     110.678369
	 B(4,17,19)       =         1.850539	     106.028056
	 B(4,17,20)       =         1.931702	     110.678346
	 B(5,3,6)         =         1.941439	     111.236264
	 B(5,3,7)         =         1.941443	     111.236469
	 B(5,8,11)        =         1.969243	     112.829321
	 B(5,8,12)        =         1.910401	     109.457942
	 B(5,8,13)        =         1.910426	     109.459360
	 B(6,3,7)         =         1.846289	     105.784568
	 B(8,5,9)         =         1.916349	     109.798713
	 B(8,5,10)        =         1.916387	     109.800900
	 B(8,11,14)       =         1.939126	     111.103718
	 B(8,11,15)       =         1.940949	     111.208210
	 B(8,11,16)       =         1.939124	     111.103601
	 B(9,5,10)        =         1.851322	     106.072955
	 B(11,8,12)       =         1.908037	     109.322453
	 B(11,8,13)       =         1.908055	     109.323507
	 B(12,8,13)       =         1.854123	     106.233406
	 B(14,11,15)      =         1.881469	     107.800208
	 B(14,11,16)      =         1.879019	     107.659881
	 B(15,11,16)      =         1.881479	     107.800792
	 B(18,17,19)      =         1.923267	     110.195102
	 B(18,17,20)      =         1.903144	     109.042120
	 B(19,17,20)      =         1.923266	     110.195040
	 D(1,2,3,5)       =        -0.000382	      -0.021864
	 D(1,2,3,6)       =         2.153421	     123.381953
	 D(1,2,3,7)       =        -2.154229	    -123.428255
	 D(1,2,4,17)      =         0.000067	       0.003846
	 D(2,3,5,8)       =         3.141159	     179.975152
	 D(2,3,5,9)       =         1.009060	      57.814861
	 D(2,3,5,10)      =        -1.009843	     -57.859739
	 D(2,4,17,18)     =        -1.055917	     -60.499561
	 D(2,4,17,19)     =        -3.141491	    -179.994167
	 D(2,4,17,20)     =         1.056122	      60.511314
	 D(3,2,4,17)      =         3.141571	     179.998777
	 D(3,5,8,11)      =        -1.288755	     -73.840244
	 D(3,5,8,12)      =         0.840025	      48.129865
	 D(3,5,8,13)      =         2.865609	     164.187282
	 D(4,2,3,5)       =         3.141302	     179.983347
	 D(4,2,3,6)       =        -0.988080	     -56.612836
	 D(4,2,3,7)       =         0.987454	      56.576956
	 D(5,8,11,14)     =         1.045662	      59.912022
	 D(5,8,11,15)     =         3.141492	     179.994219
	 D(5,8,11,16)     =        -1.045852	     -59.922924
	 D(6,3,5,8)       =         1.026319	      58.803736
	 D(6,3,5,9)       =        -1.105780	     -63.356555
	 D(6,3,5,10)      =        -3.124683	    -179.031155
	 D(7,3,5,8)       =        -1.027111	     -58.849141
	 D(7,3,5,9)       =         3.123975	     178.990568
	 D(7,3,5,10)      =         1.105072	      63.315968
	 D(9,5,8,11)      =         0.838280	      48.029892
	*D(9,5,8,12)      =         2.967060	     170.000001
	 D(9,5,8,13)      =        -1.290542	     -73.942583
	 D(10,5,8,11)     =         2.867304	     164.284394
	 D(10,5,8,12)     =        -1.287102	     -73.745497
	 D(10,5,8,13)     =         0.738482	      42.311920
	 D(12,8,11,14)    =        -1.084449	     -62.134378
	 D(12,8,11,15)    =         1.011380	      57.947819
	 D(12,8,11,16)    =         3.107221	     178.030676
	 D(13,8,11,14)    =        -3.107367	    -178.039010
	 D(13,8,11,15)    =        -1.011537	     -57.956813
	 D(13,8,11,16)    =         1.084304	      62.126044

	Current energy   :      -384.0810680757

	Generating empirical Hessian (Schlegel '84) for each fragment.
	Taking RFO optimization step.
	Going to follow RFO solution 1.
	Using RFO vector 1.
	Norm of target step-size    0.13590
	Projected energy change by RFO approximation:        -0.0000907304

	Back-transformation to cartesian coordinates...
	Could not converge backtransformation.
	Using first guess instead.

	Back-transformation to cartesian coordinates to adjust frozen coordinates...
	Successfully converged to displaced geometry.

	--- Internal Coordinate Step in ANG or DEG, aJ/ANG or AJ/DEG ---
	 ---------------------------------------------------------------------------
	   Coordinate                Previous        Force       Change         New 
	   ----------                --------       ------       ------       ------
	    1 R(1,2)          =      1.183664    -0.000101     0.000075     1.183739
	    2 R(2,3)          =      1.507137    -0.000952    -0.000028     1.507109
	    3 R(2,4)          =      1.323018     0.000768     0.000264     1.323282
	    4 R(3,5)          =      1.521816     0.012780     0.002761     1.524577
	    5 R(3,6)          =      1.085118    -0.010860    -0.001695     1.083423
	    6 R(3,7)          =      1.085109    -0.000168    -0.000030     1.085079
	    7 R(4,17)         =      1.413265    -0.000265     0.000226     1.413492
	    8 R(5,8)          =      1.525880     0.035109     0.007746     1.533626
	    9 R(5,9)          =      1.084223    -0.000426    -0.000076     1.084148
	   10 R(5,10)         =      1.084226    -0.005916    -0.000960     1.083266
	   11 R(8,11)         =      1.524759     0.020228     0.006433     1.531192
	   12 R(8,12)         =      1.086849     0.000125     0.000033     1.086882
	   13 R(8,13)         =      1.086847    -0.012788    -0.001580     1.085267
	   14 R(11,14)        =      1.084705    -0.006934     0.002442     1.087147
	   15 R(11,15)        =      1.083825    -0.000377     0.002508     1.086333
	   16 R(11,16)        =      1.084703    -0.000181     0.000106     1.084809
	   17 R(17,18)        =      1.079920    -0.000013     0.000039     1.079959
	   18 R(17,19)        =      1.077899     0.000053     0.000132     1.078031
	   19 R(17,20)        =      1.079919     0.000032     0.000229     1.080148
	   20 B(1,2,3)        =    125.507320     0.000004     0.013109   125.520429
	   21 B(1,2,4)        =    123.191616    -0.000002    -0.012484   123.179132
	   22 B(2,3,5)        =    113.769256    -0.000032    -0.160861   113.608395
	   23 B(2,3,6)        =    107.189728    -0.000068    -0.391551   106.798178
	   24 B(2,3,7)        =    107.192889     0.000024    -0.117703   107.075185
	   25 B(2,4,17)       =    117.332368    -0.000000     0.006498   117.338866
	   26 B(3,2,4)        =    111.301064    -0.000002    -0.002553   111.298511
	   27 B(3,5,8)        =    112.390308     0.000321     1.180934   113.571242
	   28 B(3,5,9)        =    109.287636    -0.000123    -0.243624   109.044012
	   29 B(3,5,10)       =    109.290513    -0.000166    -0.931883   108.358630
	   30 B(4,17,18)      =    110.678369    -0.000001    -0.006013   110.672357
	   31 B(4,17,19)      =    106.028056     0.000001     0.010330   106.038385
	   32 B(4,17,20)      =    110.678346     0.000000     0.001304   110.679650
	   33 B(5,3,6)        =    111.236264     0.000112     0.807284   112.043547
	   34 B(5,3,7)        =    111.236469    -0.000031    -0.242979   110.993490
	   35 B(5,8,11)       =    112.829321     0.000481     1.791422   114.620743
	   36 B(5,8,12)       =    109.457942    -0.000097     0.193981   109.651924
	   37 B(5,8,13)       =    109.459360    -0.000182    -1.053651   108.405709
	   38 B(6,3,7)        =    105.784568    -0.000007     0.086942   105.871510
	   39 B(8,5,9)        =    109.798713    -0.000075     0.028537   109.827250
	   40 B(8,5,10)       =    109.800900    -0.000054    -0.133068   109.667832
	   41 B(8,11,14)      =    111.103718     0.000200     1.086234   112.189952
	   42 B(8,11,15)      =    111.208210     0.000003    -0.067160   111.141051
	   43 B(8,11,16)      =    111.103601    -0.000068    -0.373539   110.730062
	   44 B(9,5,10)       =    106.072955     0.000082     0.017881   106.090836
	   45 B(11,8,12)      =    109.322453    -0.000171    -0.136222   109.186231
	   46 B(11,8,13)      =    109.323507    -0.000159    -0.832255   108.491252
	   47 B(12,8,13)      =    106.233406     0.000107    -0.097045   106.136361
	   48 B(14,11,15)     =    107.800208    -0.000113    -0.560979   107.239229
	   49 B(14,11,16)     =    107.659881    -0.000037     0.063805   107.723687
	   50 B(15,11,16)     =    107.800792     0.000007    -0.190707   107.610086
	   51 B(18,17,19)     =    110.195102     0.000000    -0.009691   110.185411
	   52 B(18,17,20)     =    109.042120    -0.000000     0.003352   109.045472
	   53 B(19,17,20)     =    110.195040    -0.000000     0.000652   110.195693
	   54 D(1,2,3,5)      =     -0.021864    -0.000008    -0.321727    -0.343591
	   55 D(1,2,3,6)      =    123.381953     0.000008     0.315833   123.697786
	   56 D(1,2,3,7)      =   -123.428255     0.000001     0.178399  -123.249856
	   57 D(1,2,4,17)     =      0.003846    -0.000000    -0.155640    -0.151794
	   58 D(2,3,5,8)      =    179.975152    -0.000000     1.259202   181.234354
	   59 D(2,3,5,9)      =     57.814861    -0.000008     0.593386    58.408247
	   60 D(2,3,5,10)     =    -57.859739     0.000007     1.213240   -56.646500
	   61 D(2,4,17,18)    =    -60.499561     0.000000    -0.026557   -60.526119
	   62 D(2,4,17,19)    =   -179.994167    -0.000000    -0.017825  -180.011992
	   63 D(2,4,17,20)    =     60.511314    -0.000000    -0.025476    60.485839
	   64 D(3,2,4,17)     =    179.998777     0.000001     0.329611   180.328388
	   65 D(3,5,8,11)     =    -73.840244    -0.000010    -1.750706   -75.590950
	   66 D(3,5,8,12)     =     48.129865    -0.000002    -0.523988    47.605877
	   67 D(3,5,8,13)     =    164.187282    -0.000009    -1.122914   163.064368
	   68 D(4,2,3,5)      =    179.983347    -0.000010    -0.820722   179.162625
	   69 D(4,2,3,6)      =    -56.612836     0.000007    -0.183162   -56.795998
	   70 D(4,2,3,7)      =     56.576956     0.000000    -0.320596    56.256360
	   71 D(5,8,11,14)    =     59.912022     0.000013     2.682468    62.594490
	   72 D(5,8,11,15)    =    179.994219     0.000011     2.659198   182.653417
	   73 D(5,8,11,16)    =    -59.922924     0.000003     2.125719   -57.797206
	   74 D(6,3,5,8)      =     58.803736     0.000006     1.282981    60.086717
	   75 D(6,3,5,9)      =    -63.356555    -0.000001     0.617164   -62.739391
	   76 D(6,3,5,10)     =   -179.031155     0.000013     1.237018  -177.794137
	   77 D(7,3,5,8)      =    -58.849141    -0.000003     0.810337   -58.038804
	   78 D(7,3,5,9)      =    178.990568    -0.000011     0.144521   179.135088
	   79 D(7,3,5,10)     =     63.315968     0.000003     0.764374    64.080342
	   80 D(9,5,8,11)     =     48.029892    -0.000009    -1.226718    46.803174
	   81 *D(9,5,8,12)    =    170.000001    -0.000000    -0.000000   170.000001
	   82 D(9,5,8,13)     =    -73.942583    -0.000007    -0.598925   -74.541508
	   83 D(10,5,8,11)    =    164.284394    -0.000003    -1.265580   163.018815
	   84 D(10,5,8,12)    =    -73.745497     0.000006    -0.038862   -73.784359
	   85 D(10,5,8,13)    =     42.311920    -0.000001    -0.637788    41.674132
	   86 D(12,8,11,14)   =    -62.134378    -0.000005     1.282320   -60.852057
	   87 D(12,8,11,15)   =     57.947819    -0.000007     1.259051    59.206870
	   88 D(12,8,11,16)   =    178.030676    -0.000015     0.725571   178.756247
	   89 D(13,8,11,14)   =   -178.039010     0.000008     1.931286  -176.107723
	   90 D(13,8,11,15)   =    -57.956813     0.000006     1.908016   -56.048796
	   91 D(13,8,11,16)   =     62.126044    -0.000002     1.374537    63.500581
	 ---------------------------------------------------------------------------
	Successfully symmetrized geometry.

  ==> Convergence Check <==

  Measures of convergence in internal coordinates in au.
  Criteria marked as inactive (o), active & met (*), and active & unmet ( ).
  --------------------------------------------------------------------------------------------- ~
   Step     Total Energy     Delta E     MAX Force     RMS Force      MAX Disp      RMS Disp    ~
  --------------------------------------------------------------------------------------------- ~
    Convergence Criteria    1.00e-06 *    3.00e-04 *             o    1.20e-03 *             o  ~
  --------------------------------------------------------------------------------------------- ~
      1    -384.08106808   -3.84e+02      6.31e-03      1.23e-03 o    4.68e-02      1.43e-02 o  ~
  ---------------------------------------------------------------------------------------------

	Writing optimization data to binary file.
	Structure for next step:
	Cartesian Geometry (in Angstrom)
	    O     1.6539756898   0.6278169015   0.6078870566
	    C     0.9181256974   0.4818730881  -0.3077892484
	    C    -0.3598991027  -0.3165822669  -0.2854466735
	    O     1.1357641264   1.0073276516  -1.5026143827
	    C    -0.6520969156  -0.9635961357   1.0637493732
	    H    -1.1530207083   0.3532238990  -0.5954825084
	    H    -0.2814614017  -1.0653779426  -1.0668229513
	    C    -1.9372075735  -1.8004469706   1.0771146275
	    H    -0.7086908614  -0.1906773665   1.8218851148
	    H     0.1918155373  -1.5870947434   1.3330556533
	    C    -3.2308184152  -0.9822897015   1.1188052904
	    H    -1.9562780128  -2.4548821339   0.2095527134
	    H    -1.9133646716  -2.4511703875   1.9453285245
	    H    -3.3491902565  -0.3561398264   0.2380030394
	    H    -4.1018967826  -1.6290957828   1.1734353590
	    H    -3.2477510824  -0.3347716056   1.9890036732
	    C     2.3084623435   1.7787947170  -1.6686742547
	    H     2.3041495654   2.6276051621  -1.0009818294
	    H     2.3031030503   2.1119615514  -2.6939165863
	    H     3.1879808861   1.1824343851  -1.4749704278
			--------------------------
			 OPTKING Finished Execution 
			--------------------------

    Structure for next step:
    Molecular point group: c1
    Full point group: C1

    Geometry (in Angstrom), charge = 0, multiplicity = 1:

    O            1.650637000342     0.621757848780     0.611722149890
    C            0.914787007890     0.475814035334    -0.303954155188
    C           -0.363237792202    -0.322641319643    -0.281611580225
    O            1.132425436912     1.001268598861    -1.498779289429
    C           -0.655435605109    -0.969655188435     1.067584466454
    H           -1.156359397824     0.347164846292    -0.591647415173
    H           -0.284800091177    -1.071436995361    -1.062987858078
    C           -1.940546262966    -1.806506023312     1.080949720747
    H           -0.712029550855    -0.196736419231     1.825720208089
    H            0.188476847771    -1.593153796097     1.336890746509
    C           -3.234157104641    -0.988348754222     1.122640383602
    H           -1.959616702303    -2.460941186649     0.213387806686
    H           -1.916703361138    -2.457229440226     1.949163617707
    H           -3.352528946012    -0.362198879163     0.241838132674
    H           -4.105235472079    -1.635154835516     1.177270452254
    H           -3.251089771889    -0.340830658276     1.992838766449
    C            2.305123653985     1.772735664324    -1.664839161494
    H            2.300810875937     2.621546109342    -0.997146736167
    H            2.299764360820     2.105902498670    -2.690081493037
    H            3.184642196596     1.176375332399    -1.471135334525

gradient() will perform analytic gradient computation.

*** tstart() called on cx1-27-2-2
*** at Sat Sep 10 16:51:10 2016


         ---------------------------------------------------------
                                   SCF
            by Justin Turney, Rob Parrish, and Andy Simmonett
                              RHF Reference
                        4 Threads,   2000 MiB Core
         ---------------------------------------------------------

  ==> Geometry <==

    Molecular point group: c1
    Full point group: C1

    Geometry (in Angstrom), charge = 0, multiplicity = 1:

       Center              X                  Y                   Z               Mass       
    ------------   -----------------  -----------------  -----------------  -----------------
           O          1.650637000342     0.621757848780     0.611722149890    15.994914619560
           C          0.914787007890     0.475814035334    -0.303954155188    12.000000000000
           C         -0.363237792202    -0.322641319643    -0.281611580225    12.000000000000
           O          1.132425436912     1.001268598861    -1.498779289429    15.994914619560
           C         -0.655435605109    -0.969655188435     1.067584466454    12.000000000000
           H         -1.156359397824     0.347164846292    -0.591647415173     1.007825032070
           H         -0.284800091177    -1.071436995361    -1.062987858078     1.007825032070
           C         -1.940546262966    -1.806506023312     1.080949720747    12.000000000000
           H         -0.712029550855    -0.196736419231     1.825720208089     1.007825032070
           H          0.188476847771    -1.593153796097     1.336890746509     1.007825032070
           C         -3.234157104641    -0.988348754222     1.122640383602    12.000000000000
           H         -1.959616702303    -2.460941186649     0.213387806686     1.007825032070
           H         -1.916703361138    -2.457229440226     1.949163617707     1.007825032070
           H         -3.352528946012    -0.362198879163     0.241838132674     1.007825032070
           H         -4.105235472079    -1.635154835516     1.177270452254     1.007825032070
           H         -3.251089771889    -0.340830658276     1.992838766449     1.007825032070
           C          2.305123653985     1.772735664324    -1.664839161494    12.000000000000
           H          2.300810875937     2.621546109342    -0.997146736167     1.007825032070
           H          2.299764360820     2.105902498670    -2.690081493037     1.007825032070
           H          3.184642196596     1.176375332399    -1.471135334525     1.007825032070

  Running in c1 symmetry.

  Rotational constants: A =      0.19761  B =      0.02698  C =      0.02523 [cm^-1]
  Rotational constants: A =   5924.34183  B =    808.87645  C =    756.38920 [MHz]
  Nuclear repulsion =  384.576132003446389

  Charge       = 0
  Multiplicity = 1
  Electrons    = 64
  Nalpha       = 32
  Nbeta        = 32

  ==> Algorithm <==

  SCF Algorithm Type is DF.
  DIIS enabled.
  MOM disabled.
  Fractional occupation disabled.
  Guess Type is READ.
  Energy threshold   = 1.00e-08
  Density threshold  = 1.00e-08
  Integral threshold = 0.00e+00

  ==> Primary Basis <==

  Basis Set: CC-PVTZ
    Number of shells: 152
    Number of basis function: 408
    Number of Cartesian functions: 460
    Spherical Harmonics?: true
    Max angular momentum: 3

  ==> Pre-Iterations <==

   -------------------------------------------------------
    Irrep   Nso     Nmo     Nalpha   Nbeta   Ndocc  Nsocc
   -------------------------------------------------------
     A        408     408       0       0       0       0
   -------------------------------------------------------
    Total     408     408      32      32      32       0
   -------------------------------------------------------

  ==> Integral Setup <==

  ==> DFJK: Density-Fitted J/K Matrices <==

    J tasked:                  Yes
    K tasked:                  Yes
    wK tasked:                  No
    OpenMP threads:              4
    Integrals threads:           4
    Memory (MB):              1430
    Algorithm:                Core
    Integral Cache:           NONE
    Schwarz Cutoff:          1E-12
    Fitting Condition:       1E-12

   => Auxiliary Basis Set <=

  Basis Set: 
    Number of shells: 320
    Number of basis function: 992
    Number of Cartesian functions: 1188
    Spherical Harmonics?: true
    Max angular momentum: 4

  Minimum eigenvalue in the overlap matrix is 2.3279168563E-04.
  Using Symmetric Orthogonalization.
  SCF Guess: Reading in previously saved MOs, projecting if necessary.

  Using orbitals from previous SCF, no projection.
  Recomputing DOCC and SOCC from number of alpha and beta electrons from previous calculation.
              A 
    DOCC [    32 ]

  ==> Iterations <==

                           Total Energy        Delta E     RMS |[F,P]|

   @DF-RHF iter   0:  -384.07220350718950   -3.84072e+02   2.03322e-04 
   @DF-RHF iter   1:  -384.08102489141612   -8.82138e-03   3.66540e-05 
   @DF-RHF iter   2:  -384.08122677387752   -2.01882e-04   1.22786e-05 DIIS
   @DF-RHF iter   3:  -384.08125524766757   -2.84738e-05   4.02876e-06 DIIS
   @DF-RHF iter   4:  -384.08125709086647   -1.84320e-06   1.03507e-06 DIIS
   @DF-RHF iter   5:  -384.08125735365212   -2.62786e-07   4.99852e-07 DIIS
   @DF-RHF iter   6:  -384.08125740924521   -5.55931e-08   2.33847e-07 DIIS
   @DF-RHF iter   7:  -384.08125742886529   -1.96201e-08   9.16645e-08 DIIS
   @DF-RHF iter   8:  -384.08125743151521   -2.64993e-09   3.60866e-08 DIIS
   @DF-RHF iter   9:  -384.08125743177897   -2.63753e-10   9.49938e-09 DIIS

  ==> Post-Iterations <==

    Orbital Energies (a.u.)
    -----------------------

    Doubly Occupied:                                                      

       1A    -20.596394     2A    -20.534187     3A    -11.364703  
       4A    -11.278632     5A    -11.233624     6A    -11.219502  
       7A    -11.218087     8A    -11.211652     9A     -1.472162  
      10A     -1.365790    11A     -1.088657    12A     -1.023369  
      13A     -0.968676    14A     -0.893628    15A     -0.801496  
      16A     -0.767025    17A     -0.703185    18A     -0.685933  
      19A     -0.676137    20A     -0.633406    21A     -0.612453  
      22A     -0.596157    23A     -0.571219    24A     -0.548897  
      25A     -0.532066    26A     -0.524594    27A     -0.510664  
      28A     -0.475677    29A     -0.474036    30A     -0.467544  
      31A     -0.459058    32A     -0.440652  

    Virtual:                                                              

      33A      0.136698    34A      0.153030    35A      0.165569  
      36A      0.172048    37A      0.185540    38A      0.194752  
      39A      0.212174    40A      0.220497    41A      0.222344  
      42A      0.229884    43A      0.238307    44A      0.244680  
      45A      0.261787    46A      0.278687    47A      0.318713  
      48A      0.342024    49A      0.360509    50A      0.374985  
      51A      0.380233    52A      0.384987    53A      0.391323  
      54A      0.401660    55A      0.428499    56A      0.444293  
      57A      0.451402    58A      0.468274    59A      0.480019  
      60A      0.515656    61A      0.539956    62A      0.549452  
      63A      0.565385    64A      0.569724    65A      0.582827  
      66A      0.602200    67A      0.611496    68A      0.616450  
      69A      0.624263    70A      0.625986    71A      0.628493  
      72A      0.633745    73A      0.640338    74A      0.646306  
      75A      0.655658    76A      0.668693    77A      0.676783  
      78A      0.683788    79A      0.695971    80A      0.704301  
      81A      0.710558    82A      0.738489    83A      0.749014  
      84A      0.756870    85A      0.774971    86A      0.813311  
      87A      0.822929    88A      0.828084    89A      0.859113  
      90A      0.868094    91A      0.887808    92A      0.896517  
      93A      0.932815    94A      0.941285    95A      0.955074  
      96A      0.965276    97A      0.998813    98A      1.009678  
      99A      1.031657   100A      1.040555   101A      1.063141  
     102A      1.078795   103A      1.095099   104A      1.104545  
     105A      1.120896   106A      1.133321   107A      1.151827  
     108A      1.172593   109A      1.176365   110A      1.195286  
     111A      1.217257   112A      1.228337   113A      1.233633  
     114A      1.254317   115A      1.262282   116A      1.271460  
     117A      1.289559   118A      1.306430   119A      1.314754  
     120A      1.328350   121A      1.339079   122A      1.348179  
     123A      1.359280   124A      1.370700   125A      1.378170  
     126A      1.394428   127A      1.402158   128A      1.423376  
     129A      1.428447   130A      1.449205   131A      1.464973  
     132A      1.469225   133A      1.487897   134A      1.498923  
     135A      1.507946   136A      1.516848   137A      1.525515  
     138A      1.535025   139A      1.540550   140A      1.554671  
     141A      1.572526   142A      1.595692   143A      1.602858  
     144A      1.612547   145A      1.623614   146A      1.658946  
     147A      1.682219   148A      1.699807   149A      1.717427  
     150A      1.730566   151A      1.745779   152A      1.764744  
     153A      1.810155   154A      1.822510   155A      1.828585  
     156A      1.834465   157A      1.851882   158A      1.854020  
     159A      1.912220   160A      1.934509   161A      1.953181  
     162A      2.006985   163A      2.052741   164A      2.079487  
     165A      2.150792   166A      2.255570   167A      2.302510  
     168A      2.327709   169A      2.339673   170A      2.446549  
     171A      2.470563   172A      2.491604   173A      2.512979  
     174A      2.538662   175A      2.579917   176A      2.601046  
     177A      2.617664   178A      2.644805   179A      2.672999  
     180A      2.695518   181A      2.715900   182A      2.733426  
     183A      2.763475   184A      2.796090   185A      2.801582  
     186A      2.812129   187A      2.829132   188A      2.842418  
     189A      2.872673   190A      2.894904   191A      2.925960  
     192A      2.944380   193A      2.955041   194A      2.964873  
     195A      2.970834   196A      2.994406   197A      2.999476  
     198A      3.027122   199A      3.031133   200A      3.043530  
     201A      3.052703   202A      3.091336   203A      3.112175  
     204A      3.115942   205A      3.127415   206A      3.137392  
     207A      3.147371   208A      3.150794   209A      3.177738  
     210A      3.221096   211A      3.235254   212A      3.260956  
     213A      3.276498   214A      3.278065   215A      3.280554  
     216A      3.284764   217A      3.308594   218A      3.323400  
     219A      3.338839   220A      3.349616   221A      3.358241  
     222A      3.368587   223A      3.374575   224A      3.406941  
     225A      3.415945   226A      3.423586   227A      3.443155  
     228A      3.455701   229A      3.463785   230A      3.472337  
     231A      3.479772   232A      3.483149   233A      3.495014  
     234A      3.498310   235A      3.514545   236A      3.523861  
     237A      3.537609   238A      3.562418   239A      3.598085  
     240A      3.619441   241A      3.624428   242A      3.626672  
     243A      3.638429   244A      3.662900   245A      3.672476  
     246A      3.676985   247A      3.715794   248A      3.738831  
     249A      3.744827   250A      3.750058   251A      3.753672  
     252A      3.763067   253A      3.777983   254A      3.793571  
     255A      3.797244   256A      3.834380   257A      3.847398  
     258A      3.861979   259A      3.870425   260A      3.880907  
     261A      3.898325   262A      3.916967   263A      3.939054  
     264A      3.946825   265A      3.969516   266A      3.982958  
     267A      3.999095   268A      4.029292   269A      4.050116  
     270A      4.074700   271A      4.094495   272A      4.097733  
     273A      4.114973   274A      4.134983   275A      4.139106  
     276A      4.143951   277A      4.160200   278A      4.168830  
     279A      4.184144   280A      4.191314   281A      4.211572  
     282A      4.220300   283A      4.227218   284A      4.232122  
     285A      4.244083   286A      4.283369   287A      4.292988  
     288A      4.297033   289A      4.348023   290A      4.360698  
     291A      4.378376   292A      4.384191   293A      4.392114  
     294A      4.398582   295A      4.412204   296A      4.423598  
     297A      4.443539   298A      4.456124   299A      4.465067  
     300A      4.492469   301A      4.503893   302A      4.508134  
     303A      4.518364   304A      4.544221   305A      4.567027  
     306A      4.604026   307A      4.616262   308A      4.623125  
     309A      4.628945   310A      4.637319   311A      4.660990  
     312A      4.680809   313A      4.694507   314A      4.713148  
     315A      4.741666   316A      4.751200   317A      4.758125  
     318A      4.792874   319A      4.811935   320A      4.890118  
     321A      4.898657   322A      4.924857   323A      4.948941  
     324A      4.986305   325A      5.024525   326A      5.040520  
     327A      5.073213   328A      5.084862   329A      5.092194  
     330A      5.107926   331A      5.135815   332A      5.176226  
     333A      5.192718   334A      5.226402   335A      5.233752  
     336A      5.261486   337A      5.267321   338A      5.314901  
     339A      5.326137   340A      5.338570   341A      5.361712  
     342A      5.367850   343A      5.379555   344A      5.432458  
     345A      5.451449   346A      5.463879   347A      5.494908  
     348A      5.521915   349A      5.550158   350A      5.561271  
     351A      5.565993   352A      5.585471   353A      5.599681  
     354A      5.611535   355A      5.662542   356A      5.665956  
     357A      5.686321   358A      5.732248   359A      5.742911  
     360A      5.753393   361A      5.761593   362A      5.804435  
     363A      5.826948   364A      5.843108   365A      5.867509  
     366A      5.873269   367A      5.902420   368A      5.918997  
     369A      5.924786   370A      5.959674   371A      5.981805  
     372A      6.041429   373A      6.043389   374A      6.093664  
     375A      6.180193   376A      6.187372   377A      6.243548  
     378A      6.301721   379A      6.318345   380A      6.334481  
     381A      6.377581   382A      6.424892   383A      6.461644  
     384A      6.595520   385A      6.610496   386A      6.691001  
     387A      6.842861   388A      6.868503   389A      6.897367  
     390A      6.913730   391A      7.048606   392A      7.248472  
     393A      7.260959   394A      7.373873   395A      7.484936  
     396A      7.500607   397A      7.577765   398A      7.689167  
     399A      7.896226   400A      7.984210   401A      9.973242  
     402A     12.094365   403A     13.120469   404A     13.575000  
     405A     13.943136   406A     14.127906   407A     14.191849  
     408A     14.683701  

    Final Occupation by Irrep:
              A 
    DOCC [    32 ]

  Energy converged.

  @DF-RHF Final Energy:  -384.08125743177897

   => Energetics <=

    Nuclear Repulsion Energy =            384.5761320034463893
    One-Electron Energy =               -1285.4162597703370920
    Two-Electron Energy =                 516.7588703351117374
    DFT Exchange-Correlation Energy =       0.0000000000000000
    Empirical Dispersion Energy =           0.0000000000000000
    PCM Polarization Energy =               0.0000000000000000
    EFP Energy =                            0.0000000000000000
    Total Energy =                       -384.0812574317789085


  Saving occupied orbitals to File 180.

*** tstop() called on cx1-27-2-2 at Sat Sep 10 16:51:21 2016
Module time:
	user time   =      40.42 seconds =       0.67 minutes
	system time =       0.82 seconds =       0.01 minutes
	total time  =         11 seconds =       0.18 minutes
Total time:
	user time   =     140.95 seconds =       2.35 minutes
	system time =       2.88 seconds =       0.05 minutes
	total time  =         39 seconds =       0.65 minutes


Properties will be evaluated at   0.000000,   0.000000,   0.000000 Bohr

Properties computed using the SCF density matrix

  Nuclear Dipole Moment: (a.u.)
     X:    -8.2032      Y:    -3.6171      Z:     1.7995

  Electronic Dipole Moment: (a.u.)
     X:     7.8702      Y:     3.6001      Z:    -2.4278

  Dipole Moment: (a.u.)
     X:    -0.3330      Y:    -0.0170      Z:    -0.6283     Total:     0.7113

  Dipole Moment: (Debye)
     X:    -0.8465      Y:    -0.0431      Z:    -1.5970     Total:     1.8079


*** tstart() called on cx1-27-2-2
*** at Sat Sep 10 16:51:21 2016


         ------------------------------------------------------------
                                   SCF GRAD                          
                          Rob Parrish, Justin Turney,                
                       Andy Simmonett, and Alex Sokolov              
         ------------------------------------------------------------

  ==> Geometry <==

    Molecular point group: c1
    Full point group: C1

    Geometry (in Angstrom), charge = 0, multiplicity = 1:

       Center              X                  Y                   Z               Mass       
    ------------   -----------------  -----------------  -----------------  -----------------
           O          1.650637000342     0.621757848780     0.611722149890    15.994914619560
           C          0.914787007890     0.475814035334    -0.303954155188    12.000000000000
           C         -0.363237792202    -0.322641319643    -0.281611580225    12.000000000000
           O          1.132425436912     1.001268598861    -1.498779289429    15.994914619560
           C         -0.655435605109    -0.969655188435     1.067584466454    12.000000000000
           H         -1.156359397824     0.347164846292    -0.591647415173     1.007825032070
           H         -0.284800091177    -1.071436995361    -1.062987858078     1.007825032070
           C         -1.940546262966    -1.806506023312     1.080949720747    12.000000000000
           H         -0.712029550855    -0.196736419231     1.825720208089     1.007825032070
           H          0.188476847771    -1.593153796097     1.336890746509     1.007825032070
           C         -3.234157104641    -0.988348754222     1.122640383602    12.000000000000
           H         -1.959616702303    -2.460941186649     0.213387806686     1.007825032070
           H         -1.916703361138    -2.457229440226     1.949163617707     1.007825032070
           H         -3.352528946012    -0.362198879163     0.241838132674     1.007825032070
           H         -4.105235472079    -1.635154835516     1.177270452254     1.007825032070
           H         -3.251089771889    -0.340830658276     1.992838766449     1.007825032070
           C          2.305123653985     1.772735664324    -1.664839161494    12.000000000000
           H          2.300810875937     2.621546109342    -0.997146736167     1.007825032070
           H          2.299764360820     2.105902498670    -2.690081493037     1.007825032070
           H          3.184642196596     1.176375332399    -1.471135334525     1.007825032070

  Nuclear repulsion =  384.576132003446389

  ==> Basis Set <==

  Basis Set: CC-PVTZ
    Number of shells: 152
    Number of basis function: 408
    Number of Cartesian functions: 460
    Spherical Harmonics?: true
    Max angular momentum: 3

  ==> DFJKGrad: Density-Fitted SCF Gradients <==

    Gradient:                    1
    J tasked:                  Yes
    K tasked:                  Yes
    wK tasked:                  No
    OpenMP threads:              4
    Integrals threads:           4
    Memory (MB):              1430
    Schwarz Cutoff:          0E+00
    Fitting Condition:       1E-12

   => Auxiliary Basis Set <=

  Basis Set: 
    Number of shells: 320
    Number of basis function: 992
    Number of Cartesian functions: 1188
    Spherical Harmonics?: true
    Max angular momentum: 4


  -Total Gradient:
     Atom            X                  Y                   Z
    ------   -----------------  -----------------  -----------------
       1        0.000262719121    -0.000498495299    -0.000015417753
       2       -0.001072717616     0.001199942595     0.000006341104
       3        0.000913584094    -0.000197014842    -0.000093289685
       4        0.000179977984    -0.000326487277    -0.000194293329
       5        0.000813421734    -0.000365229130     0.000948976179
       6        0.000688880971    -0.000016036301     0.000029455321
       7        0.000029903588    -0.000019844328     0.000078301339
       8        0.001187090318    -0.001036156132    -0.000105384426
       9       -0.000121603549     0.000612634098    -0.000702704949
      10        0.000570716430     0.000410245461     0.000048240503
      11       -0.000622258521    -0.000263972051     0.001552533290
      12       -0.000647125725     0.000402605240    -0.000351929280
      13        0.000009206539    -0.000514805710     0.000067839998
      14       -0.000624633424     0.001087879616    -0.001516959577
      15       -0.001863099501    -0.000429358642     0.000248965674
      16        0.000092511018    -0.000131192709     0.000102311395
      17        0.000041504882     0.000075597450    -0.000057566113
      18       -0.000019391970     0.000027220613     0.000014828063
      19        0.000029354581     0.000056736403    -0.000082639349
      20        0.000151959043    -0.000074269056     0.000022391592


*** tstop() called on cx1-27-2-2 at Sat Sep 10 16:51:35 2016
Module time:
	user time   =      49.84 seconds =       0.83 minutes
	system time =       0.90 seconds =       0.01 minutes
	total time  =         14 seconds =       0.23 minutes
Total time:
	user time   =     190.92 seconds =       3.18 minutes
	system time =       3.78 seconds =       0.06 minutes
	total time  =         53 seconds =       0.88 minutes

			-----------------------------------------
			 OPTKING 2.0: for geometry optimizations 
			  - R.A. King,  Bethel University        
			-----------------------------------------

	Previous internal coordinate definitions found.
	---Fragment 1 Geometry and Gradient---
	 O           3.1192518755        1.1749520552        1.1559873327
	 C           1.7286969148        0.8991582170       -0.5743901103
	 C          -0.6864199484       -0.6097037333       -0.5321687625
	 O           2.1399739417        1.8921234373       -2.8322823907
	 C          -1.2385937914       -1.8323827495        2.0174422653
	 H          -2.1852025731        0.6560464825       -1.1180515819
	 H          -0.5381941749       -2.0247224899       -2.0087559344
	 C          -3.6671009852       -3.4138016415        2.0426989356
	 H          -1.3455408496       -0.3717779527        3.4501111886
	 H           0.3561696247       -3.0106243622        2.5263573805
	 C          -6.1116711985       -1.8677084693        2.1214828707
	 H          -3.7031388928       -4.6505048719        0.4032445147
	 H          -3.6220444305       -4.6434906877        3.6833854257
	 H          -6.3353615605       -0.6844566873        0.4570078392
	 H          -7.7577707532       -3.0899948240        2.2247187391
	 H          -6.1436693023       -0.6440766018        3.7659194956
	 C           4.3560524085        3.3499849116       -3.1460900705
	 H           4.3479024391        4.9540041914       -1.8843342457
	 H           4.3459248121        3.9795789850       -5.0835172970
	 H           6.0181015828        2.2230272077       -2.7800428867
	             0.0002627191       -0.0004984953       -0.0000154178
	            -0.0010727176        0.0011999426        0.0000063411
	             0.0009135841       -0.0001970148       -0.0000932897
	             0.0001799780       -0.0003264873       -0.0001942933
	             0.0008134217       -0.0003652291        0.0009489762
	             0.0006888810       -0.0000160363        0.0000294553
	             0.0000299036       -0.0000198443        0.0000783013
	             0.0011870903       -0.0010361561       -0.0001053844
	            -0.0001216035        0.0006126341       -0.0007027049
	             0.0005707164        0.0004102455        0.0000482405
	            -0.0006222585       -0.0002639721        0.0015525333
	            -0.0006471257        0.0004026052       -0.0003519293
	             0.0000092065       -0.0005148057        0.0000678400
	            -0.0006246334        0.0010878796       -0.0015169596
	            -0.0018630995       -0.0004293586        0.0002489657
	             0.0000925110       -0.0001311927        0.0001023114
	             0.0000415049        0.0000755975       -0.0000575661
	            -0.0000193920        0.0000272206        0.0000148281
	             0.0000293546        0.0000567364       -0.0000826393
	             0.0001519590       -0.0000742691        0.0000223916

	---Fragment 1 Intrafragment Coordinates---
	 - Coordinate -           - BOHR/RAD -       - ANG/DEG -
	 R(1,2)           =         2.236942	       1.183739
	 R(2,3)           =         2.848023	       1.507109
	 R(2,4)           =         2.500641	       1.323282
	 R(3,5)           =         2.881034	       1.524577
	 R(3,6)           =         2.047372	       1.083423
	 R(3,7)           =         2.050502	       1.085079
	 R(4,17)          =         2.671112	       1.413492
	 R(5,8)           =         2.898132	       1.533626
	 R(5,9)           =         2.048742	       1.084148
	 R(5,10)          =         2.047076	       1.083266
	 R(8,11)          =         2.893533	       1.531192
	 R(8,12)          =         2.053910	       1.086882
	 R(8,13)          =         2.050858	       1.085267
	 R(11,14)         =         2.054410	       1.087147
	 R(11,15)         =         2.052872	       1.086333
	 R(11,16)         =         2.049993	       1.084809
	 R(17,18)         =         2.040826	       1.079959
	 R(17,19)         =         2.037183	       1.078031
	 R(17,20)         =         2.041184	       1.080148
	 B(1,2,3)         =         2.190745	     125.520429
	 B(1,2,4)         =         2.149881	     123.179132
	 B(2,3,5)         =         1.982841	     113.608395
	 B(2,3,6)         =         1.863980	     106.798178
	 B(2,3,7)         =         1.868815	     107.075185
	 B(2,4,17)        =         2.047950	     117.338866
	 B(3,2,4)         =         1.942525	     111.298511
	 B(3,5,8)         =         1.982192	     113.571242
	 B(3,5,9)         =         1.903177	     109.044012
	 B(3,5,10)        =         1.891215	     108.358630
	 B(4,17,18)       =         1.931597	     110.672357
	 B(4,17,19)       =         1.850719	     106.038385
	 B(4,17,20)       =         1.931724	     110.679650
	 B(5,3,6)         =         1.955529	     112.043547
	 B(5,3,7)         =         1.937202	     110.993490
	 B(5,8,11)        =         2.000509	     114.620743
	 B(5,8,12)        =         1.913787	     109.651924
	 B(5,8,13)        =         1.892037	     108.405709
	 B(6,3,7)         =         1.847806	     105.871510
	 B(8,5,9)         =         1.916847	     109.827250
	 B(8,5,10)        =         1.914065	     109.667832
	 B(8,11,14)       =         1.958084	     112.189952
	 B(8,11,15)       =         1.939777	     111.141051
	 B(8,11,16)       =         1.932604	     110.730062
	 B(9,5,10)        =         1.851634	     106.090836
	 B(11,8,12)       =         1.905659	     109.186231
	 B(11,8,13)       =         1.893530	     108.491252
	 B(12,8,13)       =         1.852429	     106.136361
	 B(14,11,15)      =         1.871678	     107.239229
	 B(14,11,16)      =         1.880133	     107.723687
	 B(15,11,16)      =         1.878150	     107.610086
	 B(18,17,19)      =         1.923098	     110.185411
	 B(18,17,20)      =         1.903203	     109.045472
	 B(19,17,20)      =         1.923278	     110.195693
	 D(1,2,3,5)       =        -0.005997	      -0.343591
	 D(1,2,3,6)       =         2.158934	     123.697786
	 D(1,2,3,7)       =        -2.151116	    -123.249856
	 D(1,2,4,17)      =        -0.002649	      -0.151794
	 D(2,3,5,8)       =        -3.120049	    -178.765646
	 D(2,3,5,9)       =         1.019416	      58.408247
	 D(2,3,5,10)      =        -0.988668	     -56.646500
	 D(2,4,17,18)     =        -1.056380	     -60.526119
	 D(2,4,17,19)     =         3.141383	     179.988008
	 D(2,4,17,20)     =         1.055677	      60.485839
	 D(3,2,4,17)      =        -3.135861	    -179.671612
	 D(3,5,8,11)      =        -1.319311	     -75.590950
	 D(3,5,8,12)      =         0.830879	      47.605877
	 D(3,5,8,13)      =         2.846010	     163.064368
	 D(4,2,3,5)       =         3.126978	     179.162625
	 D(4,2,3,6)       =        -0.991277	     -56.795998
	 D(4,2,3,7)       =         0.981859	      56.256360
	 D(5,8,11,14)     =         1.092480	      62.594490
	 D(5,8,11,15)     =        -3.095282	    -177.346583
	 D(5,8,11,16)     =        -1.008752	     -57.797206
	 D(6,3,5,8)       =         1.048711	      60.086717
	 D(6,3,5,9)       =        -1.095009	     -62.739391
	 D(6,3,5,10)      =        -3.103093	    -177.794137
	 D(7,3,5,8)       =        -1.012968	     -58.038804
	 D(7,3,5,9)       =         3.126497	     179.135088
	 D(7,3,5,10)      =         1.118413	      64.080342
	 D(9,5,8,11)      =         0.816869	      46.803174
	*D(9,5,8,12)      =         2.967060	     170.000001
	 D(9,5,8,13)      =        -1.300995	     -74.541508
	 D(10,5,8,11)     =         2.845215	     163.018815
	 D(10,5,8,12)     =        -1.287780	     -73.784359
	 D(10,5,8,13)     =         0.727351	      41.674132
	 D(12,8,11,14)    =        -1.062069	     -60.852057
	 D(12,8,11,15)    =         1.033355	      59.206870
	 D(12,8,11,16)    =         3.119885	     178.756247
	 D(13,8,11,14)    =        -3.073660	    -176.107723
	 D(13,8,11,15)    =        -0.978236	     -56.048796
	 D(13,8,11,16)    =         1.108294	      63.500581

	Current energy   :      -384.0812574318

	Energy change for the previous step:
		Projected    :        -0.0000907304
		Actual       :        -0.0001893560
	Energy ratio indicates good step: Trust radius increased to 1.000e+00.


	Performing BFGS update.
	Previous computed or guess Hessian on step 1.
	Steps to be used in Hessian update: 1
	Taking RFO optimization step.
	Going to follow RFO solution 1.
	Using RFO vector 1.
	Norm of target step-size    0.09805
	Projected energy change by RFO approximation:        -0.0002594372

	Back-transformation to cartesian coordinates...
	Successfully converged to displaced geometry.

	Back-transformation to cartesian coordinates to adjust frozen coordinates...
	Successfully converged to displaced geometry.

	--- Internal Coordinate Step in ANG or DEG, aJ/ANG or AJ/DEG ---
	 ---------------------------------------------------------------------------
	   Coordinate                Previous        Force       Change         New 
	   ----------                --------       ------       ------       ------
	    1 R(1,2)          =      1.183739    -0.000741    -0.000047     1.183692
	    2 R(2,3)          =      1.507109     0.000934     0.000078     1.507187
	    3 R(2,4)          =      1.323282    -0.001942    -0.000174     1.323108
	    4 R(3,5)          =      1.524577    -0.004827    -0.000481     1.524097
	    5 R(3,6)          =      1.083423     0.004306     0.000307     1.083729
	    6 R(3,7)          =      1.085079     0.000334     0.000039     1.085118
	    7 R(4,17)         =      1.413492    -0.001874    -0.000253     1.413238
	    8 R(5,8)          =      1.533626    -0.021019    -0.002507     1.531119
	    9 R(5,9)          =      1.084148     0.000398     0.000043     1.084190
	   10 R(5,10)         =      1.083266    -0.001817    -0.000345     1.082920
	   11 R(8,11)         =      1.531192    -0.022249    -0.003382     1.527810
	   12 R(8,12)         =      1.086882    -0.000411    -0.000052     1.086830
	   13 R(8,13)         =      1.085267    -0.002992    -0.000749     1.084518
	   14 R(11,14)        =      1.087147    -0.015848    -0.002912     1.084235
	   15 R(11,15)        =      1.086333    -0.014517    -0.002388     1.083945
	   16 R(11,16)        =      1.084809    -0.000019    -0.000036     1.084773
	   17 R(17,18)        =      1.079959    -0.000252    -0.000040     1.079918
	   18 R(17,19)        =      1.078031    -0.000791    -0.000123     1.077908
	   19 R(17,20)        =      1.080148    -0.001390    -0.000220     1.079928
	   20 B(1,2,3)        =    125.520429     0.000018     0.043432   125.563862
	   21 B(1,2,4)        =    123.179132    -0.000001    -0.055994   123.123138
	   22 B(2,3,5)        =    113.608395    -0.000035    -0.090510   113.517885
	   23 B(2,3,6)        =    106.798178     0.000036     0.100059   106.898237
	   24 B(2,3,7)        =    107.075185     0.000008     0.023707   107.098892
	   25 B(2,4,17)       =    117.338866    -0.000008    -0.018561   117.320304
	   26 B(3,2,4)        =    111.298511    -0.000017    -0.039760   111.258751
	   27 B(3,5,8)        =    113.571242    -0.000098    -0.231788   113.339454
	   28 B(3,5,9)        =    109.044012     0.000026    -0.218301   108.825711
	   29 B(3,5,10)       =    108.358630     0.000074     0.264272   108.622902
	   30 B(4,17,18)      =    110.672357     0.000003     0.005995   110.678351
	   31 B(4,17,19)      =    106.038385    -0.000004    -0.001205   106.037180
	   32 B(4,17,20)      =    110.679650    -0.000003    -0.013400   110.666250
	   33 B(5,3,6)        =    112.043547    -0.000017    -0.032520   112.011027
	   34 B(5,3,7)        =    110.993490     0.000018     0.024100   111.017589
	   35 B(5,8,11)       =    114.620743    -0.000133    -0.280871   114.339872
	   36 B(5,8,12)       =    109.651924     0.000021    -0.115799   109.536125
	   37 B(5,8,13)       =    108.405709     0.000039     0.162911   108.568621
	   38 B(6,3,7)        =    105.871510    -0.000006    -0.015845   105.855665
	   39 B(8,5,9)        =    109.827250     0.000020    -0.101746   109.725505
	   40 B(8,5,10)       =    109.667832    -0.000006     0.014260   109.682092
	   41 B(8,11,14)      =    112.189952    -0.000032    -0.039478   112.150475
	   42 B(8,11,15)      =    111.141051    -0.000079    -0.281534   110.859517
	   43 B(8,11,16)      =    110.730062     0.000039     0.146424   110.876485
	   44 B(9,5,10)       =    106.090836    -0.000009     0.312411   106.403247
	   45 B(11,8,12)      =    109.186231     0.000041    -0.218510   108.967721
	   46 B(11,8,13)      =    108.491252     0.000053     0.160162   108.651415
	   47 B(12,8,13)      =    106.136361    -0.000012     0.345923   106.482284
	   48 B(14,11,15)     =    107.239229     0.000048     0.040925   107.280154
[...]
	 R(4,17)          =         2.670574	       1.413207
	 R(5,8)           =         2.892218	       1.530496
	 R(5,9)           =         2.048870	       1.084215
	 R(5,10)          =         2.046283	       1.082846
	 R(8,11)          =         2.886594	       1.527520
	 R(8,12)          =         2.053918	       1.086887
	 R(8,13)          =         2.049578	       1.084590
	 R(11,14)         =         2.048726	       1.084139
	 R(11,15)         =         2.048309	       1.083918
	 R(11,16)         =         2.050036	       1.084832
	 R(17,18)         =         2.040762	       1.079925
	 R(17,19)         =         2.036961	       1.077913
	 R(17,20)         =         2.040773	       1.079931
	 B(1,2,3)         =         2.191377	     125.556673
	 B(1,2,4)         =         2.149784	     123.173528
	 B(2,3,5)         =         1.981630	     113.539031
	 B(2,3,6)         =         1.865723	     106.898048
	 B(2,3,7)         =         1.869777	     107.130307
	 B(2,4,17)        =         2.047824	     117.331652
	 B(3,2,4)         =         1.942024	     111.269799
	 B(3,5,8)         =         1.976231	     113.229709
	 B(3,5,9)         =         1.899571	     108.837410
	 B(3,5,10)        =         1.896740	     108.675212
	 B(4,17,18)       =         1.931734	     110.680208
	 B(4,17,19)       =         1.850594	     106.031250
	 B(4,17,20)       =         1.931730	     110.679996
	 B(5,3,6)         =         1.953154	     111.907467
	 B(5,3,7)         =         1.938617	     111.074583
	 B(5,8,11)        =         1.993544	     114.221684
	 B(5,8,12)        =         1.911247	     109.506403
	 B(5,8,13)        =         1.896186	     108.643431
	 B(6,3,7)         =         1.847456	     105.851412
	 B(8,5,9)         =         1.915411	     109.744957
	 B(8,5,10)        =         1.914396	     109.686812
	 B(8,11,14)       =         1.955429	     112.037839
	 B(8,11,15)       =         1.934819	     110.856970
	 B(8,11,16)       =         1.936431	     110.949322
	 B(9,5,10)        =         1.857618	     106.433694
	 B(11,8,12)       =         1.901666	     108.957415
	 B(11,8,13)       =         1.897491	     108.718209
	 B(12,8,13)       =         1.858946	     106.509756
	 B(14,11,15)      =         1.873541	     107.345968
	 B(14,11,16)      =         1.880096	     107.721579
	 B(15,11,16)      =         1.880361	     107.736759
	 B(18,17,19)      =         1.923232	     110.193096
	 B(18,17,20)      =         1.903101	     109.039638
	 B(19,17,20)      =         1.923230	     110.192955
	 D(1,2,3,5)       =        -0.006076	      -0.348132
	 D(1,2,3,6)       =         2.156302	     123.546986
	 D(1,2,3,7)       =        -2.152898	    -123.351970
	 D(1,2,4,17)      =         0.000467	       0.026732
	 D(2,3,5,8)       =        -3.129360	    -179.299139
	 D(2,3,5,9)       =         1.018671	      58.365575
	 D(2,3,5,10)      =        -0.997548	     -57.155271
	 D(2,4,17,18)     =        -1.056368	     -60.525455
	 D(2,4,17,19)     =         3.141234	     179.979440
	 D(2,4,17,20)     =         1.055656	      60.484621
	 D(3,2,4,17)      =        -3.140977	    -179.964725
	 D(3,5,8,11)      =        -1.297256	     -74.327288
	 D(3,5,8,12)      =         0.840751	      48.171474
	 D(3,5,8,13)      =         2.864579	     164.128304
	 D(4,2,3,5)       =         3.135363	     179.643079
	 D(4,2,3,6)       =        -0.985444	     -56.461803
	 D(4,2,3,7)       =         0.988541	      56.639241
	 D(5,8,11,14)     =         1.076080	      61.654852
	 D(5,8,11,15)     =        -3.114530	    -178.449407
	 D(5,8,11,16)     =        -1.025958	     -58.783036
	 D(6,3,5,8)       =         1.039786	      59.575368
	 D(6,3,5,9)       =        -1.095367	     -62.759917
	 D(6,3,5,10)      =        -3.111586	    -178.280763
	 D(7,3,5,8)       =        -1.020842	     -58.489941
	 D(7,3,5,9)       =         3.127190	     179.174774
	 D(7,3,5,10)      =         1.110971	      63.653927
	 D(9,5,8,11)      =         0.829053	      47.501239
	*D(9,5,8,12)      =         2.967060	     170.000001
	 D(9,5,8,13)      =        -1.292297	     -74.043169
	 D(10,5,8,11)     =         2.863999	     164.095069
	 D(10,5,8,12)     =        -1.281179	     -73.406168
	 D(10,5,8,13)     =         0.742649	      42.550662
	 D(12,8,11,14)    =        -1.067144	     -61.142829
	 D(12,8,11,15)    =         1.025432	      58.752911
	 D(12,8,11,16)    =         3.114004	     178.419282
	 D(13,8,11,14)    =        -3.086474	    -176.841960
	 D(13,8,11,15)    =        -0.993899	     -56.946219
	 D(13,8,11,16)    =         1.094673	      62.720152

	Current energy   :      -384.0813421797

	Energy change for the previous step:
		Projected    :        -0.0000000981
		Actual       :        -0.0000006343

	Performing BFGS update.
	Previous computed or guess Hessian on step 1.
	Steps to be used in Hessian update: 5 4
	Taking RFO optimization step.
	Going to follow RFO solution 1.
	Using RFO vector 1.
	Norm of target step-size    0.00197
	Projected energy change by RFO approximation:        -0.0000000502

	Back-transformation to cartesian coordinates...
	Successfully converged to displaced geometry.

	Back-transformation to cartesian coordinates to adjust frozen coordinates...
	Successfully converged to displaced geometry.

	--- Internal Coordinate Step in ANG or DEG, aJ/ANG or AJ/DEG ---
	 ---------------------------------------------------------------------------
	   Coordinate                Previous        Force       Change         New 
	   ----------                --------       ------       ------       ------
	    1 R(1,2)          =      1.183650    -0.000012    -0.000001     1.183648
	    2 R(2,3)          =      1.507355    -0.000091    -0.000016     1.507339
	    3 R(2,4)          =      1.323173     0.000031     0.000002     1.323175
	    4 R(3,5)          =      1.524100     0.000012     0.000006     1.524106
	    5 R(3,6)          =      1.083807    -0.000058    -0.000012     1.083796
	    6 R(3,7)          =      1.085201     0.000048     0.000007     1.085208
	    7 R(4,17)         =      1.413207    -0.000043    -0.000007     1.413200
	    8 R(5,8)          =      1.530496    -0.000392    -0.000064     1.530432
	    9 R(5,9)          =      1.084215     0.000077     0.000011     1.084226
	   10 R(5,10)         =      1.082846    -0.000080    -0.000014     1.082832
	   11 R(8,11)         =      1.527520    -0.000364    -0.000067     1.527452
	   12 R(8,12)         =      1.086887     0.000032     0.000004     1.086891
	   13 R(8,13)         =      1.084590    -0.000093    -0.000020     1.084570
	   14 R(11,14)        =      1.084139    -0.000317    -0.000058     1.084081
	   15 R(11,15)        =      1.083918    -0.000282    -0.000050     1.083868
	   16 R(11,16)        =      1.084832     0.000031     0.000005     1.084837
	   17 R(17,18)        =      1.079925    -0.000008    -0.000001     1.079924
	   18 R(17,19)        =      1.077913    -0.000015    -0.000003     1.077911
	   19 R(17,20)        =      1.079931    -0.000019    -0.000003     1.079928
	   20 B(1,2,3)        =    125.556673    -0.000000     0.000273   125.556945
	   21 B(1,2,4)        =    123.173528     0.000001     0.001969   123.175497
	   22 B(2,3,5)        =    113.539031    -0.000001    -0.004583   113.534448
	   23 B(2,3,6)        =    106.898048     0.000001     0.001166   106.899214
	   24 B(2,3,7)        =    107.130307     0.000000    -0.000425   107.129882
	   25 B(2,4,17)       =    117.331652     0.000000     0.000418   117.332070
	   26 B(3,2,4)        =    111.269799    -0.000001    -0.002241   111.267558
	   27 B(3,5,8)        =    113.229709    -0.000001    -0.001094   113.228614
	   28 B(3,5,9)        =    108.837410     0.000000     0.005013   108.842423
	   29 B(3,5,10)       =    108.675212     0.000001     0.000936   108.676148
	   30 B(4,17,18)      =    110.680208     0.000000     0.000598   110.680806
	   31 B(4,17,19)      =    106.031250    -0.000000    -0.000507   106.030742
	   32 B(4,17,20)      =    110.679996     0.000000     0.000244   110.680240
	   33 B(5,3,6)        =    111.907467     0.000000     0.001038   111.908505
	   34 B(5,3,7)        =    111.074583     0.000001     0.002099   111.076682
	   35 B(5,8,11)       =    114.221684    -0.000002    -0.004698   114.216986
	   36 B(5,8,12)       =    109.506403     0.000000     0.002802   109.509205
	   37 B(5,8,13)       =    108.643431     0.000000    -0.003603   108.639827
	   38 B(6,3,7)        =    105.851412    -0.000000     0.000980   105.852392
	   39 B(8,5,9)        =    109.744957     0.000000     0.001803   109.746760
	   40 B(8,5,10)       =    109.686812    -0.000001    -0.008874   109.677938
	   41 B(8,11,14)      =    112.037839    -0.000000    -0.000080   112.037759
	   42 B(8,11,15)      =    110.856970    -0.000002    -0.009409   110.847561
	   43 B(8,11,16)      =    110.949322     0.000001     0.005864   110.955186
	   44 B(9,5,10)       =    106.433694     0.000000     0.002525   106.436219
	   45 B(11,8,12)      =    108.957415     0.000001     0.005637   108.963052
	   46 B(11,8,13)      =    108.718209     0.000000    -0.003740   108.714469
	   47 B(12,8,13)      =    106.509756    -0.000000     0.004129   106.513885
	   48 B(14,11,15)     =    107.345968     0.000001    -0.000692   107.345276
	   49 B(14,11,16)     =    107.721579    -0.000000     0.001984   107.723564
	   50 B(15,11,16)     =    107.736759     0.000001     0.002527   107.739286
	   51 B(18,17,19)     =    110.193096    -0.000000    -0.000097   110.192999
	   52 B(18,17,20)     =    109.039638    -0.000000     0.000096   109.039734
	   53 B(19,17,20)     =    110.192955    -0.000000    -0.000349   110.192606
	   54 D(1,2,3,5)      =     -0.348132     0.000000     0.018883    -0.329249
	   55 D(1,2,3,6)      =    123.546986    -0.000000     0.018037   123.565024
	   56 D(1,2,3,7)      =   -123.351970    -0.000000     0.019504  -123.332466
	   57 D(1,2,4,17)     =      0.026732     0.000000     0.001441     0.028173
	   58 D(2,3,5,8)      =   -179.299139     0.000000     0.017701  -179.281439
	   59 D(2,3,5,9)      =     58.365575     0.000000     0.012500    58.378076
	   60 D(2,3,5,10)     =    -57.155271    -0.000000     0.006307   -57.148964
	   61 D(2,4,17,18)    =    -60.525455    -0.000000    -0.002729   -60.528185
	   62 D(2,4,17,19)    =    179.979440    -0.000000    -0.002635   179.976805
	   63 D(2,4,17,20)    =     60.484621     0.000000    -0.002046    60.482575
	   64 D(3,2,4,17)     =   -179.964725    -0.000000    -0.002204  -179.966930
	   65 D(3,5,8,11)     =    -74.327288    -0.000000    -0.013177   -74.340465
	   66 D(3,5,8,12)     =     48.171474    -0.000000    -0.007016    48.164458
	   67 D(3,5,8,13)     =    164.128304     0.000000    -0.002563   164.125741
	   68 D(4,2,3,5)      =    179.643079     0.000000     0.022635   179.665713
	   69 D(4,2,3,6)      =    -56.461803     0.000000     0.021789   -56.440014
	   70 D(4,2,3,7)      =     56.639241     0.000000     0.023255    56.662496
	   71 D(5,8,11,14)    =     61.654852     0.000000     0.038599    61.693452
	   72 D(5,8,11,15)    =   -178.449407     0.000000     0.031213  -178.418194
	   73 D(5,8,11,16)    =    -58.783036     0.000000     0.032048   -58.750987
	   74 D(6,3,5,8)      =     59.575368     0.000000     0.018747    59.594115
	   75 D(6,3,5,9)      =    -62.759917     0.000000     0.013547   -62.746370
	   76 D(6,3,5,10)     =   -178.280763    -0.000000     0.007354  -178.273410
	   77 D(7,3,5,8)      =    -58.489941     0.000000     0.015449   -58.474492
	   78 D(7,3,5,9)      =    179.174774     0.000000     0.010248   179.185022
	   79 D(7,3,5,10)     =     63.653927    -0.000000     0.004055    63.657983
	   80 D(9,5,8,11)     =     47.501239    -0.000000    -0.006161    47.495078
	   81 *D(9,5,8,12)    =    170.000001    -0.000000     0.000000   170.000001
	   82 D(9,5,8,13)     =    -74.043169     0.000000     0.004453   -74.038717
	   83 D(10,5,8,11)    =    164.095069    -0.000000    -0.007210   164.087859
	   84 D(10,5,8,12)    =    -73.406168    -0.000000    -0.001050   -73.407218
	   85 D(10,5,8,13)    =     42.550662     0.000000     0.003403    42.554065
	   86 D(12,8,11,14)   =    -61.142829     0.000000     0.033974   -61.108856
	   87 D(12,8,11,15)   =     58.752911     0.000000     0.026587    58.779498
	   88 D(12,8,11,16)   =    178.419282     0.000000     0.027422   178.446705
	   89 D(13,8,11,14)   =   -176.841960     0.000000     0.028053  -176.813907
	   90 D(13,8,11,15)   =    -56.946219    -0.000000     0.020666   -56.925553
	   91 D(13,8,11,16)   =     62.720152    -0.000000     0.021502    62.741654
	 ---------------------------------------------------------------------------
	Successfully symmetrized geometry.

  ==> Convergence Check <==

  Measures of convergence in internal coordinates in au.
  Criteria marked as inactive (o), active & met (*), and active & unmet ( ).
  ---------------------------------------------------------------------------------------------
   Step     Total Energy     Delta E     MAX Force     RMS Force      MAX Disp      RMS Disp   
  ---------------------------------------------------------------------------------------------
    Convergence Criteria    1.00e-06 *    3.00e-04 *             o    1.20e-03 *             o
  ---------------------------------------------------------------------------------------------
      6    -384.08134218   -6.34e-07 *    4.76e-05 *    1.11e-05 o    6.74e-04 *    2.07e-04 o  ~
  ---------------------------------------------------------------------------------------------


  **** Optimization is complete! (in 6 steps) ****

  ==> Optimization Summary <==

  Measures of convergence in internal coordinates in au.
  --------------------------------------------------------------------------------------------------------------- ~
   Step         Total Energy             Delta E       MAX Force       RMS Force        MAX Disp        RMS Disp  ~
  --------------------------------------------------------------------------------------------------------------- ~
      1    -384.081068075742   -384.081068075742      0.00631494      0.00123078      0.04681790      0.01431202  ~
      2    -384.081257431779     -0.000189356037      0.00270054      0.00061184      0.03017295      0.01027790  ~
      3    -384.081208129636      0.000049302143      0.00153467      0.00045449      0.02510039      0.00734446  ~
      4    -384.081337502948     -0.000129373312      0.00058019      0.00013468      0.00779225      0.00269166  ~
      5    -384.081341545357     -0.000004042409      0.00023565      0.00005100      0.00215745      0.00073712  ~
      6    -384.081342179701     -0.000000634344      0.00004761      0.00001110      0.00067368      0.00020689  ~
  --------------------------------------------------------------------------------------------------------------- ~

	Writing optimization data to binary file.
	Final energy is   -384.0813421797013
	Final (previous) structure:
	Cartesian Geometry (in Angstrom)
	    O     1.6496000543   0.6237624402   0.6098355484
	    C     0.9108502573   0.4741889950  -0.3027996931
	    C    -0.3611028020  -0.3342763511  -0.2775267910
	    O     1.1137415278   1.0126675746  -1.4942958331
	    C    -0.6412201513  -0.9862776169   1.0712908850
	    H    -1.1625138229   0.3297637939  -0.5799001772
	    H    -0.2817421909  -1.0796251522  -1.0622671961
	    C    -1.9252013216  -1.8191309657   1.0841502328
	    H    -0.6987771275  -0.2127432582   1.8288230253
	    H     0.2020824707  -1.6119308103   1.3357814209
	    C    -3.2088629559  -0.9914578939   1.1062006905
	    H    -1.9419466398  -2.4736403646   0.2165907159
	    H    -1.9116470461  -2.4637105034   1.9563135812
	    H    -3.3042103773  -0.3651426939   0.2264305919
	    H    -4.0814428158  -1.6334910608   1.1419301470
	    H    -3.2385046200  -0.3447788177   1.9767112449
	    C     2.2755102079   1.7997844746  -1.6613094778
	    H     2.2654808849   2.6425778175  -0.9861531758
	    H     2.2590583590   2.1416445307  -2.6834437575
	    H     3.1633900208   1.2127420393  -1.4788247345
	Saving final (previous) structure.
			--------------------------
			 OPTKING Finished Execution 
			--------------------------

    Final optimized geometry and variables:
    Molecular point group: c1
    Full point group: C1

    Geometry (in Angstrom), charge = 0, multiplicity = 1:

    O            1.649600054334     0.623762440203     0.609835548401
    C            0.910850257296     0.474188994979    -0.302799693141
    C           -0.361102801998    -0.334276351070    -0.277526790957
    O            1.113741527759     1.012667574583    -1.494295833059
    C           -0.641220151313    -0.986277616922     1.071290884958
    H           -1.162513822888     0.329763793859    -0.579900177242
    H           -0.281742190874    -1.079625152246    -1.062267196139
    C           -1.925201321607    -1.819130965682     1.084150232820
    H           -0.698777127471    -0.212743258220     1.828823025261
    H            0.202082470671    -1.611930810324     1.335781420917
    C           -3.208862955879    -0.991457893923     1.106200690479
    H           -1.941946639756    -2.473640364601     0.216590715853
    H           -1.911647046109    -2.463710503398     1.956313581227
    H           -3.304210377286    -0.365142693852     0.226430591887
    H           -4.081442815794    -1.633491060827     1.141930146958
    H           -3.238504619974    -0.344778817741     1.976711244915
    C            2.275510207875     1.799784474576    -1.661309477828
    H            2.265480884887     2.642577817508    -0.986153175786
    H            2.259058359020     2.141644530744    -2.683443757498
    H            3.163390020792     1.212742039261    -1.478824734460

	Cleaning optimization helper files.


Properties will be evaluated at   0.000000,   0.000000,   0.000000 Bohr

Properties computed using the  density matrix

  Nuclear Dipole Moment: (a.u.)
     X:    -8.1716      Y:    -3.6092      Z:     1.7694

  Electronic Dipole Moment: (a.u.)
     X:     7.8315      Y:     3.5933      Z:    -2.3964

  Dipole Moment: (a.u.)
     X:    -0.3401      Y:    -0.0159      Z:    -0.6269     Total:     0.7134

  Dipole Moment: (Debye)
     X:    -0.8643      Y:    -0.0405      Z:    -1.5935     Total:     1.8132

  Quadrupole Moment: (Debye Ang)
    XX:   -49.9733     YY:   -47.0297     ZZ:   -50.7422
    XY:     1.8171     XZ:    -5.4944     YZ:    -2.4614

  Traceless Quadrupole Moment: (Debye Ang)
    XX:    -0.7249     YY:     2.2187     ZZ:    -1.4938
    XY:     1.8171     XZ:    -5.4944     YZ:    -2.4614

  Mulliken Charges: (a.u.)
   Center  Symbol    Alpha    Beta     Spin     Total
       1     O     4.19688  4.19688  0.00000 -0.39376
       2     C     2.80469  2.80469  0.00000  0.39061
       3     C     3.10132  3.10132  0.00000 -0.20264
       4     O     4.14719  4.14719  0.00000 -0.29438
       5     C     3.08773  3.08773  0.00000 -0.17547
       6     H     0.44004  0.44004  0.00000  0.11992
       7     H     0.44025  0.44025  0.00000  0.11950
       8     C     3.09406  3.09406  0.00000 -0.18812
       9     H     0.44730  0.44730  0.00000  0.10541
      10     H     0.44124  0.44124  0.00000  0.11752
      11     C     3.15041  3.15041  0.00000 -0.30081
      12     H     0.45641  0.45641  0.00000  0.08718
      13     H     0.44512  0.44512  0.00000  0.10975
      14     H     0.45612  0.45612  0.00000  0.08776
      15     H     0.44629  0.44629  0.00000  0.10743
      16     H     0.45324  0.45324  0.00000  0.09351
      17     C     3.03786  3.03786  0.00000 -0.07572
      18     H     0.45431  0.45431  0.00000  0.09138
      19     H     0.44527  0.44527  0.00000  0.10946
      20     H     0.45426  0.45426  0.00000  0.09147

   Total alpha = 32.00000, Total beta = 32.00000, Total charge = -0.00000


*** Psi4 exiting successfully. Buy a developer a beer!
