    -----------------------------------------------------------------------
          Psi4: An Open-Source Ab Initio Electronic Structure Package
                              Psi4 (no tag) Driver

                          Git: Rev {detached?}  

    J. M. Turney, A. C. Simmonett, R. M. Parrish, E. G. Hohenstein,
    F. A. Evangelista, J. T. Fermann, B. J. Mintz, L. A. Burns, J. J. Wilke,
    M. L. Abrams, N. J. Russ, M. L. Leininger, C. L. Janssen, E. T. Seidl,
    W. D. Allen, H. F. Schaefer, R. A. King, E. F. Valeev, C. D. Sherrill,
    and T. D. Crawford, WIREs Comput. Mol. Sci. 2, 556-565 (2012)
    (doi: 10.1002/wcms.93)

                         Additional Contributions by
    A. E. DePrince, M. Saitow, U. Bozkaya, A. Yu. Sokolov
    -----------------------------------------------------------------------


    Psi4 started on: Fri Sep  9 20:39:52 2016

    Process ID:  21449
    PSI4DATADIR: /export131/home/mjharvey/miniconda3/share
    Memory level set to 256.000 MB

  ==> Input File <==

--------------------------------------------------------------------------
set {
	reference rhf
	basis cc-pvtz
}


set_num_threads( 4 )
memory 2 gb

molecule MOL {
0 1

H	 -3.436473	 1.252944	 -1.023892
O	 -3.458596	 0.315260	 -0.960865
C	 -3.176635	 -0.080824	 0.355601
C	 -1.763371	 0.265266	 0.799691
H	 -3.321825	 -1.153438	 0.379502
H	 -3.895468	 0.357385	 1.043382
C	 -0.673390	 -0.426948	 -0.013392
H	 -1.631049	 1.344913	 0.747560
H	 -1.664587	 -0.001624	 1.849167
C	 0.737842	 -0.043159	 0.423759
H	 -0.806103	 -0.190518	 -1.063345
H	 -0.797221	 -1.503753	 0.074146
C	 1.824000	 -0.743224	 -0.390623
H	 0.850588	 1.033777	 0.343840
H	 0.868587	 -0.286314	 1.476203
C	 3.255957	 -0.453067	 0.062319
H	 1.718250	 -0.470599	 -1.438164
H	 1.658105	 -1.815850	 -0.339904
C	 4.304864	 -0.537369	 -1.043950
H	 3.518201	 -1.159775	 0.843707
H	 3.294341	 0.531804	 0.520550
H	 4.285790	 -1.510229	 -1.524842
H	 5.300519	 -0.388487	 -0.641772
H	 4.148522	 0.212899	 -1.809627

	symmetry c1
}
set optking {
	frozen_dihedral = ("
		20 16 13 17
	")
}

ee = optimize('scf')
oeprop('DIPOLE', 'QUADRUPOLE', 'MULLIKEN_CHARGES')
f=open( 'psi4out.xyz', 'w' )
f.write( "24  " )
f.write( str(ee) + "\n" )
f.write( MOL.save_string_xyz() )
f.close()
--------------------------------------------------------------------------

  Memory set to   2.000 GiB by Python script.
gradient() will perform analytic gradient computation.

*** tstart() called on cx1-27-1-3
*** at Fri Sep  9 20:39:53 2016


         ---------------------------------------------------------
                                   SCF
            by Justin Turney, Rob Parrish, and Andy Simmonett
                              RHF Reference
                        4 Threads,   2000 MiB Core
         ---------------------------------------------------------

  ==> Geometry <==

    Molecular point group: c1
    Full point group: C1

    Geometry (in Angstrom), charge = 0, multiplicity = 1:

       Center              X                  Y                   Z               Mass       
    ------------   -----------------  -----------------  -----------------  -----------------
           H         -3.513637832508     1.450717895846    -0.906634176583     1.007825032070
           O         -3.535760832508     0.513033895846    -0.843607176583    15.994914619560
           C         -3.253799832508     0.116949895846     0.472858823417    12.000000000000
           C         -1.840535832508     0.463039895846     0.916948823417    12.000000000000
           H         -3.398989832508    -0.955664104154     0.496759823417     1.007825032070
           H         -3.972632832508     0.555158895846     1.160639823417     1.007825032070
           C         -0.750554832508    -0.229174104154     0.103865823417    12.000000000000
           H         -1.708213832508     1.542686895846     0.864817823417     1.007825032070
           H         -1.741751832508     0.196149895846     1.966424823417     1.007825032070
           C          0.660677167492     0.154614895846     0.541016823417    12.000000000000
           H         -0.883267832508     0.007255895846    -0.946087176583     1.007825032070
           H         -0.874385832508    -1.305979104154     0.191403823417     1.007825032070
           C          1.746835167492    -0.545450104154    -0.273365176583    12.000000000000
           H          0.773423167492     1.231550895846     0.461097823417     1.007825032070
           H          0.791422167492    -0.088540104154     1.593460823417     1.007825032070
           C          3.178792167492    -0.255293104154     0.179576823417    12.000000000000
           H          1.641085167492    -0.272825104154    -1.320906176583     1.007825032070
           H          1.580940167492    -1.618076104154    -0.222646176583     1.007825032070
           C          4.227699167492    -0.339595104154    -0.926692176583    12.000000000000
           H          3.441036167492    -0.962001104154     0.960964823417     1.007825032070
           H          3.217176167492     0.729577895846     0.637807823417     1.007825032070
           H          4.208625167492    -1.312455104154    -1.407584176583     1.007825032070
           H          5.223354167492    -0.190713104154    -0.524514176583     1.007825032070
           H          4.071357167492     0.410672895846    -1.692369176583     1.007825032070

  Running in c1 symmetry.

  Rotational constants: A =      0.22749  B =      0.01828  C =      0.01758 [cm^-1]
  Rotational constants: A =   6820.04753  B =    547.87231  C =    527.05337 [MHz]
  Nuclear repulsion =  380.812429749926423

  Charge       = 0
  Multiplicity = 1
  Electrons    = 66
  Nalpha       = 33
  Nbeta        = 33

  ==> Algorithm <==

  SCF Algorithm Type is DF.
  DIIS enabled.
  MOM disabled.
  Fractional occupation disabled.
  Guess Type is CORE.
  Energy threshold   = 1.00e-08
  Density threshold  = 1.00e-08
  Integral threshold = 0.00e+00

  ==> Primary Basis <==

  Basis Set: CC-PVTZ
    Number of shells: 176
    Number of basis function: 464
    Number of Cartesian functions: 520
    Spherical Harmonics?: true
    Max angular momentum: 3

  ==> Pre-Iterations <==

   -------------------------------------------------------
    Irrep   Nso     Nmo     Nalpha   Nbeta   Ndocc  Nsocc
   -------------------------------------------------------
     A        464     464       0       0       0       0
   -------------------------------------------------------
    Total     464     464      33      33      33       0
   -------------------------------------------------------

 OEINTS: Overlap, kinetic, potential, dipole, and quadrupole integrals
         stored in file 35.

  ==> Integral Setup <==

  ==> DFJK: Density-Fitted J/K Matrices <==

    J tasked:                  Yes
    K tasked:                  Yes
    wK tasked:                  No
    OpenMP threads:              4
    Integrals threads:           4
    Memory (MB):              1430
    Algorithm:                Core
    Integral Cache:           NONE
    Schwarz Cutoff:          1E-12
    Fitting Condition:       1E-12

   => Auxiliary Basis Set <=

  Basis Set: 
    Number of shells: 360
    Number of basis function: 1112
    Number of Cartesian functions: 1328
    Spherical Harmonics?: true
    Max angular momentum: 4

  Minimum eigenvalue in the overlap matrix is 2.5832957518E-04.
  Using Symmetric Orthogonalization.
  SCF Guess: Core (One-Electron) Hamiltonian.

  ==> Iterations <==

                           Total Energy        Delta E     RMS |[F,P]|

   @DF-RHF iter   1:  -235.70731403957052   -2.35707e+02   3.35623e-02 
   @DF-RHF iter   2:   -20.66835012643651    2.15039e+02   3.97730e-02 DIIS
   @DF-RHF iter   3:  -220.57561304656963   -1.99907e+02   1.91260e-02 DIIS
   @DF-RHF iter   4:  -167.64394667097849    5.29317e+01   2.70087e-02 DIIS
   @DF-RHF iter   5:  -282.07544917929692   -1.14432e+02   1.47668e-02 DIIS
   @DF-RHF iter   6:  -271.68494791025842    1.03905e+01   2.02660e-02 DIIS
   @DF-RHF iter   7:  -322.16295776412312   -5.04780e+01   1.26225e-02 DIIS
   @DF-RHF iter   8:  -341.04697675126124   -1.88840e+01   6.27764e-03 DIIS
   @DF-RHF iter   9:  -348.80490417375813   -7.75793e+00   2.26276e-03 DIIS
   @DF-RHF iter  10:  -349.34077192651603   -5.35868e-01   5.88892e-04 DIIS
   @DF-RHF iter  11:  -349.37443427257324   -3.36623e-02   1.77229e-04 DIIS
   @DF-RHF iter  12:  -349.37840168564912   -3.96741e-03   7.40958e-05 DIIS
   @DF-RHF iter  13:  -349.37909600904277   -6.94323e-04   1.86419e-05 DIIS
   @DF-RHF iter  14:  -349.37915383642508   -5.78274e-05   8.75055e-06 DIIS
   @DF-RHF iter  15:  -349.37916470744028   -1.08710e-05   2.51197e-06 DIIS
   @DF-RHF iter  16:  -349.37916571322910   -1.00579e-06   7.80349e-07 DIIS
   @DF-RHF iter  17:  -349.37916581760237   -1.04373e-07   1.88441e-07 DIIS
   @DF-RHF iter  18:  -349.37916582506523   -7.46286e-09   5.52076e-08 DIIS
   @DF-RHF iter  19:  -349.37916582579044   -7.25208e-10   1.55074e-08 DIIS
   @DF-RHF iter  20:  -349.37916582584376   -5.33191e-11   4.40545e-09 DIIS

  ==> Post-Iterations <==

    Orbital Energies (a.u.)
    -----------------------

    Doubly Occupied:                                                      

       1A    -20.546350     2A    -11.265614     3A    -11.215312  
       4A    -11.211334     5A    -11.211184     6A    -11.209092  
       7A    -11.208791     8A    -11.205893     9A     -1.364163  
      10A     -1.089283    11A     -1.049506    12A     -0.989320  
      13A     -0.915177    14A     -0.844227    15A     -0.798453  
      16A     -0.787265    17A     -0.681825    18A     -0.657057  
      19A     -0.630408    20A     -0.615931    21A     -0.595967  
      22A     -0.585352    23A     -0.551133    24A     -0.539975  
      25A     -0.532599    26A     -0.503984    27A     -0.495269  
      28A     -0.471070    29A     -0.469142    30A     -0.460407  
      31A     -0.456106    32A     -0.454947    33A     -0.421092  

    Virtual:                                                              

      34A      0.138752    35A      0.146045    36A      0.159843  
      37A      0.166688    38A      0.169879    39A      0.182678  
      40A      0.197214    41A      0.207513    42A      0.218162  
      43A      0.226304    44A      0.236217    45A      0.241577  
      46A      0.250344    47A      0.260664    48A      0.268614  
      49A      0.287226    50A      0.302894    51A      0.324748  
      52A      0.339163    53A      0.349787    54A      0.364151  
      55A      0.373443    56A      0.386054    57A      0.399062  
      58A      0.418970    59A      0.441398    60A      0.450905  
      61A      0.465033    62A      0.471634    63A      0.486552  
      64A      0.509417    65A      0.514739    66A      0.516884  
      67A      0.530955    68A      0.553274    69A      0.563695  
      70A      0.576514    71A      0.580569    72A      0.589917  
      73A      0.599756    74A      0.614458    75A      0.621496  
      76A      0.629299    77A      0.635648    78A      0.639186  
      79A      0.650068    80A      0.656729    81A      0.660768  
      82A      0.663791    83A      0.669424    84A      0.672454  
      85A      0.684176    86A      0.690497    87A      0.698597  
      88A      0.701079    89A      0.717758    90A      0.727555  
      91A      0.733770    92A      0.739068    93A      0.756358  
      94A      0.777467    95A      0.809981    96A      0.823163  
      97A      0.834814    98A      0.847018    99A      0.857644  
     100A      0.885026   101A      0.895608   102A      0.913530  
     103A      0.937312   104A      0.943267   105A      0.966504  
     106A      0.994355   107A      0.995825   108A      1.002692  
     109A      1.014568   110A      1.026194   111A      1.027882  
     112A      1.044350   113A      1.056100   114A      1.084638  
     115A      1.093296   116A      1.110045   117A      1.136501  
     118A      1.145843   119A      1.152188   120A      1.181080  
     121A      1.184534   122A      1.214989   123A      1.235135  
     124A      1.239111   125A      1.247910   126A      1.264044  
     127A      1.277586   128A      1.279779   129A      1.291600  
     130A      1.298814   131A      1.308435   132A      1.318576  
     133A      1.323402   134A      1.332201   135A      1.340922  
     136A      1.344937   137A      1.353865   138A      1.369402  
     139A      1.374359   140A      1.393412   141A      1.407174  
     142A      1.411397   143A      1.421810   144A      1.436148  
     145A      1.454729   146A      1.457682   147A      1.475402  
     148A      1.478906   149A      1.490771   150A      1.492397  
     151A      1.509113   152A      1.513898   153A      1.515813  
     154A      1.527363   155A      1.545383   156A      1.559105  
     157A      1.570399   158A      1.579707   159A      1.585087  
     160A      1.592280   161A      1.601190   162A      1.628500  
     163A      1.632158   164A      1.640278   165A      1.658954  
     166A      1.661054   167A      1.691666   168A      1.697248  
     169A      1.708140   170A      1.725031   171A      1.743219  
     172A      1.746462   173A      1.768655   174A      1.788592  
     175A      1.808234   176A      1.812322   177A      1.826017  
     178A      1.834044   179A      1.839084   180A      1.846026  
     181A      1.885016   182A      1.907702   183A      1.942898  
     184A      1.961276   185A      1.969318   186A      2.019058  
     187A      2.063861   188A      2.153032   189A      2.249316  
     190A      2.294744   191A      2.369324   192A      2.431408  
     193A      2.516227   194A      2.556982   195A      2.592711  
     196A      2.626188   197A      2.656457   198A      2.664266  
     199A      2.677229   200A      2.686542   201A      2.695103  
     202A      2.719330   203A      2.735553   204A      2.739586  
     205A      2.774024   206A      2.788582   207A      2.794003  
     208A      2.810346   209A      2.816242   210A      2.832057  
     211A      2.850595   212A      2.861515   213A      2.875387  
     214A      2.894381   215A      2.900622   216A      2.913174  
     217A      2.933505   218A      2.949128   219A      2.957331  
     220A      2.980008   221A      2.996752   222A      3.005245  
     223A      3.022495   224A      3.029842   225A      3.039787  
     226A      3.066576   227A      3.071008   228A      3.092700  
     229A      3.101898   230A      3.129371   231A      3.132476  
     232A      3.154637   233A      3.164883   234A      3.200091  
     235A      3.218843   236A      3.232577   237A      3.243948  
     238A      3.254236   239A      3.267345   240A      3.271505  
     241A      3.285711   242A      3.307209   243A      3.316995  
     244A      3.328993   245A      3.336809   246A      3.351121  
     247A      3.353230   248A      3.368798   249A      3.378541  
     250A      3.387282   251A      3.390047   252A      3.407799  
     253A      3.413366   254A      3.415917   255A      3.425592  
     256A      3.433818   257A      3.438982   258A      3.447968  
     259A      3.452798   260A      3.460633   261A      3.469777  
     262A      3.479087   263A      3.496241   264A      3.504785  
     265A      3.515225   266A      3.521561   267A      3.544138  
     268A      3.548303   269A      3.564332   270A      3.570030  
     271A      3.575643   272A      3.583418   273A      3.590561  
     274A      3.612272   275A      3.614473   276A      3.628572  
     277A      3.637126   278A      3.650206   279A      3.669278  
     280A      3.687595   281A      3.716278   282A      3.727150  
     283A      3.744618   284A      3.762437   285A      3.786274  
     286A      3.800305   287A      3.810870   288A      3.820475  
     289A      3.832814   290A      3.840060   291A      3.855173  
     292A      3.869201   293A      3.877861   294A      3.889870  
     295A      3.903946   296A      3.921098   297A      3.932156  
     298A      3.940054   299A      3.949672   300A      3.958733  
     301A      3.983440   302A      3.995274   303A      4.003310  
     304A      4.031938   305A      4.046823   306A      4.050148  
     307A      4.081843   308A      4.096000   309A      4.101777  
     310A      4.114998   311A      4.121663   312A      4.135328  
     313A      4.144896   314A      4.164730   315A      4.169812  
     316A      4.176024   317A      4.181581   318A      4.192431  
     319A      4.199213   320A      4.204399   321A      4.218929  
     322A      4.228001   323A      4.230657   324A      4.236850  
     325A      4.252528   326A      4.276447   327A      4.281513  
     328A      4.304216   329A      4.310761   330A      4.319290  
     331A      4.337900   332A      4.353745   333A      4.360191  
     334A      4.369675   335A      4.375317   336A      4.382522  
     337A      4.384541   338A      4.401633   339A      4.412140  
     340A      4.425461   341A      4.436743   342A      4.449425  
     343A      4.463859   344A      4.474328   345A      4.482338  
     346A      4.489163   347A      4.506485   348A      4.511505  
     349A      4.530594   350A      4.548994   351A      4.552709  
     352A      4.570866   353A      4.582054   354A      4.600391  
     355A      4.609670   356A      4.615885   357A      4.633147  
     358A      4.638982   359A      4.661302   360A      4.668073  
     361A      4.681547   362A      4.691941   363A      4.697282  
     364A      4.714834   365A      4.727771   366A      4.731935  
     367A      4.761852   368A      4.764072   369A      4.792579  
     370A      4.796483   371A      4.825927   372A      4.835540  
     373A      4.869481   374A      4.896519   375A      4.958765  
     376A      4.977374   377A      4.995401   378A      5.019199  
     379A      5.029079   380A      5.061841   381A      5.064815  
     382A      5.083273   383A      5.130934   384A      5.135471  
     385A      5.154689   386A      5.168484   387A      5.189392  
     388A      5.195659   389A      5.214028   390A      5.217072  
     391A      5.225044   392A      5.258749   393A      5.269268  
     394A      5.278218   395A      5.286325   396A      5.306575  
     397A      5.319730   398A      5.333135   399A      5.354572  
     400A      5.363166   401A      5.384780   402A      5.403286  
     403A      5.410604   404A      5.452237   405A      5.470668  
     406A      5.484860   407A      5.508043   408A      5.517356  
     409A      5.547947   410A      5.568751   411A      5.597284  
     412A      5.618744   413A      5.645306   414A      5.649837  
     415A      5.738488   416A      5.749736   417A      5.749935  
     418A      5.768281   419A      5.784224   420A      5.811519  
     421A      5.829168   422A      5.836985   423A      5.844244  
     424A      5.865507   425A      5.889315   426A      5.894848  
     427A      5.906855   428A      5.921942   429A      5.930066  
     430A      5.956998   431A      5.965376   432A      5.994400  
     433A      6.020497   434A      6.048578   435A      6.058635  
     436A      6.104176   437A      6.131721   438A      6.217220  
     439A      6.288841   440A      6.326281   441A      6.334539  
     442A      6.350215   443A      6.373917   444A      6.409653  
     445A      6.460791   446A      6.504916   447A      6.537576  
     448A      6.760573   449A      7.077632   450A      7.178271  
     451A      7.265780   452A      7.301381   453A      7.427798  
     454A      7.534269   455A      7.722808   456A      8.028989  
     457A     12.799968   458A     13.008485   459A     13.338979  
     460A     13.526999   461A     13.667805   462A     13.836190  
     463A     14.068902   464A     14.306868  

    Final Occupation by Irrep:
              A 
    DOCC [    33 ]

  Energy converged.

  @DF-RHF Final Energy:  -349.37916582584376

   => Energetics <=

    Nuclear Repulsion Energy =            380.8124297499264230
    One-Electron Energy =               -1228.3167337306033460
    Two-Electron Energy =                 498.1251381548332233
    DFT Exchange-Correlation Energy =       0.0000000000000000
    Empirical Dispersion Energy =           0.0000000000000000
    PCM Polarization Energy =               0.0000000000000000
    EFP Energy =                            0.0000000000000000
    Total Energy =                       -349.3791658258436996

    Alert: EFP and PCM quantities not currently incorporated into SCF psivars.

Properties will be evaluated at   0.000000,   0.000000,   0.000000 Bohr
  ==> Properties <==


Properties computed using the SCF density matrix

  Nuclear Dipole Moment: (a.u.)
     X:     8.2848      Y:    -0.5436      Z:     1.2265

  Electronic Dipole Moment: (a.u.)
     X:    -8.1244      Y:     0.9366      Z:    -0.7425

  Dipole Moment: (a.u.)
     X:     0.1604      Y:     0.3930      Z:     0.4840     Total:     0.6438

  Dipole Moment: (Debye)
     X:     0.4078      Y:     0.9989      Z:     1.2303     Total:     1.6364


  Saving occupied orbitals to File 180.

*** tstop() called on cx1-27-1-3 at Fri Sep  9 20:40:27 2016
Module time:
	user time   =     117.27 seconds =       1.95 minutes
	system time =       1.52 seconds =       0.03 minutes
	total time  =         34 seconds =       0.57 minutes
Total time:
	user time   =     117.27 seconds =       1.95 minutes
	system time =       1.52 seconds =       0.03 minutes
	total time  =         34 seconds =       0.57 minutes

*** tstart() called on cx1-27-1-3
*** at Fri Sep  9 20:40:27 2016


         ------------------------------------------------------------
                                   SCF GRAD                          
                          Rob Parrish, Justin Turney,                
                       Andy Simmonett, and Alex Sokolov              
         ------------------------------------------------------------

  ==> Geometry <==

    Molecular point group: c1
    Full point group: C1

    Geometry (in Angstrom), charge = 0, multiplicity = 1:

       Center              X                  Y                   Z               Mass       
    ------------   -----------------  -----------------  -----------------  -----------------
           H         -3.513637832508     1.450717895846    -0.906634176583     1.007825032070
           O         -3.535760832508     0.513033895846    -0.843607176583    15.994914619560
           C         -3.253799832508     0.116949895846     0.472858823417    12.000000000000
           C         -1.840535832508     0.463039895846     0.916948823417    12.000000000000
           H         -3.398989832508    -0.955664104154     0.496759823417     1.007825032070
           H         -3.972632832508     0.555158895846     1.160639823417     1.007825032070
           C         -0.750554832508    -0.229174104154     0.103865823417    12.000000000000
           H         -1.708213832508     1.542686895846     0.864817823417     1.007825032070
           H         -1.741751832508     0.196149895846     1.966424823417     1.007825032070
           C          0.660677167492     0.154614895846     0.541016823417    12.000000000000
           H         -0.883267832508     0.007255895846    -0.946087176583     1.007825032070
           H         -0.874385832508    -1.305979104154     0.191403823417     1.007825032070
           C          1.746835167492    -0.545450104154    -0.273365176583    12.000000000000
           H          0.773423167492     1.231550895846     0.461097823417     1.007825032070
           H          0.791422167492    -0.088540104154     1.593460823417     1.007825032070
           C          3.178792167492    -0.255293104154     0.179576823417    12.000000000000
           H          1.641085167492    -0.272825104154    -1.320906176583     1.007825032070
           H          1.580940167492    -1.618076104154    -0.222646176583     1.007825032070
           C          4.227699167492    -0.339595104154    -0.926692176583    12.000000000000
           H          3.441036167492    -0.962001104154     0.960964823417     1.007825032070
           H          3.217176167492     0.729577895846     0.637807823417     1.007825032070
           H          4.208625167492    -1.312455104154    -1.407584176583     1.007825032070
           H          5.223354167492    -0.190713104154    -0.524514176583     1.007825032070
           H          4.071357167492     0.410672895846    -1.692369176583     1.007825032070

  Nuclear repulsion =  380.812429749926366

  ==> Basis Set <==

  Basis Set: CC-PVTZ
    Number of shells: 176
    Number of basis function: 464
    Number of Cartesian functions: 520
    Spherical Harmonics?: true
    Max angular momentum: 3

  ==> DFJKGrad: Density-Fitted SCF Gradients <==

    Gradient:                    1
    J tasked:                  Yes
    K tasked:                  Yes
    wK tasked:                  No
    OpenMP threads:              4
    Integrals threads:           4
    Memory (MB):              1430
    Schwarz Cutoff:          0E+00
    Fitting Condition:       1E-12

   => Auxiliary Basis Set <=

  Basis Set: 
    Number of shells: 360
    Number of basis function: 1112
    Number of Cartesian functions: 1328
    Spherical Harmonics?: true
    Max angular momentum: 4


  -Total Gradient:
     Atom            X                  Y                   Z
    ------   -----------------  -----------------  -----------------
       1       -0.000001114339     0.000025698964    -0.000025064905
       2       -0.000033322195     0.000061947174    -0.000042855972
       3        0.000026297258    -0.000090081221     0.000013167096
       4       -0.000034347486     0.000014841328    -0.000033705534
       5        0.000018296651    -0.000006331642     0.000043117668
       6        0.000007920401     0.000005061311     0.000003054222
       7        0.000045022762     0.000212044210    -0.000212876361
       8        0.000013290607    -0.000010100115    -0.000008597347
       9       -0.000001855026    -0.000010755093     0.000010023458
      10       -0.000425913932     0.002571358940    -0.001073371753
      11       -0.000068630665    -0.000009161782     0.000026468425
      12        0.000044425930    -0.000048525859    -0.000004444457
      13        0.000404641938     0.001572362685     0.005249174497
      14       -0.001770415658    -0.000818913131     0.000407952961
      15        0.000112453389    -0.000333077958    -0.000205984311
      16       -0.000502776115    -0.002651588880    -0.004676538326
      17        0.001482666664    -0.000839468668    -0.000657253437
      18        0.000705274109     0.000141467354     0.002214044623
      19        0.000549116201     0.002488951905    -0.001232419497
      20       -0.000796025423    -0.001596091364    -0.001563030129
      21       -0.001327568767    -0.000181425015     0.001180156982
      22       -0.000133912516    -0.000140673216     0.000323418487
      23       -0.000135254243     0.000280389765    -0.000061228620
      24        0.001821730447    -0.000637929692     0.000326792228


*** tstop() called on cx1-27-1-3 at Fri Sep  9 20:41:23 2016
Module time:
	user time   =     214.53 seconds =       3.58 minutes
	system time =       0.94 seconds =       0.02 minutes
	total time  =         56 seconds =       0.93 minutes
Total time:
	user time   =     331.81 seconds =       5.53 minutes
	system time =       2.46 seconds =       0.04 minutes
	total time  =         90 seconds =       1.50 minutes
CURRENT ENERGY: -349.3791658258

			-----------------------------------------
			 OPTKING 2.0: for geometry optimizations 
			  - R.A. King,  Bethel University        
			-----------------------------------------

	Internal coordinates to be generated automatically.
	Detected frag with atoms:  1 2 3 4 5 6 7 8 9 10 11 12 13 14 15 16 17 18 19 20
	 21 22 23 24
	---Fragment 1 Bond Connectivity---
	 1 : 2
	 2 : 1 3
	 3 : 2 4 5 6
	 4 : 3 7 8 9
	 5 : 3
	 6 : 3
	 7 : 4 10 11 12
	 8 : 4
	 9 : 4
	 10 : 7 13 14 15
	 11 : 7
	 12 : 7
	 13 : 10 16 17 18
	 14 : 10
	 15 : 10
	 16 : 13 19 20 21
	 17 : 13
	 18 : 13
	 19 : 16 22 23 24
	 20 : 16
	 21 : 16
	 22 : 19
	 23 : 19
	 24 : 19

	Assuming in current code that numbering for constraints corresponds to unified fragment.
	Frozen dihedral atom list: 
	    20    16    13    17
	---Fragment 1 Geometry and Gradient---
	 H          -6.6398132336        2.7414595192       -1.7132902965
	 O          -6.6816196448        0.9694935600       -1.5941865275
	 C          -6.1487905747        0.2210032744        0.8935736758
	 C          -3.4781086612        0.8750185917        1.7327821541
	 H          -6.4231599119       -1.8059434319        0.9387400201
	 H          -7.5071880800        1.0490982734        2.1932914052
	 C          -1.4183430812       -0.4330762936        0.1962779608
	 H          -3.2280563198        2.9152557419        1.6342688411
	 H          -3.2914339549        0.3706695841        3.7160043772
	 C           1.2484989088        0.2921798092        1.0223736295
	 H          -1.6691343054        0.0137116560       -1.7878456616
	 H          -1.6523497579       -2.4679428421        0.3617008070
	 C           3.3010400659       -1.0307513160       -0.5165853180
	 H           1.4615579714        2.3272939119        0.8713486067
	 H           1.4955711521       -0.1673165486        3.0112045597
	 C           6.0070466299       -0.4824340505        0.3393510161
	 H           3.1012015273       -0.5155647290       -2.4961509210
	 H           2.9875439490       -3.0577206990       -0.4207402983
	 C           7.9891935988       -0.6417417429       -1.7511944232
	 H           6.5026159699       -1.8179186264        1.8159603396
	 H           6.0795818778        1.3787024158        1.2052821117
	 H           7.9531489625       -2.4801807086       -2.6599486027
	 H           9.8707088716       -0.3603955368       -0.9911881466
	 H           7.6937500357        0.7760593033       -3.1981142595
	            -0.0000011143        0.0000256990       -0.0000250649
	            -0.0000333222        0.0000619472       -0.0000428560
	             0.0000262973       -0.0000900812        0.0000131671
	            -0.0000343475        0.0000148413       -0.0000337055
	             0.0000182967       -0.0000063316        0.0000431177
	             0.0000079204        0.0000050613        0.0000030542
	             0.0000450228        0.0002120442       -0.0002128764
	             0.0000132906       -0.0000101001       -0.0000085973
	            -0.0000018550       -0.0000107551        0.0000100235
	            -0.0004259139        0.0025713589       -0.0010733718
	            -0.0000686307       -0.0000091618        0.0000264684
	             0.0000444259       -0.0000485259       -0.0000044445
	             0.0004046419        0.0015723627        0.0052491745
	            -0.0017704157       -0.0008189131        0.0004079530
	             0.0001124534       -0.0003330780       -0.0002059843
	            -0.0005027761       -0.0026515889       -0.0046765383
	             0.0014826667       -0.0008394687       -0.0006572534
	             0.0007052741        0.0001414674        0.0022140446
	             0.0005491162        0.0024889519       -0.0012324195
	            -0.0007960254       -0.0015960914       -0.0015630301
	            -0.0013275688       -0.0001814250        0.0011801570
	            -0.0001339125       -0.0001406732        0.0003234185
	            -0.0001352542        0.0002803898       -0.0000612286
	             0.0018217304       -0.0006379297        0.0003267922

	Previous optimization step data not found.  Starting new optimization.

	---Fragment 1 Intrafragment Coordinates---
	 - Coordinate -           - BOHR/RAD -       - ANG/DEG -
	 R(1,2)           =         1.776456	       0.940060
	 R(2,3)           =         2.651998	       1.403377
	 R(3,4)           =         2.874813	       1.521286
	 R(3,5)           =         2.045930	       1.082660
	 R(3,6)           =         2.054325	       1.087102
	 R(4,7)           =         2.883503	       1.525884
	 R(4,8)           =         2.057863	       1.088974
	 R(4,9)           =         2.054844	       1.087377
	 R(7,10)          =         2.884524	       1.526424
	 R(7,11)          =         2.049210	       1.084395
	 R(7,12)          =         2.054947	       1.087431
	 R(10,13)         =         2.886428	       1.527432
	 R(10,14)         =         2.051802	       1.085767
	 R(10,15)         =         2.056120	       1.088052
	 R(13,16)         =         2.890631	       1.529656
	 R(13,17)         =         2.055245	       1.087589
	 R(13,18)         =         2.053307	       1.086564
	 R(16,19)         =         2.885250	       1.526808
	 R(16,20)         =         2.051702	       1.085714
	 R(16,21)         =         2.054003	       1.086931
	 R(19,22)         =         2.051095	       1.085393
	 R(19,23)         =         2.048625	       1.084086
	 R(19,24)         =         2.047199	       1.083331
	 B(1,2,3)         =         1.917382	     109.857880
	 B(2,3,4)         =         1.978258	     113.345861
	 B(2,3,5)         =         1.847704	     105.865657
	 B(2,3,6)         =         1.925028	     110.295994
	 B(3,4,7)         =         1.987611	     113.881728
	 B(3,4,8)         =         1.901235	     108.932738
	 B(3,4,9)         =         1.886305	     108.077317
	 B(4,3,5)         =         1.921465	     110.091821
	 B(4,3,6)         =         1.915473	     109.748538
	 B(4,7,10)        =         1.975509	     113.188316
	 B(4,7,11)        =         1.906681	     109.244779
	 B(4,7,12)        =         1.901783	     108.964112
	 B(5,3,6)         =         1.872048	     107.260452
	 B(7,4,8)         =         1.915008	     109.721893
	 B(7,4,9)         =         1.915639	     109.758006
	 B(7,10,13)       =         1.970891	     112.923739
	 B(7,10,14)       =         1.901077	     108.923706
	 B(7,10,15)       =         1.909138	     109.385572
	 B(8,4,9)         =         1.853035	     106.171057
	 B(10,7,11)       =         1.913062	     109.610374
	 B(10,7,12)       =         1.908372	     109.341639
	 B(10,13,16)      =         2.005198	     114.889392
	 B(10,13,17)      =         1.906577	     109.238824
	 B(10,13,18)      =         1.895462	     108.601958
	 B(11,7,12)       =         1.854492	     106.254557
	 B(13,10,14)      =         1.919325	     109.969210
	 B(13,10,15)      =         1.904820	     109.138157
	 B(13,16,19)      =         2.002142	     114.714258
	 B(13,16,20)      =         1.892044	     108.406144
	 B(13,16,21)      =         1.906855	     109.254726
	 B(14,10,15)      =         1.854985	     106.282831
	 B(16,13,17)      =         1.905700	     109.188547
	 B(16,13,18)      =         1.892686	     108.442923
	 B(16,19,22)      =         1.937393	     111.004461
	 B(16,19,23)      =         1.933251	     110.767103
	 B(16,19,24)      =         1.954895	     112.007231
	 B(17,13,18)      =         1.852058	     106.115102
	 B(19,16,20)      =         1.896094	     108.638193
	 B(19,16,21)      =         1.908406	     109.343595
	 B(20,16,21)      =         1.852355	     106.132136
	 B(22,19,23)      =         1.879268	     107.674111
	 B(22,19,24)      =         1.880810	     107.762493
	 B(23,19,24)      =         1.875108	     107.435747
	 D(1,2,3,4)       =        -1.135895	     -65.081972
	 D(1,2,3,5)       =         3.039395	     174.144510
	 D(1,2,3,6)       =         1.019675	      58.423088
	 D(2,3,4,7)       =        -1.089366	     -62.416066
	 D(2,3,4,8)       =         1.054284	      60.406016
	 D(2,3,4,9)       =         3.060386	     175.347189
	 D(3,4,7,10)      =         3.117777	     178.635459
	 D(3,4,7,11)      =         0.980963	      56.205063
	 D(3,4,7,12)      =        -1.038154	     -59.481819
	 D(4,7,10,13)     =         3.137973	     179.792631
	 D(4,7,10,14)     =        -1.007570	     -57.729496
	 D(4,7,10,15)     =         1.013097	      58.046163
	 D(5,3,4,7)       =         0.976321	      55.939057
	 D(5,3,4,8)       =         3.119970	     178.761138
	 D(5,3,4,9)       =        -1.157113	     -66.297688
	 D(6,3,4,7)       =         3.033020	     173.779226
	 D(6,3,4,8)       =        -1.106516	     -63.398692
	 D(6,3,4,9)       =         0.899586	      51.542481
	 D(7,10,13,16)    =        -3.083034	    -176.644830
	 D(7,10,13,17)    =         1.052152	      60.283844
	 D(7,10,13,18)    =        -0.960542	     -55.034980
	 D(8,4,7,10)      =         0.981679	      56.246076
	 D(8,4,7,11)      =        -1.155134	     -66.184320
	 D(8,4,7,12)      =         3.108934	     178.128799
	 D(9,4,7,10)      =        -1.048208	     -60.057873
	 D(9,4,7,11)      =         3.098164	     177.511731
	 D(9,4,7,12)      =         1.079047	      61.824850
	 D(10,13,16,19)   =        -2.644192	    -151.501024
	 D(10,13,16,20)   =         1.516722	      86.901790
	 D(10,13,16,21)   =        -0.494612	     -28.339197
	 D(11,7,10,13)    =        -1.011954	     -57.980719
	 D(11,7,10,14)    =         1.125688	      64.497155
	 D(11,7,10,15)    =        -3.136831	    -179.727187
	 D(12,7,10,13)    =         1.014413	      58.121576
	 D(12,7,10,14)    =        -3.131130	    -179.400551
	 D(12,7,10,15)    =        -1.110464	     -63.624892
	 D(13,16,19,22)   =        -0.986875	     -56.543752
	 D(13,16,19,23)   =        -3.073674	    -176.108545
	 D(13,16,19,24)   =         1.116379	      63.963784
	 D(14,10,13,16)   =         1.072746	      61.463831
	 D(14,10,13,17)   =        -1.075254	     -61.607495
	 D(14,10,13,18)   =        -3.087947	    -176.926319
	 D(15,10,13,16)   =        -0.955725	     -54.759006
	 D(15,10,13,17)   =        -3.103725	    -177.830331
	 D(15,10,13,18)   =         1.166767	      66.850844
	 D(17,13,16,19)   =        -0.495722	     -28.402804
	*D(17,13,16,20)   =        -2.617994	    -149.999991
	 D(17,13,16,21)   =         1.653857	      94.759023
	 D(18,13,16,19)   =         1.514993	      86.802697
	 D(18,13,16,20)   =        -0.607278	     -34.794489
	 D(18,13,16,21)   =        -2.618613	    -150.035476
	 D(20,16,19,22)   =         1.133185	      64.926738
	 D(20,16,19,23)   =        -0.953614	     -54.638054
	 D(20,16,19,24)   =        -3.046747	    -174.565725
	 D(21,16,19,22)   =        -3.135622	    -179.657910
	 D(21,16,19,23)   =         1.060764	      60.777297
	 D(21,16,19,24)   =        -1.032369	     -59.150374

	Current energy   :      -349.3791658258

	Generating empirical Hessian (Schlegel '84) for each fragment.
	Taking RFO optimization step.
	Going to follow RFO solution 1.
	Using RFO vector 1.
	Norm of target step-size    0.18088
	Projected energy change by RFO approximation:        -0.0020872146

	Back-transformation to cartesian coordinates...
	Successfully converged to displaced geometry.

	Back-transformation to cartesian coordinates to adjust frozen coordinates...
	Successfully converged to displaced geometry.

	--- Internal Coordinate Step in ANG or DEG, aJ/ANG or AJ/DEG ---
	 ---------------------------------------------------------------------------
	   Coordinate                Previous        Force       Change         New 
	   ----------                --------       ------       ------       ------
	    1 R(1,2)          =      0.940060    -0.000225    -0.000024     0.940036
	    2 R(2,3)          =      1.403377    -0.000786    -0.000112     1.403265
	    3 R(3,4)          =      1.521286     0.000111     0.000023     1.521309
	    4 R(3,5)          =      1.082660    -0.000039    -0.000007     1.082653
	    5 R(3,6)          =      1.087102     0.000010     0.000002     1.087104
	    6 R(4,7)          =      1.525884     0.000187     0.000040     1.525925
	    7 R(4,8)          =      1.088974     0.000066     0.000012     1.088986
	    8 R(4,9)          =      1.087377    -0.000100    -0.000018     1.087359
	    9 R(7,10)         =      1.526424    -0.000125    -0.000027     1.526397
	   10 R(7,11)         =      1.084395     0.000158     0.000029     1.084424
	   11 R(7,12)         =      1.087431    -0.000351    -0.000064     1.087367
	   12 R(10,13)        =      1.527432    -0.013175    -0.002844     1.524588
	   13 R(10,14)        =      1.085767     0.008454     0.001534     1.087301
	   14 R(10,15)        =      1.088052     0.000917     0.000168     1.088220
	   15 R(13,16)        =      1.529656     0.021770     0.004732     1.534389
	   16 R(13,17)        =      1.087589    -0.002294    -0.000419     1.087170
	   17 R(13,18)        =      1.086564     0.001186     0.000216     1.086779
	   18 R(16,19)        =      1.526808    -0.014831    -0.003195     1.523613
	   19 R(16,20)        =      1.085714     0.002293     0.000416     1.086130
	   20 R(16,21)        =      1.086931    -0.002358    -0.000430     1.086502
	   21 R(19,22)        =      1.085393     0.000122     0.000022     1.085415
	   22 R(19,23)        =      1.084086     0.000893     0.000161     1.084247
	   23 R(19,24)        =      1.083331     0.007709     0.001387     1.084719
	   24 B(1,2,3)        =    109.857880    -0.000003    -0.014605   109.843275
	   25 B(2,3,4)        =    113.345861    -0.000001    -0.005997   113.339864
	   26 B(2,3,5)        =    105.865657    -0.000003    -0.033762   105.831895
	   27 B(2,3,6)        =    110.295994     0.000001     0.013353   110.309348
	   28 B(3,4,7)        =    113.881728    -0.000001    -0.003634   113.878094
	   29 B(3,4,8)        =    108.932738    -0.000000    -0.007656   108.925082
	   30 B(3,4,9)        =    108.077317     0.000001     0.005673   108.082990
	   31 B(4,3,5)        =    110.091821     0.000002     0.005761   110.097582
	   32 B(4,3,6)        =    109.748538     0.000001     0.016475   109.765013
	   33 B(4,7,10)       =    113.188316    -0.000002    -0.009533   113.178784
	   34 B(4,7,11)       =    109.244779     0.000004     0.014978   109.259757
	   35 B(4,7,12)       =    108.964112    -0.000002    -0.004641   108.959471
	   36 B(5,3,6)        =    107.260452    -0.000000     0.003015   107.263468
	   37 B(7,4,8)        =    109.721893     0.000001     0.000922   109.722815
	   38 B(7,4,9)        =    109.758006     0.000001     0.008327   109.766333
	   39 B(7,10,13)      =    112.923739     0.000061     0.250174   113.173913
	   40 B(7,10,14)      =    108.923706     0.000069     0.441973   109.365679
	   41 B(7,10,15)      =    109.385572    -0.000034     0.106272   109.491844
	   42 B(8,4,9)        =    106.171057    -0.000001    -0.003699   106.167358
	   43 B(10,7,11)      =    109.610374    -0.000004    -0.036859   109.573515
	   44 B(10,7,12)      =    109.341639     0.000004     0.031221   109.372860
	   45 B(10,13,16)     =    114.889392    -0.000387    -1.021709   113.867683
	   46 B(10,13,17)     =    109.238824     0.000109     0.958912   110.197736
	   47 B(10,13,18)     =    108.601958     0.000087     0.120974   108.722932
	   48 B(11,7,12)      =    106.254557    -0.000000     0.006011   106.260568
	   49 B(13,10,14)     =    109.969210    -0.000123    -0.935081   109.034128
	   50 B(13,10,15)     =    109.138157     0.000020     0.238818   109.376975
	   51 B(13,16,19)     =    114.714258    -0.000415    -1.773022   112.941236
	   52 B(13,16,20)     =    108.406144     0.000211     1.022357   109.428501
	   53 B(13,16,21)     =    109.254726     0.000171     1.052393   110.307119
	   54 B(14,10,15)     =    106.282831     0.000004    -0.126308   106.156523
	   55 B(16,13,17)     =    109.188547     0.000154     0.770059   109.958606
	   56 B(16,13,18)     =    108.442923     0.000171     0.477330   108.920253
	   57 B(16,19,22)     =    111.004461     0.000056     0.220728   111.225189
	   58 B(16,19,23)     =    110.767103     0.000038     0.316911   111.084014
	   59 B(16,19,24)     =    112.007231    -0.000177    -0.929935   111.077296
	   60 B(17,13,18)     =    106.115102    -0.000117    -1.356831   104.758271
	   61 B(19,16,20)     =    108.638193     0.000043    -0.938801   107.699392
	   62 B(19,16,21)     =    109.343595     0.000079    -0.126167   109.217428
	   63 B(20,16,21)     =    106.132136    -0.000066     0.912536   107.044672
	   64 B(22,19,23)     =    107.674111    -0.000022     0.093399   107.767510
	   65 B(22,19,24)     =    107.762493     0.000028    -0.134023   107.628469
	   66 B(23,19,24)     =    107.435747     0.000083     0.460188   107.895935
	   67 D(1,2,3,4)      =    -65.081972    -0.000000    -0.035835   -65.117807
	   68 D(1,2,3,5)      =    174.144510    -0.000000    -0.016780   174.127730
	   69 D(1,2,3,6)      =     58.423088     0.000000    -0.008429    58.414659
	   70 D(2,3,4,7)      =    -62.416066     0.000001     0.137793   -62.278273
	   71 D(2,3,4,8)      =     60.406016     0.000000     0.130741    60.536756
	   72 D(2,3,4,9)      =    175.347189     0.000000     0.125414   175.472603
	   73 D(3,4,7,10)     =    178.635459    -0.000001    -0.003636   178.631822
	   74 D(3,4,7,11)     =     56.205063     0.000000     0.039375    56.244438
	   75 D(3,4,7,12)     =    -59.481819     0.000000     0.026541   -59.455278
	   76 D(4,7,10,13)    =    179.792631     0.000008     0.630178   180.422809
	   77 D(4,7,10,14)    =    -57.729496    -0.000007    -0.079346   -57.808842
	   78 D(4,7,10,15)    =     58.046163    -0.000001     0.076217    58.122380
	   79 D(5,3,4,7)      =     55.939057    -0.000000     0.095073    56.034130
	   80 D(5,3,4,8)      =    178.761138    -0.000000     0.088020   178.849159
	   81 D(5,3,4,9)      =    -66.297688    -0.000000     0.082694   -66.214994
	   82 D(6,3,4,7)      =    173.779226     0.000000     0.112154   173.891380
	   83 D(6,3,4,8)      =    -63.398692     0.000000     0.105101   -63.293591
	   84 D(6,3,4,9)      =     51.542481     0.000000     0.099774    51.642256
	   85 D(7,10,13,16)   =   -176.644830     0.000000    -0.959781  -177.604611
	   86 D(7,10,13,17)   =     60.283844    -0.000002    -1.978425    58.305420
	   87 D(7,10,13,18)   =    -55.034980     0.000006    -0.945182   -55.980161
	   88 D(8,4,7,10)     =     56.246076    -0.000000     0.008196    56.254272
	   89 D(8,4,7,11)     =    -66.184320     0.000000     0.051207   -66.133112
	   90 D(8,4,7,12)     =    178.128799     0.000000     0.038373   178.167171
	   91 D(9,4,7,10)     =    -60.057873    -0.000000     0.007327   -60.050545
	   92 D(9,4,7,11)     =    177.511731     0.000000     0.050339   177.562070
	   93 D(9,4,7,12)     =     61.824850     0.000000     0.037504    61.862354
	   94 D(10,13,16,19)  =   -151.501024    -0.000012    -2.760064  -154.261088
	   95 D(10,13,16,20)  =     86.901790     0.000003    -1.120584    85.781205
	   96 D(10,13,16,21)  =    -28.339197    -0.000026    -3.391814   -31.731011
	   97 D(11,7,10,13)   =    -57.980719     0.000008     0.615968   -57.364750
	   98 D(11,7,10,14)   =     64.497155    -0.000007    -0.093555    64.403599
	   99 D(11,7,10,15)   =   -179.727187    -0.000001     0.062008  -179.665179
	  100 D(12,7,10,13)   =     58.121576     0.000008     0.620099    58.741675
	  101 D(12,7,10,14)   =   -179.400551    -0.000007    -0.089424  -179.489975
	  102 D(12,7,10,15)   =    -63.624892    -0.000001     0.066139   -63.558754
	  103 D(13,16,19,22)  =    -56.543752     0.000002    -1.252959   -57.796712
	  104 D(13,16,19,23)  =   -176.108545    -0.000006    -1.727147  -177.835692
	  105 D(13,16,19,24)  =     63.963784    -0.000009    -1.901780    62.062004
	  106 D(14,10,13,16)  =     61.463831    -0.000009    -1.022562    60.441269
	  107 D(14,10,13,17)  =    -61.607495    -0.000011    -2.041206   -63.648701
	  108 D(14,10,13,18)  =   -176.926319    -0.000004    -1.007963  -177.934282
	  109 D(15,10,13,16)  =    -54.759006     0.000003    -0.481146   -55.240152
	  110 D(15,10,13,17)  =   -177.830331     0.000001    -1.499790  -179.330121
	  111 D(15,10,13,18)  =     66.850844     0.000008    -0.466546    66.384298
	  112 D(17,13,16,19)  =    -28.402804    -0.000015    -1.639480   -30.042284
	  113 *D(17,13,16,20) =   -149.999991    -0.000000     0.000000  -149.999991
	  114 D(17,13,16,21)  =     94.759023    -0.000029    -2.271230    92.487793
	  115 D(18,13,16,19)  =     86.802697    -0.000007    -2.578781    84.223916
	  116 D(18,13,16,20)  =    -34.794489     0.000008    -0.939301   -35.733791
	  117 D(18,13,16,21)  =   -150.035476    -0.000021    -3.210531  -153.246007
	  118 D(20,16,19,22)  =     64.926738     0.000008    -1.777955    63.148783
	  119 D(20,16,19,23)  =    -54.638054    -0.000000    -2.252143   -56.890197
	  120 D(20,16,19,24)  =   -174.565725    -0.000003    -2.426776  -176.992501
	  121 D(21,16,19,22)  =   -179.657910     0.000005    -1.275607  -180.933517
	  122 D(21,16,19,23)  =     60.777297    -0.000003    -1.749794    59.027503
	  123 D(21,16,19,24)  =    -59.150374    -0.000006    -1.924427   -61.074801
	 ---------------------------------------------------------------------------

  ==> Convergence Check <==

  Measures of convergence in internal coordinates in au.
  Criteria marked as inactive (o), active & met (*), and active & unmet ( ).
  --------------------------------------------------------------------------------------------- ~
   Step     Total Energy     Delta E     MAX Force     RMS Force      MAX Disp      RMS Disp    ~
  --------------------------------------------------------------------------------------------- ~
    Convergence Criteria    1.00e-06 *    3.00e-04 *             o    1.20e-03 *             o  ~
  --------------------------------------------------------------------------------------------- ~
      1    -349.37916583   -3.49e+02      5.45e-03      1.00e-03 o    5.92e-02      1.63e-02 o  ~
  ---------------------------------------------------------------------------------------------

	Writing optimization data to binary file.
	Structure for next step:
	Cartesian Geometry (in Angstrom)
	    H    -3.4991340589   1.4729556460  -0.8962696526
	    O    -3.5264997079   0.5346979361  -0.8453613768
	    C    -3.2514698444   0.1206389512   0.4669143712
	    C    -1.8376958249   0.4528755129   0.9199518521
	    H    -3.4028662641  -0.9513354044   0.4762517327
	    H    -3.9702780555   0.5540042951   1.1577864710
	    C    -0.7490115256  -0.2330502384   0.0997578196
	    H    -1.6997792676   1.5324896144   0.8838508892
	    H    -1.7432386359   0.1703812604   1.9657165221
	    C     0.6628374669   0.1371435094   0.5464431229
	    H    -0.8769214638   0.0198282817  -0.9469832737
	    H    -0.8790027977  -1.3102772041   0.1708293525
	    C     1.7504761589  -0.5402753094  -0.2797011265
	    H     0.7897415470   1.2152021086   0.4839260489
	    H     0.7916644613  -0.1226027721   1.5953270383
	    C     3.1759036671  -0.2249278512   0.1925921077
	    H     1.6412892544  -0.2799710115  -1.3295863133
	    H     1.5971009567  -1.6155741263  -0.2436758610
	    C     4.2110003434  -0.3501720388  -0.9183922157
	    H     3.4553457301  -0.9148154500   0.9835699866
	    H     3.2212271411   0.7761615872   0.6124159857
	    H     4.2048739965  -1.3457294642  -1.3507736584
	    H     5.2102640348  -0.1582262834  -0.5439319986
	    H     4.0130654173   0.3562218973  -1.7174189486
			--------------------------
			 OPTKING Finished Execution 
			--------------------------

    Structure for next step:
    Molecular point group: c1
    Full point group: C1

    Geometry (in Angstrom), charge = 0, multiplicity = 1:

    H           -3.499659568953     1.470430164642    -0.897307501478
    O           -3.527025215866     0.532172526339    -0.846399229533
    C           -3.251995373354     0.118113573110     0.465876418204
    C           -1.838221461853     0.450350109399     0.918913864505
    H           -3.403391781474    -0.953860700640     0.475213779057
    H           -3.970803529568     0.551478883954     1.156748465302
    C           -0.749537245701    -0.235575589450     0.098719894637
    H           -1.700304915097     1.529964128448     0.882812904424
    H           -1.743764280003     0.167855878494     1.964678454685
    C            0.662311639014     0.134618130069     0.545405163866
    H           -0.877447174103     0.017302911280    -0.948021118690
    H           -0.879528507824    -1.312802472960     0.169791422148
    C            1.749950247962    -0.542800636989    -0.280739022430
    H            0.789215709470     1.212676646957     0.482888094625
    H            0.791138623597    -0.125128131641     1.594288999198
    C            3.175377647283    -0.227453202940     0.191554175690
    H            1.640763351826    -0.282496359048    -1.330624129107
    H            1.596575057485    -1.618099371801    -0.244713759663
    C            4.210474244549    -0.352697380921    -0.919430062885
    H            3.454819688948    -0.917340749030     0.982531994145
    H            3.220701117841     0.773636159048     0.611378021662
    H            4.204347898169    -1.348254730296    -1.351811472507
    H            5.209737859690    -0.160751640237    -0.544969874382
    H            4.012539333575     0.353696501199    -1.718456734747

gradient() will perform analytic gradient computation.

*** tstart() called on cx1-27-1-3
*** at Fri Sep  9 20:41:24 2016


         ---------------------------------------------------------
                                   SCF
            by Justin Turney, Rob Parrish, and Andy Simmonett
                              RHF Reference
                        4 Threads,   2000 MiB Core
         ---------------------------------------------------------

  ==> Geometry <==

    Molecular point group: c1
    Full point group: C1

    Geometry (in Angstrom), charge = 0, multiplicity = 1:

       Center              X                  Y                   Z               Mass       
    ------------   -----------------  -----------------  -----------------  -----------------
           H         -3.499659568953     1.470430164642    -0.897307501478     1.007825032070
           O         -3.527025215866     0.532172526339    -0.846399229533    15.994914619560
           C         -3.251995373354     0.118113573110     0.465876418204    12.000000000000
           C         -1.838221461853     0.450350109399     0.918913864505    12.000000000000
           H         -3.403391781474    -0.953860700640     0.475213779057     1.007825032070
           H         -3.970803529568     0.551478883954     1.156748465302     1.007825032070
           C         -0.749537245701    -0.235575589450     0.098719894637    12.000000000000
           H         -1.700304915097     1.529964128448     0.882812904424     1.007825032070
           H         -1.743764280003     0.167855878494     1.964678454685     1.007825032070
           C          0.662311639014     0.134618130069     0.545405163866    12.000000000000
           H         -0.877447174103     0.017302911280    -0.948021118690     1.007825032070
           H         -0.879528507824    -1.312802472960     0.169791422148     1.007825032070
           C          1.749950247962    -0.542800636989    -0.280739022430    12.000000000000
           H          0.789215709470     1.212676646957     0.482888094625     1.007825032070
           H          0.791138623597    -0.125128131641     1.594288999198     1.007825032070
           C          3.175377647283    -0.227453202940     0.191554175690    12.000000000000
           H          1.640763351826    -0.282496359048    -1.330624129107     1.007825032070
           H          1.596575057485    -1.618099371801    -0.244713759663     1.007825032070
           C          4.210474244549    -0.352697380921    -0.919430062885    12.000000000000
           H          3.454819688948    -0.917340749030     0.982531994145     1.007825032070
           H          3.220701117841     0.773636159048     0.611378021662     1.007825032070
           H          4.204347898169    -1.348254730296    -1.351811472507     1.007825032070
           H          5.209737859690    -0.160751640237    -0.544969874382     1.007825032070
           H          4.012539333575     0.353696501199    -1.718456734747     1.007825032070

  Running in c1 symmetry.

  Rotational constants: A =      0.22704  B =      0.01835  C =      0.01765 [cm^-1]
  Rotational constants: A =   6806.40841  B =    550.10403  C =    529.00899 [MHz]
  Nuclear repulsion =  381.122457186468239

  Charge       = 0
  Multiplicity = 1
  Electrons    = 66
  Nalpha       = 33
  Nbeta        = 33

  ==> Algorithm <==

  SCF Algorithm Type is DF.
  DIIS enabled.
  MOM disabled.
  Fractional occupation disabled.
  Guess Type is READ.
  Energy threshold   = 1.00e-08
  Density threshold  = 1.00e-08
  Integral threshold = 0.00e+00

  ==> Primary Basis <==

  Basis Set: CC-PVTZ
    Number of shells: 176
    Number of basis function: 464
    Number of Cartesian functions: 520
    Spherical Harmonics?: true
    Max angular momentum: 3

  ==> Pre-Iterations <==

   -------------------------------------------------------
    Irrep   Nso     Nmo     Nalpha   Nbeta   Ndocc  Nsocc
   -------------------------------------------------------
     A        464     464       0       0       0       0
   -------------------------------------------------------
    Total     464     464      33      33      33       0
   -------------------------------------------------------

 OEINTS: Overlap, kinetic, potential, dipole, and quadrupole integrals
         stored in file 35.

  ==> Integral Setup <==

  ==> DFJK: Density-Fitted J/K Matrices <==

    J tasked:                  Yes
    K tasked:                  Yes
    wK tasked:                  No
    OpenMP threads:              4
    Integrals threads:           4
    Memory (MB):              1430
    Algorithm:                Core
    Integral Cache:           NONE
    Schwarz Cutoff:          1E-12
    Fitting Condition:       1E-12

   => Auxiliary Basis Set <=

  Basis Set: 
    Number of shells: 360
    Number of basis function: 1112
    Number of Cartesian functions: 1328
    Spherical Harmonics?: true
    Max angular momentum: 4

  Minimum eigenvalue in the overlap matrix is 2.5577636737E-04.
  Using Symmetric Orthogonalization.
  SCF Guess: Reading in previously saved MOs, projecting if necessary.

  Using orbitals from previous SCF, no projection.
  Recomputing DOCC and SOCC from number of alpha and beta electrons from previous calculation.
              A 
    DOCC [    33 ]

  ==> Iterations <==

                           Total Energy        Delta E     RMS |[F,P]|

   @DF-RHF iter   0:  -349.37533602690877   -3.49375e+02   1.34126e-04 
   @DF-RHF iter   1:  -349.37940598845927   -4.06996e-03   2.71363e-05 
   @DF-RHF iter   2:  -349.37954979450177   -1.43806e-04   9.51316e-06 DIIS
   @DF-RHF iter   3:  -349.37956994925247   -2.01548e-05   3.72937e-06 DIIS
   @DF-RHF iter   4:  -349.37957198492467   -2.03567e-06   6.51013e-07 DIIS
   @DF-RHF iter   5:  -349.37957206832874   -8.34041e-08   2.55380e-07 DIIS
   @DF-RHF iter   6:  -349.37957207813002   -9.80128e-09   5.10889e-08 DIIS
   @DF-RHF iter   7:  -349.37957207868925   -5.59226e-10   1.34574e-08 DIIS
   @DF-RHF iter   8:  -349.37957207873109   -4.18368e-11   4.42977e-09 DIIS

  ==> Post-Iterations <==

    Orbital Energies (a.u.)
    -----------------------

    Doubly Occupied:                                                      

       1A    -20.546311     2A    -11.265522     3A    -11.215201  
       4A    -11.211622     5A    -11.210897     6A    -11.209075  
       7A    -11.208957     8A    -11.204943     9A     -1.364181  
      10A     -1.089407    11A     -1.049790    12A     -0.989514  
      13A     -0.914298    14A     -0.842680    15A     -0.798276  
      16A     -0.788771    17A     -0.681810    18A     -0.656900  
      19A     -0.630677    20A     -0.615988    21A     -0.595503  
      22A     -0.586173    23A     -0.549818    24A     -0.540940  
      25A     -0.532401    26A     -0.501957    27A     -0.494806  
      28A     -0.471847    29A     -0.469488    30A     -0.459875  
      31A     -0.457195    32A     -0.455830    33A     -0.420419  

    Virtual:                                                              

      34A      0.138778    35A      0.146220    36A      0.159962  
      37A      0.166471    38A      0.169883    39A      0.182855  
      40A      0.196723    41A      0.207485    42A      0.218422  
      43A      0.227010    44A      0.235360    45A      0.242477  
      46A      0.250076    47A      0.260689    48A      0.269575  
      49A      0.288654    50A      0.303120    51A      0.324085  
      52A      0.339362    53A      0.349929    54A      0.362367  
      55A      0.371979    56A      0.386994    57A      0.399092  
      58A      0.418909    59A      0.442577    60A      0.453000  
      61A      0.465882    62A      0.471791    63A      0.488845  
      64A      0.509264    65A      0.514900    66A      0.519184  
      67A      0.530540    68A      0.552877    69A      0.563998  
      70A      0.574952    71A      0.580058    72A      0.589890  
      73A      0.600269    74A      0.615807    75A      0.621453  
      76A      0.629368    77A      0.636405    78A      0.640775  
      79A      0.650452    80A      0.656503    81A      0.660302  
      82A      0.665198    83A      0.669195    84A      0.672284  
      85A      0.684521    86A      0.690394    87A      0.696581  
      88A      0.702031    89A      0.718406    90A      0.730011  
      91A      0.734785    92A      0.739015    93A      0.756955  
      94A      0.777264    95A      0.809494    96A      0.825594  
      97A      0.835076    98A      0.848140    99A      0.856326  
     100A      0.886645   101A      0.896784   102A      0.916119  
     103A      0.934527   104A      0.945162   105A      0.966939  
     106A      0.990532   107A      0.997895   108A      1.003255  
     109A      1.015137   110A      1.024210   111A      1.027511  
     112A      1.045179   113A      1.054952   114A      1.084495  
     115A      1.091774   116A      1.110959   117A      1.136530  
     118A      1.146506   119A      1.151547   120A      1.178772  
     121A      1.183693   122A      1.212940   123A      1.237250  
     124A      1.239327   125A      1.250214   126A      1.265274  
     127A      1.278229   128A      1.279015   129A      1.291737  
     130A      1.300767   131A      1.307026   132A      1.316429  
     133A      1.323038   134A      1.337133   135A      1.339874  
     136A      1.345382   137A      1.357489   138A      1.367945  
     139A      1.377895   140A      1.391165   141A      1.406184  
     142A      1.411827   143A      1.424220   144A      1.437857  
     145A      1.454420   146A      1.457491   147A      1.475384  
     148A      1.477724   149A      1.485682   150A      1.492748  
     151A      1.506466   152A      1.513236   153A      1.517011  
     154A      1.528070   155A      1.546558   156A      1.563535  
     157A      1.571276   158A      1.582938   159A      1.584698  
     160A      1.593495   161A      1.600941   162A      1.628025  
     163A      1.634491   164A      1.642737   165A      1.656033  
     166A      1.662457   167A      1.692918   168A      1.700250  
     169A      1.707198   170A      1.724979   171A      1.745786  
     172A      1.748613   173A      1.769875   174A      1.785912  
     175A      1.806760   176A      1.813499   177A      1.826555  
     178A      1.834292   179A      1.838063   180A      1.846337  
     181A      1.884564   182A      1.906937   183A      1.942154  
     184A      1.956403   185A      1.969726   186A      2.020953  
     187A      2.061905   188A      2.153017   189A      2.249534  
     190A      2.295079   191A      2.369387   192A      2.431473  
     193A      2.522436   194A      2.559863   195A      2.593389  
     196A      2.628414   197A      2.659161   198A      2.664772  
     199A      2.680277   200A      2.687264   201A      2.699359  
     202A      2.719358   203A      2.735623   204A      2.744745  
     205A      2.771907   206A      2.788814   207A      2.795975  
     208A      2.812188   209A      2.817666   210A      2.830733  
     211A      2.850607   212A      2.863110   213A      2.879629  
     214A      2.893556   215A      2.899451   216A      2.911050  
     217A      2.929746   218A      2.949138   219A      2.957420  
     220A      2.978962   221A      2.996838   222A      3.003533  
     223A      3.022818   224A      3.027643   225A      3.040636  
     226A      3.064712   227A      3.070295   228A      3.092871  
     229A      3.099344   230A      3.129182   231A      3.132335  
     232A      3.152648   233A      3.162838   234A      3.200304  
     235A      3.219373   236A      3.233907   237A      3.243786  
     238A      3.254203   239A      3.268788   240A      3.270839  
     241A      3.284826   242A      3.307612   243A      3.315574  
     244A      3.327492   245A      3.338892   246A      3.351408  
     247A      3.353968   248A      3.374515   249A      3.377152  
     250A      3.385123   251A      3.393696   252A      3.409962  
     253A      3.412290   254A      3.420613   255A      3.425650  
     256A      3.432787   257A      3.437967   258A      3.447238  
     259A      3.453719   260A      3.460700   261A      3.470772  
     262A      3.481274   263A      3.496684   264A      3.505217  
     265A      3.517280   266A      3.522760   267A      3.542557  
     268A      3.550759   269A      3.563539   270A      3.568681  
     271A      3.577091   272A      3.584183   273A      3.594755  
     274A      3.604574   275A      3.613409   276A      3.629186  
     277A      3.638795   278A      3.653645   279A      3.668482  
     280A      3.687727   281A      3.713697   282A      3.727538  
     283A      3.748468   284A      3.761262   285A      3.786082  
     286A      3.800849   287A      3.811074   288A      3.828903  
     289A      3.834249   290A      3.840645   291A      3.856023  
     292A      3.868233   293A      3.877680   294A      3.889481  
     295A      3.904547   296A      3.920901   297A      3.933254  
     298A      3.941364   299A      3.950806   300A      3.958582  
     301A      3.982407   302A      3.996742   303A      4.008699  
     304A      4.032369   305A      4.047256   306A      4.050403  
     307A      4.083685   308A      4.095365   309A      4.102884  
     310A      4.115231   311A      4.125953   312A      4.136437  
     313A      4.144976   314A      4.168015   315A      4.171117  
     316A      4.174346   317A      4.178251   318A      4.193997  
     319A      4.196933   320A      4.202425   321A      4.218845  
     322A      4.228006   323A      4.231276   324A      4.237434  
     325A      4.252362   326A      4.274093   327A      4.283168  
     328A      4.304966   329A      4.311199   330A      4.320264  
     331A      4.337690   332A      4.351742   333A      4.357571  
     334A      4.365608   335A      4.372461   336A      4.380867  
     337A      4.385051   338A      4.400942   339A      4.408944  
     340A      4.422195   341A      4.438461   342A      4.448651  
     343A      4.467153   344A      4.472881   345A      4.484683  
     346A      4.487859   347A      4.506002   348A      4.511240  
     349A      4.535632   350A      4.547949   351A      4.555969  
     352A      4.572195   353A      4.586983   354A      4.594963  
     355A      4.611745   356A      4.615906   357A      4.630567  
     358A      4.640058   359A      4.662784   360A      4.669229  
     361A      4.680363   362A      4.690583   363A      4.698471  
     364A      4.715942   365A      4.730099   366A      4.735142  
     367A      4.757499   368A      4.761447   369A      4.792868  
     370A      4.797008   371A      4.824899   372A      4.835251  
     373A      4.867804   374A      4.894049   375A      4.959311  
     376A      4.981723   377A      4.997739   378A      5.020743  
     379A      5.028805   380A      5.055444   381A      5.064526  
     382A      5.089451   383A      5.132050   384A      5.139391  
     385A      5.151919   386A      5.164000   387A      5.188954  
     388A      5.192135   389A      5.212851   390A      5.218010  
     391A      5.222212   392A      5.264350   393A      5.268945  
     394A      5.272875   395A      5.286300   396A      5.303618  
     397A      5.321756   398A      5.329917   399A      5.356170  
     400A      5.360675   401A      5.382591   402A      5.402081  
     403A      5.404217   404A      5.451390   405A      5.469299  
     406A      5.485865   407A      5.509440   408A      5.516993  
     409A      5.549410   410A      5.573229   411A      5.601097  
     412A      5.616956   413A      5.646519   414A      5.657160  
     415A      5.738196   416A      5.745584   417A      5.756629  
     418A      5.768486   419A      5.788250   420A      5.815234  
     421A      5.832021   422A      5.836831   423A      5.844219  
     424A      5.863591   425A      5.892143   426A      5.899905  
     427A      5.908355   428A      5.923052   429A      5.926025  
     430A      5.956952   431A      5.965721   432A      5.994706  
     433A      6.023889   434A      6.047863   435A      6.054501  
     436A      6.103763   437A      6.122051   438A      6.217220  
     439A      6.288882   440A      6.327644   441A      6.336376  
     442A      6.350867   443A      6.375461   444A      6.411428  
     445A      6.461887   446A      6.505121   447A      6.539881  
     448A      6.760675   449A      7.077755   450A      7.178401  
     451A      7.265920   452A      7.301597   453A      7.427932  
     454A      7.534546   455A      7.722779   456A      8.029139  
     457A     12.801040   458A     13.025041   459A     13.351924  
     460A     13.516153   461A     13.669368   462A     13.835002  
     463A     14.060859   464A     14.307521  

    Final Occupation by Irrep:
              A 
    DOCC [    33 ]

  Energy converged.

  @DF-RHF Final Energy:  -349.37957207873109

   => Energetics <=

    Nuclear Repulsion Energy =            381.1224571864682389
    One-Electron Energy =               -1228.9419083734451306
    Two-Electron Energy =                 498.4398791082459184
    DFT Exchange-Correlation Energy =       0.0000000000000000
    Empirical Dispersion Energy =           0.0000000000000000
    PCM Polarization Energy =               0.0000000000000000
    EFP Energy =                            0.0000000000000000
    Total Energy =                       -349.3795720787310302

    Alert: EFP and PCM quantities not currently incorporated into SCF psivars.

Properties will be evaluated at   0.000000,   0.000000,   0.000000 Bohr
  ==> Properties <==


Properties computed using the SCF density matrix

  Nuclear Dipole Moment: (a.u.)
     X:     8.2749      Y:    -0.5990      Z:     1.2000

  Electronic Dipole Moment: (a.u.)
     X:    -8.1148      Y:     0.9825      Z:    -0.7102

  Dipole Moment: (a.u.)
     X:     0.1601      Y:     0.3835      Z:     0.4898     Total:     0.6424

  Dipole Moment: (Debye)
     X:     0.4070      Y:     0.9747      Z:     1.2451     Total:     1.6327


  Saving occupied orbitals to File 180.

*** tstop() called on cx1-27-1-3 at Fri Sep  9 20:41:50 2016
Module time:
	user time   =      80.06 seconds =       1.33 minutes
	system time =       1.10 seconds =       0.02 minutes
	total time  =         26 seconds =       0.43 minutes
Total time:
	user time   =     413.91 seconds =       6.90 minutes
	system time =       3.63 seconds =       0.06 minutes
	total time  =        117 seconds =       1.95 minutes

*** tstart() called on cx1-27-1-3
*** at Fri Sep  9 20:41:50 2016


         ------------------------------------------------------------
                                   SCF GRAD                          
                          Rob Parrish, Justin Turney,                
                       Andy Simmonett, and Alex Sokolov              
         ------------------------------------------------------------

  ==> Geometry <==

    Molecular point group: c1
    Full point group: C1

    Geometry (in Angstrom), charge = 0, multiplicity = 1:

       Center              X                  Y                   Z               Mass       
    ------------   -----------------  -----------------  -----------------  -----------------
           H         -3.499659568953     1.470430164642    -0.897307501478     1.007825032070
           O         -3.527025215866     0.532172526339    -0.846399229533    15.994914619560
           C         -3.251995373354     0.118113573110     0.465876418204    12.000000000000
           C         -1.838221461853     0.450350109399     0.918913864505    12.000000000000
           H         -3.403391781474    -0.953860700640     0.475213779057     1.007825032070
           H         -3.970803529568     0.551478883954     1.156748465302     1.007825032070
           C         -0.749537245701    -0.235575589450     0.098719894637    12.000000000000
           H         -1.700304915097     1.529964128448     0.882812904424     1.007825032070
           H         -1.743764280003     0.167855878494     1.964678454685     1.007825032070
           C          0.662311639014     0.134618130069     0.545405163866    12.000000000000
           H         -0.877447174103     0.017302911280    -0.948021118690     1.007825032070
           H         -0.879528507824    -1.312802472960     0.169791422148     1.007825032070
           C          1.749950247962    -0.542800636989    -0.280739022430    12.000000000000
           H          0.789215709470     1.212676646957     0.482888094625     1.007825032070
           H          0.791138623597    -0.125128131641     1.594288999198     1.007825032070
           C          3.175377647283    -0.227453202940     0.191554175690    12.000000000000
           H          1.640763351826    -0.282496359048    -1.330624129107     1.007825032070
           H          1.596575057485    -1.618099371801    -0.244713759663     1.007825032070
           C          4.210474244549    -0.352697380921    -0.919430062885    12.000000000000
           H          3.454819688948    -0.917340749030     0.982531994145     1.007825032070
           H          3.220701117841     0.773636159048     0.611378021662     1.007825032070
           H          4.204347898169    -1.348254730296    -1.351811472507     1.007825032070
           H          5.209737859690    -0.160751640237    -0.544969874382     1.007825032070
           H          4.012539333575     0.353696501199    -1.718456734747     1.007825032070

  Nuclear repulsion =  381.122457186468239

  ==> Basis Set <==

  Basis Set: CC-PVTZ
    Number of shells: 176
    Number of basis function: 464
    Number of Cartesian functions: 520
    Spherical Harmonics?: true
    Max angular momentum: 3

  ==> DFJKGrad: Density-Fitted SCF Gradients <==

    Gradient:                    1
    J tasked:                  Yes
    K tasked:                  Yes
    wK tasked:                  No
    OpenMP threads:              4
    Integrals threads:           4
    Memory (MB):              1430
    Schwarz Cutoff:          0E+00
    Fitting Condition:       1E-12

   => Auxiliary Basis Set <=

  Basis Set: 
    Number of shells: 360
    Number of basis function: 1112
    Number of Cartesian functions: 1328
    Spherical Harmonics?: true
    Max angular momentum: 4


  -Total Gradient:
     Atom            X                  Y                   Z
    ------   -----------------  -----------------  -----------------
       1        0.000002377070    -0.000011126399     0.000019291557
       2        0.000008822229    -0.000045334065    -0.000000390494
       3       -0.000005267908     0.000065067384    -0.000019132359
       4        0.000113713495     0.000019863279     0.000039417927
       5        0.000004720225     0.000016891612    -0.000031161486
       6        0.000004692231    -0.000005202589     0.000006856704
       7       -0.000038000719    -0.000507461869    -0.000377822677
       8       -0.000029981024     0.000024096861     0.000012425956
       9       -0.000004233837     0.000005386020    -0.000006765134
      10        0.000593145183     0.000037837286     0.000615923920
      11        0.000008458733    -0.000008009292    -0.000023597760
      12       -0.000099809958     0.000036830278    -0.000035273016
      13       -0.001206178435     0.003656994501    -0.000580291537
      14        0.000220650466    -0.000200454223    -0.000100310652
      15       -0.000182993255     0.000085100142     0.000285927736
      16       -0.000660242550     0.002655061150     0.002204400816
      17        0.000654279049    -0.004032019291    -0.001349132356
      18       -0.000685912743     0.000617637880     0.000100211984
      19       -0.001083085860    -0.000287899550     0.001063438571
      20        0.002233019441    -0.002637550715    -0.002832822946
      21        0.000528711753     0.000505686206     0.000484818023
      22        0.000072600116    -0.000076076007    -0.000109491073
      23       -0.000192312124     0.000131502673     0.000416563936
      24       -0.000257171593    -0.000046821273     0.000216914361


*** tstop() called on cx1-27-1-3 at Fri Sep  9 20:42:45 2016
Module time:
	user time   =     214.66 seconds =       3.58 minutes
	system time =       1.00 seconds =       0.02 minutes
	total time  =         55 seconds =       0.92 minutes
Total time:
	user time   =     628.57 seconds =      10.48 minutes
	system time =       4.63 seconds =       0.08 minutes
	total time  =        172 seconds =       2.87 minutes
CURRENT ENERGY: -349.3795720787

			-----------------------------------------
			 OPTKING 2.0: for geometry optimizations 
			  - R.A. King,  Bethel University        
			-----------------------------------------

	Previous internal coordinate definitions found.
	---Fragment 1 Geometry and Gradient---
	 H          -6.6133981437        2.7787103087       -1.6956654348
	 O          -6.6651117218        1.0056603302       -1.5994627429
	 C          -6.1453806411        0.2232023058        0.8803788422
	 C          -3.4737351345        0.8510383707        1.7364955436
	 H          -6.4314783899       -1.8025354931        0.8980238970
	 H          -7.5037311984        1.0421440587        2.1859378041
	 C          -1.4164201208       -0.4451733477        0.1865535647
	 H          -3.2131106319        2.8912131959        1.6682746159
	 H          -3.2952369295        0.3172016401        3.7127042185
	 C           1.2515876124        0.2543913984        1.0306663912
	 H          -1.6581348551        0.0326977636       -1.7915002825
	 H          -1.6620680059       -2.4808371405        0.3208592876
	 C           3.3069267148       -1.0257445487       -0.5305198672
	 H           1.4914015507        2.2916267505        0.9125262517
	 H           1.4950353317       -0.2364579003        3.0127695852
	 C           6.0005941219       -0.4298242616        0.3619849317
	 H           3.1005933838       -0.5338407521       -2.5145151898
	 H           3.0170896092       -3.0577646685       -0.4624419867
	 C           7.9566432118       -0.6665014577       -1.7374710172
	 H           6.5286630506       -1.7335227862        1.8567163857
	 H           6.0862430686        1.4619604671        1.1553370246
	 H           7.9450660949       -2.5478321976       -2.5545534663
	 H           9.8449777789       -0.3037765755       -1.0298438133
	 H           7.5826004379        0.6683895214       -3.2474125999
	             0.0000023771       -0.0000111264        0.0000192916
	             0.0000088222       -0.0000453341       -0.0000003905
	            -0.0000052679        0.0000650674       -0.0000191324
[...]
	 D(10,13,16,20)   =         1.496863	      85.763906
	 D(10,13,16,21)   =        -0.554677	     -31.780624
	 D(11,7,10,13)    =        -1.001320	     -57.371408
	 D(11,7,10,14)    =         1.127637	      64.608864
	 D(11,7,10,15)    =        -3.133530	    -179.538063
	 D(12,7,10,13)    =         1.024830	      58.718433
	 D(12,7,10,14)    =        -3.129398	    -179.301295
	 D(12,7,10,15)    =        -1.107380	     -63.448222
	 D(13,16,19,22)   =        -0.999021	     -57.239696
	 D(13,16,19,23)   =        -3.093440	    -177.241028
	 D(13,16,19,24)   =         1.091127	      62.516962
	 D(14,10,13,16)   =         1.054151	      60.398419
	 D(14,10,13,17)   =        -1.108267	     -63.499025
	 D(14,10,13,18)   =        -3.107113	    -178.024471
	 D(15,10,13,16)   =        -0.962641	     -55.155254
	 D(15,10,13,17)   =        -3.125059	    -179.052698
	 D(15,10,13,18)   =         1.159280	      66.421856
	 D(17,13,16,19)   =        -0.522912	     -29.960654
	*D(17,13,16,20)   =        -2.617994	    -149.999991
	 D(17,13,16,21)   =         1.613653	      92.455480
	 D(18,13,16,19)   =         1.466451	      84.021432
	 D(18,13,16,20)   =        -0.628631	     -36.017906
	 D(18,13,16,21)   =        -2.680170	    -153.562435
	 D(20,16,19,22)   =         1.109457	      63.567183
	 D(20,16,19,23)   =        -0.984962	     -56.434149
	 D(20,16,19,24)   =        -3.083581	    -176.676159
	 D(21,16,19,22)   =         3.139099	     179.857140
	 D(21,16,19,23)   =         1.044681	      59.855807
	 D(21,16,19,24)   =        -1.053938	     -60.386202

	Current energy   :      -349.3796010547

	Energy change for the previous step:
		Projected    :        -0.0000002023
		Actual       :        -0.0000003962
	Energy ratio indicates good step: Trust radius increased to 3.750e-01.


	Performing BFGS update.
	Previous computed or guess Hessian on step 1.
	Steps to be used in Hessian update: 3 2
	Taking RFO optimization step.
	Going to follow RFO solution 1.
	Using RFO vector 1.
	Norm of target step-size    0.02308
	Projected energy change by RFO approximation:        -0.0000002329

	Back-transformation to cartesian coordinates...
	Successfully converged to displaced geometry.

	Back-transformation to cartesian coordinates to adjust frozen coordinates...
	Successfully converged to displaced geometry.

	--- Internal Coordinate Step in ANG or DEG, aJ/ANG or AJ/DEG ---
	 ---------------------------------------------------------------------------
	   Coordinate                Previous        Force       Change         New 
	   ----------                --------       ------       ------       ------
	    1 R(1,2)          =      0.940041     0.000033     0.000001     0.940042
	    2 R(2,3)          =      1.403294    -0.000084    -0.000007     1.403287
	    3 R(3,4)          =      1.521277     0.000113     0.000007     1.521284
	    4 R(3,5)          =      1.082665     0.000010    -0.000001     1.082665
	    5 R(3,6)          =      1.087104    -0.000007    -0.000001     1.087104
	    6 R(4,7)          =      1.525874     0.000132     0.000004     1.525878
	    7 R(4,8)          =      1.088974    -0.000077    -0.000005     1.088969
	    8 R(4,9)          =      1.087368     0.000029     0.000002     1.087370
	    9 R(7,10)         =      1.525761    -0.000003    -0.000014     1.525746
	   10 R(7,11)         =      1.084427    -0.000054    -0.000001     1.084426
	   11 R(7,12)         =      1.087424     0.000095     0.000011     1.087435
	   12 R(10,13)        =      1.524745    -0.000361    -0.000087     1.524658
	   13 R(10,14)        =      1.087564    -0.000025    -0.000018     1.087546
	   14 R(10,15)        =      1.087976     0.000144     0.000028     1.088003
	   15 R(13,16)        =      1.533049     0.000884     0.000144     1.533193
	   16 R(13,17)        =      1.086873     0.000059     0.000026     1.086899
	   17 R(13,18)        =      1.087578    -0.000083    -0.000016     1.087562
	   18 R(16,19)        =      1.527098    -0.001126    -0.000172     1.526925
	   19 R(16,20)        =      1.085707     0.000024    -0.000013     1.085694
	   20 R(16,21)        =      1.085427     0.000327     0.000041     1.085468
	   21 R(19,22)        =      1.085309     0.000031     0.000011     1.085321
	   22 R(19,23)        =      1.084208    -0.000096    -0.000016     1.084191
	   23 R(19,24)        =      1.084900    -0.000238    -0.000041     1.084859
	   24 B(1,2,3)        =    109.849806     0.000000     0.000380   109.850186
	   25 B(2,3,4)        =    113.343442    -0.000000    -0.000364   113.343077
	   26 B(2,3,5)        =    105.844871     0.000000     0.000710   105.845581
	   27 B(2,3,6)        =    110.305991    -0.000001    -0.002246   110.303745
	   28 B(3,4,7)        =    113.883144     0.000001     0.000052   113.883196
	   29 B(3,4,8)        =    108.936974     0.000001     0.001485   108.938460
	   30 B(3,4,9)        =    108.083071    -0.000001    -0.002456   108.080614
	   31 B(4,3,5)        =    110.096437     0.000000     0.001661   110.098097
	   32 B(4,3,6)        =    109.755962     0.000000     0.000052   109.756015
	   33 B(4,7,10)       =    113.197553    -0.000001    -0.005817   113.191736
	   34 B(4,7,11)       =    109.260441     0.000002     0.004393   109.264834
	   35 B(4,7,12)       =    108.969977    -0.000002    -0.006090   108.963887
	   36 B(5,3,6)        =    107.260894    -0.000000     0.000265   107.261159
	   37 B(7,4,8)        =    109.716027    -0.000001    -0.002007   109.714019
	   38 B(7,4,9)        =    109.754030     0.000001     0.003375   109.757405
	   39 B(7,10,13)      =    113.426731    -0.000004    -0.011222   113.415508
	   40 B(7,10,14)      =    109.317394     0.000002     0.005011   109.322404
	   41 B(7,10,15)      =    109.466139    -0.000001    -0.006713   109.459426
	   42 B(8,4,9)        =    106.169482     0.000000    -0.000493   106.168990
	   43 B(10,7,11)      =    109.605519    -0.000000     0.003058   109.608576
	   44 B(10,7,12)      =    109.307830     0.000002     0.007125   109.314955
	   45 B(10,13,16)     =    113.972311     0.000000     0.002488   113.974799
	   46 B(10,13,17)     =    110.314347    -0.000002    -0.010137   110.304210
	   47 B(10,13,18)     =    109.026190    -0.000002    -0.022247   109.003943
	   48 B(11,7,12)      =    106.262463    -0.000000    -0.002533   106.259930
	   49 B(13,10,14)     =    109.092327     0.000002     0.007935   109.100262
	   50 B(13,10,15)     =    109.152496     0.000002     0.004553   109.157049
	   51 B(13,16,19)     =    112.863917    -0.000002     0.003975   112.867892
	   52 B(13,16,20)     =    109.245021     0.000003     0.009279   109.254301
	   53 B(13,16,21)     =    110.138850     0.000002     0.012490   110.151340
	   54 B(14,10,15)     =    106.126120    -0.000001     0.001293   106.127413
	   55 B(16,13,17)     =    109.685161     0.000003     0.018277   109.703437
	   56 B(16,13,18)     =    108.655984     0.000001     0.003205   108.659189
	   57 B(16,19,22)     =    111.050284     0.000001     0.001755   111.052038
	   58 B(16,19,23)     =    111.341950    -0.000005    -0.019872   111.322079
	   59 B(16,19,24)     =    111.148417    -0.000002    -0.004684   111.143733
	   60 B(17,13,18)     =    104.763807     0.000000     0.008771   104.772578
	   61 B(19,16,20)     =    107.903761    -0.000002    -0.015798   107.887964
	   62 B(19,16,21)     =    109.267107     0.000000     0.001044   109.268152
	   63 B(20,16,21)     =    107.242686    -0.000001    -0.012453   107.230233
	   64 B(22,19,23)     =    107.693850     0.000002     0.008664   107.702513
	   65 B(22,19,24)     =    107.602403     0.000002     0.013255   107.615658
	   66 B(23,19,24)     =    107.831480     0.000003     0.002352   107.833832
	   67 D(1,2,3,4)      =    -65.094761     0.000000    -0.002116   -65.096877
	   68 D(1,2,3,5)      =    174.141385    -0.000000    -0.004434   174.136951
	   69 D(1,2,3,6)      =     58.425890     0.000000    -0.004027    58.421863
	   70 D(2,3,4,7)      =    -62.284627    -0.000000    -0.024765   -62.309392
	   71 D(2,3,4,8)      =     60.534009    -0.000000    -0.026217    60.507792
	   72 D(2,3,4,9)      =    175.478579    -0.000000    -0.027328   175.451252
	   73 D(3,4,7,10)     =    178.647820     0.000000     0.097152   178.744972
	   74 D(3,4,7,11)     =     56.205903     0.000000     0.094006    56.299909
	   75 D(3,4,7,12)     =    -59.502263     0.000000     0.097984   -59.404278
	   76 D(4,7,10,13)    =   -179.621084    -0.000001    -0.270665  -179.891749
	   77 D(4,7,10,14)    =    -57.640812    -0.000000    -0.264474   -57.905286
	   78 D(4,7,10,15)    =     58.212261    -0.000000    -0.263869    57.948392
	   79 D(5,3,4,7)      =     56.045753     0.000000    -0.022959    56.022795
	   80 D(5,3,4,8)      =    178.864389    -0.000000    -0.024411   178.839978
	   81 D(5,3,4,9)      =    -66.191040    -0.000000    -0.025521   -66.216562
	   82 D(6,3,4,7)      =    173.893708     0.000000    -0.021607   173.872101
	   83 D(6,3,4,8)      =    -63.287656     0.000000    -0.023059   -63.310715
	   84 D(6,3,4,9)      =     51.656915    -0.000000    -0.024170    51.632745
	   85 D(7,10,13,16)   =   -177.496054     0.000001     0.349450  -177.146605
	   86 D(7,10,13,17)   =     58.606501     0.000000     0.331355    58.937856
	   87 D(7,10,13,18)   =    -55.918945     0.000001     0.338939   -55.580006
	   88 D(8,4,7,10)     =     56.256335     0.000000     0.096691    56.353026
	   89 D(8,4,7,11)     =    -66.185582     0.000000     0.093545   -66.092037
	   90 D(8,4,7,12)     =    178.106253     0.000000     0.097523   178.203776
	   91 D(9,4,7,10)     =    -60.040025     0.000000     0.096499   -59.943527
	   92 D(9,4,7,11)     =    177.518058     0.000000     0.093352   177.611410
	   93 D(9,4,7,12)     =     61.809892     0.000000     0.097331    61.907223
	   94 D(10,13,16,19)  =   -154.196757    -0.000000    -0.013743  -154.210500
	   95 D(10,13,16,20)  =     85.763906     0.000000    -0.002746    85.761159
	   96 D(10,13,16,21)  =    -31.780624    -0.000000    -0.000450   -31.781074
	   97 D(11,7,10,13)   =    -57.371408    -0.000000    -0.266789   -57.638197
	   98 D(11,7,10,14)   =     64.608864    -0.000000    -0.260598    64.348266
	   99 D(11,7,10,15)   =   -179.538063    -0.000000    -0.259992  -179.798055
	  100 D(12,7,10,13)   =     58.718433    -0.000000    -0.264060    58.454373
	  101 D(12,7,10,14)   =   -179.301295    -0.000000    -0.257869  -179.559164
	  102 D(12,7,10,15)   =    -63.448222    -0.000000    -0.257264   -63.705485
	  103 D(13,16,19,22)  =    -57.239696    -0.000000     0.054912   -57.184784
	  104 D(13,16,19,23)  =   -177.241028    -0.000000     0.056080  -177.184949
	  105 D(13,16,19,24)  =     62.516962     0.000000     0.069688    62.586651
	  106 D(14,10,13,16)  =     60.398419     0.000000     0.344867    60.743287
	  107 D(14,10,13,17)  =    -63.499025     0.000000     0.326772   -63.172253
	  108 D(14,10,13,18)  =   -178.024471     0.000000     0.334356  -177.690115
	  109 D(15,10,13,16)  =    -55.155254     0.000000     0.336453   -54.818801
	  110 D(15,10,13,17)  =   -179.052698    -0.000000     0.318357  -178.734341
	  111 D(15,10,13,18)  =     66.421856     0.000000     0.325942    66.747797
	  112 D(17,13,16,19)  =    -29.960654    -0.000000    -0.010996   -29.971650
	  113 *D(17,13,16,20) =   -149.999991    -0.000000    -0.000000  -149.999991
	  114 D(17,13,16,21)  =     92.455480    -0.000000     0.002296    92.457776
	  115 D(18,13,16,19)  =     84.021432     0.000000     0.010815    84.032246
	  116 D(18,13,16,20)  =    -36.017906     0.000000     0.021811   -35.996095
	  117 D(18,13,16,21)  =   -153.562435     0.000000     0.024107  -153.538328
	  118 D(20,16,19,22)  =     63.567183     0.000000     0.058240    63.625423
	  119 D(20,16,19,23)  =    -56.434149     0.000000     0.059407   -56.374742
	  120 D(20,16,19,24)  =   -176.676159     0.000001     0.073016  -176.603142
	  121 D(21,16,19,22)  =    179.857140    -0.000000     0.035352   179.892492
	  122 D(21,16,19,23)  =     59.855807    -0.000000     0.036520    59.892327
	  123 D(21,16,19,24)  =    -60.386202     0.000000     0.050129   -60.336074
	 ---------------------------------------------------------------------------

  ==> Convergence Check <==

  Measures of convergence in internal coordinates in au.
  Criteria marked as inactive (o), active & met (*), and active & unmet ( ).
  ---------------------------------------------------------------------------------------------
   Step     Total Energy     Delta E     MAX Force     RMS Force      MAX Disp      RMS Disp   
  ---------------------------------------------------------------------------------------------
    Convergence Criteria    1.00e-06 *    3.00e-04 *             o    1.20e-03 *             o
  ---------------------------------------------------------------------------------------------
      4    -349.37960105   -3.96e-07 *    1.37e-04 *    2.45e-05 o    6.10e-03      2.08e-03 o  ~
  ---------------------------------------------------------------------------------------------


  **** Optimization is complete! (in 4 steps) ****

  ==> Optimization Summary <==

  Measures of convergence in internal coordinates in au.
  --------------------------------------------------------------------------------------------------------------- ~
   Step         Total Energy             Delta E       MAX Force       RMS Force        MAX Disp        RMS Disp  ~
  --------------------------------------------------------------------------------------------------------------- ~
      1    -349.379165825844   -349.379165825844      0.00545358      0.00100211      0.05919832      0.01630886  ~
      2    -349.379572078731     -0.000406252887      0.00212641      0.00031305      0.01867690      0.00567853  ~
      3    -349.379600658456     -0.000028579725      0.00024804      0.00004677      0.01047925      0.00384947  ~
      4    -349.379601054700     -0.000000396244      0.00013671      0.00002454      0.00609905      0.00208117  ~
  --------------------------------------------------------------------------------------------------------------- ~

	Writing optimization data to binary file.
	Final energy is   -349.3796010547003
	Final (previous) structure:
	Cartesian Geometry (in Angstrom)
	    H    -3.5018461668   1.4690152482  -0.8974745582
	    O    -3.5294765293   0.5308368164  -0.8451766322
	    C    -3.2527827742   0.1184078385   0.4672932548
	    C    -1.8384815065   0.4511530519   0.9182004699
	    H    -3.4042795154  -0.9535478434   0.4784418689
	    H    -3.9706167441   0.5528380766   1.1585099766
	    C    -0.7507545805  -0.2358515576   0.0977335329
	    H    -1.7003521895   1.5306776412   0.8806317997
	    H    -1.7427314018   0.1698422850   1.9641759431
	    C     0.6611950315   0.1341764333   0.5420568999
	    H    -0.8802310291   0.0150752712  -0.9492877406
	    H    -0.8800186426  -1.3130797983   0.1709514640
	    C     1.7523815197  -0.5424119047  -0.2803716716
	    H     0.7866191102   1.2127392835   0.4806778656
	    H     0.7912614053  -0.1259979875   1.5904286205
	    C     3.1757154097  -0.2270293516   0.1938578667
	    H     1.6500654511  -0.2813420983  -1.3304506983
	    H     1.6051786528  -1.6194629187  -0.2469403380
	    C     4.2134319891  -0.3519737626  -0.9194976946
	    H     3.4504956260  -0.9176233180   0.9852714853
	    H     3.2172737423   0.7739625697   0.6115182067
	    H     4.1983765021  -1.3451839306  -1.3567653893
	    H     5.2154614821  -0.1710510214  -0.5470594343
	    H     4.0212605556   0.3598338986  -1.7153675110
	Saving final (previous) structure.
			--------------------------
			 OPTKING Finished Execution 
			--------------------------

    Final optimized geometry and variables:
    Molecular point group: c1
    Full point group: C1

    Geometry (in Angstrom), charge = 0, multiplicity = 1:

    H           -3.501845899406     1.469015136020    -0.897474489646
    O           -3.529476259748     0.530836775913    -0.845176567654
    C           -3.252782525806     0.118407829468     0.467293219099
    C           -1.838481366091     0.451153017421     0.918200399774
    H           -3.404279255424    -0.953547770631     0.478441832404
    H           -3.970616440882     0.552838034367     1.158509888125
    C           -0.750754523129    -0.235851539624     0.097733525486
    H           -1.700352059609     1.530677524316     0.880631732466
    H           -1.742731268683     0.169842272071     1.964175793134
    C            0.661194981021     0.134176423083     0.542056858490
    H           -0.880230961872     0.015075270080    -0.949287668074
    H           -0.880018575368    -1.313079698018     0.170951450923
    C            1.752381385847    -0.542411863300    -0.280371650161
    H            0.786619050165     1.212739190916     0.480677828897
    H            0.791261344838    -0.125997977876     1.590428499029
    C            3.175715167155    -0.227029334267     0.193857851941
    H            1.650065325053    -0.281342076848    -1.330450596665
    H            1.605178530212    -1.619462795038    -0.246940319107
    C            4.213431667375    -0.351973735744    -0.919497624398
    H            3.450495362519    -0.917623247879     0.985271410108
    H            3.217273496635     0.773962510607     0.611518159992
    H            4.198376181523    -1.345183827917    -1.356765285725
    H            5.215461083796    -0.171051008291    -0.547059392514
    H            4.021260248523     0.359833871108    -1.715367379964

	Cleaning optimization helper files.


Properties will be evaluated at   0.000000,   0.000000,   0.000000 Bohr

Properties computed using the  density matrix

  Nuclear Dipole Moment: (a.u.)
     X:     8.2852      Y:    -0.6005      Z:     1.1933

  Electronic Dipole Moment: (a.u.)
     X:    -8.1250      Y:     0.9849      Z:    -0.7045

  Dipole Moment: (a.u.)
     X:     0.1602      Y:     0.3844      Z:     0.4888     Total:     0.6422

  Dipole Moment: (Debye)
     X:     0.4072      Y:     0.9771      Z:     1.2425     Total:     1.6323

  Quadrupole Moment: (Debye Ang)
    XX:   -57.8943     YY:   -49.7527     ZZ:   -55.0323
    XY:    -3.6595     XZ:    -4.1778     YZ:    -1.6318

  Traceless Quadrupole Moment: (Debye Ang)
    XX:    -3.6679     YY:     4.4738     ZZ:    -0.8059
    XY:    -3.6595     XZ:    -4.1778     YZ:    -1.6318

  Mulliken Charges: (a.u.)
   Center  Symbol    Alpha    Beta     Spin     Total
       1     H     0.39530  0.39530  0.00000  0.20939
       2     O     4.20368  4.20368  0.00000 -0.40737
       3     C     2.97766  2.97766  0.00000  0.04468
       4     C     3.10231  3.10231  0.00000 -0.20462
       5     H     0.45889  0.45889  0.00000  0.08221
       6     H     0.46029  0.46029  0.00000  0.07942
       7     C     3.08824  3.08824  0.00000 -0.17649
       8     H     0.45909  0.45909  0.00000  0.08182
       9     H     0.45329  0.45329  0.00000  0.09343
      10     C     3.08850  3.08850  0.00000 -0.17701
      11     H     0.44624  0.44624  0.00000  0.10753
      12     H     0.45523  0.45523  0.00000  0.08954
      13     C     3.08896  3.08896  0.00000 -0.17792
      14     H     0.45539  0.45539  0.00000  0.08922
      15     H     0.45521  0.45521  0.00000  0.08959
      16     C     3.08470  3.08470  0.00000 -0.16940
      17     H     0.45438  0.45438  0.00000  0.09124
      18     H     0.45431  0.45431  0.00000  0.09138
      19     C     3.14930  3.14930  0.00000 -0.29860
      20     H     0.45366  0.45366  0.00000  0.09267
      21     H     0.45544  0.45544  0.00000  0.08913
      22     H     0.45462  0.45462  0.00000  0.09076
      23     H     0.44957  0.44957  0.00000  0.10087
      24     H     0.45573  0.45573  0.00000  0.08855

   Total alpha = 33.00000, Total beta = 33.00000, Total charge = -0.00000


*** PSI4 exiting successfully. Buy a developer a beer!
