    -----------------------------------------------------------------------
          Psi4: An Open-Source Ab Initio Electronic Structure Package
                              Psi4 (no tag) Driver

                          Git: Rev {detached?}  

    J. M. Turney, A. C. Simmonett, R. M. Parrish, E. G. Hohenstein,
    F. A. Evangelista, J. T. Fermann, B. J. Mintz, L. A. Burns, J. J. Wilke,
    M. L. Abrams, N. J. Russ, M. L. Leininger, C. L. Janssen, E. T. Seidl,
    W. D. Allen, H. F. Schaefer, R. A. King, E. F. Valeev, C. D. Sherrill,
    and T. D. Crawford, WIREs Comput. Mol. Sci. 2, 556-565 (2012)
    (doi: 10.1002/wcms.93)

                         Additional Contributions by
    A. E. DePrince, M. Saitow, U. Bozkaya, A. Yu. Sokolov
    -----------------------------------------------------------------------


    Psi4 started on: Fri Sep  2 13:20:16 2016

    Process ID:  22602
    PSI4DATADIR: /export131/home/mjharvey/miniconda3/share
    Memory level set to 256.000 MB

  ==> Input File <==

--------------------------------------------------------------------------
set {
	reference rhf
	basis 6-31G*
}


set_num_threads( 4 )
memory 2 gb

molecule MOL {
0 1

H	 -2.095764	 0.435638	 -2.350391
C	 -2.795213	 1.048318	 -1.768139
C	 -2.660244	 0.921717	 -0.272021
O	 -3.583432	 1.744001	 -2.321751
C	 -1.220012	 1.144545	 0.209990
H	 -3.348552	 1.617484	 0.193650
H	 -2.974627	 -0.086968	 -0.006741
C	 -0.252658	 0.041456	 -0.226725
H	 -0.873521	 2.100229	 -0.171974
H	 -1.211708	 1.231594	 1.295398
C	 1.180775	 0.282413	 0.250794
H	 -0.266029	 -0.034465	 -1.312038
H	 -0.597733	 -0.921000	 0.146291
C	 2.148627	 -0.814315	 -0.201312
H	 1.516199	 1.249228	 -0.115937
H	 1.192670	 0.346017	 1.338083
C	 3.580890	 -0.659131	 0.322722
H	 2.166869	 -0.852443	 -1.289387
H	 1.762857	 -1.776509	 0.128956
C	 4.324889	 0.564933	 -0.213704
H	 4.142010	 -1.551473	 0.056605
H	 3.564836	 -0.624694	 1.410140
H	 4.342616	 0.565491	 -1.300421
H	 3.866655	 1.493402	 0.110242
H	 5.353900	 0.572371	 0.132816

	symmetry c1
}
set optking {
	frozen_dihedral = ("
		6 3 5 8
	")
}

ee = optimize('scf')
oeprop('DIPOLE', 'QUADRUPOLE', 'MULLIKEN_CHARGES')
f=open( 'psi4out.xyz', 'w' )
f.write( "25  " )
f.write( str(ee) + "\n" )
f.write( MOL.save_string_xyz() )
f.close()
--------------------------------------------------------------------------

  Memory set to   2.000 GiB by Python script.
gradient() will perform analytic gradient computation.

*** tstart() called on cx1-1-2-2.cx1.hpc.ic.ac.uk
*** at Fri Sep  2 13:20:17 2016


         ---------------------------------------------------------
                                   SCF
            by Justin Turney, Rob Parrish, and Andy Simmonett
                              RHF Reference
                        4 Threads,   2000 MiB Core
         ---------------------------------------------------------

  ==> Geometry <==

    Molecular point group: c1
    Full point group: C1

    Geometry (in Angstrom), charge = 0, multiplicity = 1:

       Center              X                  Y                   Z               Mass       
    ------------   -----------------  -----------------  -----------------  -----------------
           H         -2.181918062845    -0.048655459158    -1.869083040709     1.007825032070
           C         -2.881367062845     0.564024540842    -1.286831040709    12.000000000000
           C         -2.746398062845     0.437423540842     0.209286959291    12.000000000000
           O         -3.669586062845     1.259707540842    -1.840443040709    15.994914619560
           C         -1.306166062845     0.660251540842     0.691297959291    12.000000000000
           H         -3.434706062845     1.133190540842     0.674957959291     1.007825032070
           H         -3.060781062845    -0.571261459158     0.474566959291     1.007825032070
           C         -0.338812062845    -0.442837459158     0.254582959291    12.000000000000
           H         -0.959675062845     1.615935540842     0.309333959291     1.007825032070
           H         -1.297862062845     0.747300540842     1.776705959291     1.007825032070
           C          1.094620937155    -0.201880459158     0.732101959291    12.000000000000
           H         -0.352183062845    -0.518758459158    -0.830730040709     1.007825032070
           H         -0.683887062845    -1.405293459158     0.627598959291     1.007825032070
           C          2.062472937155    -1.298608459158     0.279995959291    12.000000000000
           H          1.430044937155     0.764934540842     0.365370959291     1.007825032070
           H          1.106515937155    -0.138276459158     1.819390959291     1.007825032070
           C          3.494735937155    -1.143424459158     0.804029959291    12.000000000000
           H          2.080714937155    -1.336736459158    -0.808079040709     1.007825032070
           H          1.676702937155    -2.260802459158     0.610263959291     1.007825032070
           C          4.238734937155     0.080639540842     0.267603959291    12.000000000000
           H          4.055855937155    -2.035766459158     0.537912959291     1.007825032070
           H          3.478681937155    -1.108987459158     1.891447959291     1.007825032070
           H          4.256461937155     0.081197540842    -0.819113040709     1.007825032070
           H          3.780500937155     1.009108540842     0.591549959291     1.007825032070
           H          5.267745937155     0.088077540842     0.614123959291     1.007825032070

  Running in c1 symmetry.

  Rotational constants: A =      0.14531  B =      0.01500  C =      0.01463 [cm^-1]
  Rotational constants: A =   4356.25897  B =    449.58163  C =    438.48183 [MHz]
  Nuclear repulsion =  437.753534150349196

  Charge       = 0
  Multiplicity = 1
  Electrons    = 72
  Nalpha       = 36
  Nbeta        = 36

  ==> Algorithm <==

  SCF Algorithm Type is DF.
  DIIS enabled.
  MOM disabled.
  Fractional occupation disabled.
  Guess Type is CORE.
  Energy threshold   = 1.00e-08
  Density threshold  = 1.00e-08
  Integral threshold = 0.00e+00

  ==> Primary Basis <==

  Basis Set: 6-31G*
    Number of shells: 86
    Number of basis function: 167
    Number of Cartesian functions: 167
    Spherical Harmonics?: false
    Max angular momentum: 2

  ==> Pre-Iterations <==

   -------------------------------------------------------
    Irrep   Nso     Nmo     Nalpha   Nbeta   Ndocc  Nsocc
   -------------------------------------------------------
     A        167     167       0       0       0       0
   -------------------------------------------------------
    Total     167     167      36      36      36       0
   -------------------------------------------------------

 OEINTS: Overlap, kinetic, potential, dipole, and quadrupole integrals
         stored in file 35.

  ==> Integral Setup <==

  ==> DFJK: Density-Fitted J/K Matrices <==

    J tasked:                  Yes
    K tasked:                  Yes
    wK tasked:                  No
    OpenMP threads:              4
    Integrals threads:           4
    Memory (MB):              1430
    Algorithm:                Core
    Integral Cache:           NONE
    Schwarz Cutoff:          1E-12
    Fitting Condition:       1E-12

   => Auxiliary Basis Set <=

  Basis Set: 
    Number of shells: 360
    Number of basis function: 1129
    Number of Cartesian functions: 1129
    Spherical Harmonics?: false
    Max angular momentum: 3

  Minimum eigenvalue in the overlap matrix is 3.0356646653E-03.
  Using Symmetric Orthogonalization.
  SCF Guess: Core (One-Electron) Hamiltonian.

  ==> Iterations <==

                           Total Energy        Delta E     RMS |[F,P]|

   @DF-RHF iter   1:  -293.08900762299743   -2.93089e+02   5.76008e-02 
   @DF-RHF iter   2:   -35.30492727881602    2.57784e+02   7.58256e-02 DIIS
   @DF-RHF iter   3:  -278.04691953115639   -2.42742e+02   4.58739e-02 DIIS
   @DF-RHF iter   4:  -205.00584069929869    7.30411e+01   6.56369e-02 DIIS
   @DF-RHF iter   5:  -365.23710709500006   -1.60231e+02   2.51921e-02 DIIS
   @DF-RHF iter   6:  -353.16388323118508    1.20732e+01   3.38595e-02 DIIS
   @DF-RHF iter   7:  -386.78398942115632   -3.36201e+01   4.56820e-03 DIIS
   @DF-RHF iter   8:  -387.05647705310446   -2.72488e-01   1.99190e-03 DIIS
   @DF-RHF iter   9:  -387.10613824674726   -4.96612e-02   8.19127e-04 DIIS
   @DF-RHF iter  10:  -387.11723380023182   -1.10956e-02   3.15587e-04 DIIS
   @DF-RHF iter  11:  -387.11914333002801   -1.90953e-03   1.26952e-04 DIIS
   @DF-RHF iter  12:  -387.11949549581573   -3.52166e-04   3.32839e-05 DIIS
   @DF-RHF iter  13:  -387.11952430973054   -2.88139e-05   7.72991e-06 DIIS
   @DF-RHF iter  14:  -387.11952565924707   -1.34952e-06   1.82539e-06 DIIS
   @DF-RHF iter  15:  -387.11952575512692   -9.58798e-08   4.70481e-07 DIIS
   @DF-RHF iter  16:  -387.11952576374188   -8.61496e-09   1.43338e-07 DIIS
   @DF-RHF iter  17:  -387.11952576458623   -8.44352e-10   6.13227e-08 DIIS
   @DF-RHF iter  18:  -387.11952576480780   -2.21576e-10   2.96201e-08 DIIS
   @DF-RHF iter  19:  -387.11952576488716   -7.93534e-11   1.18299e-08 DIIS
   @DF-RHF iter  20:  -387.11952576489875   -1.15961e-11   5.36001e-09 DIIS

  ==> Post-Iterations <==

    Orbital Energies (a.u.)
    -----------------------

    Doubly Occupied:                                                      

       1A    -20.561600     2A    -11.325278     3A    -11.235527  
       4A    -11.234338     5A    -11.228307     6A    -11.222547  
       7A    -11.220356     8A    -11.219772     9A    -11.212148  
      10A     -1.401445    11A     -1.106671    12A     -1.071426  
      13A     -1.014493    14A     -0.943380    15A     -0.877087  
      16A     -0.828668    17A     -0.784616    18A     -0.781129  
      19A     -0.674205    20A     -0.661281    21A     -0.633309  
      22A     -0.618615    23A     -0.612283    24A     -0.585537  
      25A     -0.571823    26A     -0.563641    27A     -0.538857  
      28A     -0.520994    29A     -0.512025    30A     -0.504294  
      31A     -0.485955    32A     -0.482052    33A     -0.467576  
      34A     -0.461461    35A     -0.444846    36A     -0.406371  

    Virtual:                                                              

      37A      0.158281    38A      0.223557    39A      0.243517  
      40A      0.245283    41A      0.254229    42A      0.272183  
      43A      0.285586    44A      0.294231    45A      0.302066  
      46A      0.311505    47A      0.316199    48A      0.328786  
      49A      0.333562    50A      0.344349    51A      0.346146  
      52A      0.363024    53A      0.377582    54A      0.386334  
      55A      0.396869    56A      0.425605    57A      0.429196  
      58A      0.451299    59A      0.476871    60A      0.487264  
      61A      0.517287    62A      0.691150    63A      0.703727  
      64A      0.709393    65A      0.732974    66A      0.740281  
      67A      0.747228    68A      0.771005    69A      0.791249  
      70A      0.818263    71A      0.849228    72A      0.863987  
      73A      0.889817    74A      0.905957    75A      0.936684  
      76A      0.939051    77A      0.964936    78A      0.978501  
      79A      0.997579    80A      1.017078    81A      1.041561  
      82A      1.088130    83A      1.094955    84A      1.115114  
      85A      1.119078    86A      1.130884    87A      1.132743  
      88A      1.138970    89A      1.154696    90A      1.174847  
      91A      1.176922    92A      1.190291    93A      1.192123  
      94A      1.213174    95A      1.215931    96A      1.223201  
      97A      1.243528    98A      1.247134    99A      1.249733  
     100A      1.260341   101A      1.278142   102A      1.287805  
     103A      1.331371   104A      1.354510   105A      1.372771  
     106A      1.475323   107A      1.493663   108A      1.640877  
     109A      1.652570   110A      1.718463   111A      1.727381  
     112A      1.733858   113A      1.793825   114A      1.803059  
     115A      1.840837   116A      1.856953   117A      1.890371  
     118A      1.944106   119A      2.005723   120A      2.046459  
     121A      2.074789   122A      2.119802   123A      2.124882  
     124A      2.149178   125A      2.182598   126A      2.192400  
     127A      2.225618   128A      2.240861   129A      2.269929  
     130A      2.285480   131A      2.293830   132A      2.333065  
     133A      2.349841   134A      2.376267   135A      2.389584  
     136A      2.407743   137A      2.473895   138A      2.517595  
     139A      2.566890   140A      2.605899   141A      2.643764  
     142A      2.661089   143A      2.688416   144A      2.711783  
     145A      2.742507   146A      2.754539   147A      2.794363  
     148A      2.801684   149A      2.907974   150A      2.943166  
     151A      2.957751   152A      2.970709   153A      2.996831  
     154A      3.022942   155A      3.126602   156A      3.185417  
     157A      3.273736   158A      3.375331   159A      4.308953  
     160A      4.519297   161A      4.571865   162A      4.647710  
     163A      4.731568   164A      4.815735   165A      4.865876  
     166A      4.915234   167A      5.008830  

    Final Occupation by Irrep:
              A 
    DOCC [    36 ]

  Energy converged.

  @DF-RHF Final Energy:  -387.11952576489875

   => Energetics <=

    Nuclear Repulsion Energy =            437.7535341503491964
    One-Electron Energy =               -1391.7182998237967695
    Two-Electron Energy =                 566.8452399085484785
    DFT Exchange-Correlation Energy =       0.0000000000000000
    Empirical Dispersion Energy =           0.0000000000000000
    PCM Polarization Energy =               0.0000000000000000
    EFP Energy =                            0.0000000000000000
    Total Energy =                       -387.1195257648990946

    Alert: EFP and PCM quantities not currently incorporated into SCF psivars.

Properties will be evaluated at   0.000000,   0.000000,   0.000000 Bohr
  ==> Properties <==


Properties computed using the SCF density matrix

  Nuclear Dipole Moment: (a.u.)
     X:    14.1965      Y:    -3.7296      Z:     5.5843

  Electronic Dipole Moment: (a.u.)
     X:   -13.3360      Y:     3.0757      Z:    -4.8328

  Dipole Moment: (a.u.)
     X:     0.8605      Y:    -0.6539      Z:     0.7516     Total:     1.3164

  Dipole Moment: (Debye)
     X:     2.1872      Y:    -1.6619      Z:     1.9103     Total:     3.3459


  Saving occupied orbitals to File 180.

*** tstop() called on cx1-1-2-2.cx1.hpc.ic.ac.uk at Fri Sep  2 13:20:28 2016
Module time:
	user time   =      34.93 seconds =       0.58 minutes
	system time =       0.41 seconds =       0.01 minutes
	total time  =         11 seconds =       0.18 minutes
Total time:
	user time   =      34.93 seconds =       0.58 minutes
	system time =       0.41 seconds =       0.01 minutes
	total time  =         11 seconds =       0.18 minutes

*** tstart() called on cx1-1-2-2.cx1.hpc.ic.ac.uk
*** at Fri Sep  2 13:20:28 2016


         ------------------------------------------------------------
                                   SCF GRAD                          
                          Rob Parrish, Justin Turney,                
                       Andy Simmonett, and Alex Sokolov              
         ------------------------------------------------------------

  ==> Geometry <==

    Molecular point group: c1
    Full point group: C1

    Geometry (in Angstrom), charge = 0, multiplicity = 1:

       Center              X                  Y                   Z               Mass       
    ------------   -----------------  -----------------  -----------------  -----------------
           H         -2.181918062845    -0.048655459158    -1.869083040709     1.007825032070
           C         -2.881367062845     0.564024540842    -1.286831040709    12.000000000000
           C         -2.746398062845     0.437423540842     0.209286959291    12.000000000000
           O         -3.669586062845     1.259707540842    -1.840443040709    15.994914619560
           C         -1.306166062845     0.660251540842     0.691297959291    12.000000000000
           H         -3.434706062845     1.133190540842     0.674957959291     1.007825032070
           H         -3.060781062845    -0.571261459158     0.474566959291     1.007825032070
           C         -0.338812062845    -0.442837459158     0.254582959291    12.000000000000
           H         -0.959675062845     1.615935540842     0.309333959291     1.007825032070
           H         -1.297862062845     0.747300540842     1.776705959291     1.007825032070
           C          1.094620937155    -0.201880459158     0.732101959291    12.000000000000
           H         -0.352183062845    -0.518758459158    -0.830730040709     1.007825032070
           H         -0.683887062845    -1.405293459158     0.627598959291     1.007825032070
           C          2.062472937155    -1.298608459158     0.279995959291    12.000000000000
           H          1.430044937155     0.764934540842     0.365370959291     1.007825032070
           H          1.106515937155    -0.138276459158     1.819390959291     1.007825032070
           C          3.494735937155    -1.143424459158     0.804029959291    12.000000000000
           H          2.080714937155    -1.336736459158    -0.808079040709     1.007825032070
           H          1.676702937155    -2.260802459158     0.610263959291     1.007825032070
           C          4.238734937155     0.080639540842     0.267603959291    12.000000000000
           H          4.055855937155    -2.035766459158     0.537912959291     1.007825032070
           H          3.478681937155    -1.108987459158     1.891447959291     1.007825032070
           H          4.256461937155     0.081197540842    -0.819113040709     1.007825032070
           H          3.780500937155     1.009108540842     0.591549959291     1.007825032070
           H          5.267745937155     0.088077540842     0.614123959291     1.007825032070

  Nuclear repulsion =  437.753534150349253

  ==> Basis Set <==

  Basis Set: 6-31G*
    Number of shells: 86
    Number of basis function: 167
    Number of Cartesian functions: 167
    Spherical Harmonics?: false
    Max angular momentum: 2

  ==> DFJKGrad: Density-Fitted SCF Gradients <==

    Gradient:                    1
    J tasked:                  Yes
    K tasked:                  Yes
    wK tasked:                  No
    OpenMP threads:              4
    Integrals threads:           4
    Memory (MB):              1430
    Schwarz Cutoff:          0E+00
    Fitting Condition:       1E-12

   => Auxiliary Basis Set <=

  Basis Set: 
    Number of shells: 360
    Number of basis function: 1129
    Number of Cartesian functions: 1129
    Spherical Harmonics?: false
    Max angular momentum: 3


  -Total Gradient:
     Atom            X                  Y                   Z
    ------   -----------------  -----------------  -----------------
       1        0.003086284674    -0.001622683997     0.000886605302
       2       -0.002127651712     0.001262700119     0.000609986217
       3        0.002100080887     0.001828237612    -0.001198138630
       4        0.000938540437    -0.000662603337    -0.000320286171
       5       -0.000678609344    -0.000489363748    -0.000251190738
       6       -0.000262670222    -0.000215487913     0.000836282930
       7        0.000740366328    -0.000028134301    -0.000934681679
       8       -0.001090033116    -0.000210722899     0.000056599047
       9       -0.001552206007    -0.001525162908    -0.000525805871
      10        0.001289920523     0.001101024796     0.002050853486
      11       -0.000397520056    -0.000299063515     0.000844075917
      12       -0.003282666453     0.001005325855    -0.001386858377
      13        0.000998089063    -0.000441420643    -0.000662458419
      14        0.000026501136     0.000005698968    -0.000277675842
      15       -0.000012875305     0.000126129852    -0.000113593103
      16        0.000336040489     0.000054395658     0.000261648095
      17       -0.000156446027     0.000201953836     0.000180580104
      18       -0.000117229354    -0.000068626070    -0.000009588091
      19        0.000016132969     0.000125758490    -0.000024871309
      20       -0.000070717316    -0.000114291717     0.000058105929
      21        0.000046057176     0.000022376229    -0.000043856593
      22        0.000084400720     0.000031607345    -0.000008118241
      23       -0.000062821039     0.000004710370    -0.000099384811
      24       -0.000025425217    -0.000080873965     0.000008967113
      25        0.000174456768    -0.000011484119     0.000062803735


*** tstop() called on cx1-1-2-2.cx1.hpc.ic.ac.uk at Fri Sep  2 13:20:40 2016
Module time:
	user time   =      39.40 seconds =       0.66 minutes
	system time =       0.32 seconds =       0.01 minutes
	total time  =         12 seconds =       0.20 minutes
Total time:
	user time   =      74.35 seconds =       1.24 minutes
	system time =       0.73 seconds =       0.01 minutes
	total time  =         23 seconds =       0.38 minutes
CURRENT ENERGY: -387.1195257649

			-----------------------------------------
			 OPTKING 2.0: for geometry optimizations 
			  - R.A. King,  Bethel University        
			-----------------------------------------

	Internal coordinates to be generated automatically.
	Detected frag with atoms:  1 2 3 4 5 6 7 8 9 10 11 12 13 14 15 16 17 18 19 20
	 21 22 23 24 25
	---Fragment 1 Bond Connectivity---
	 1 : 2
	 2 : 1 3 4
	 3 : 2 5 6 7
	 4 : 2
	 5 : 3 8 9 10
	 6 : 3
	 7 : 3
	 8 : 5 11 12 13
	 9 : 5
	 10 : 5
	 11 : 8 14 15 16
	 12 : 8
	 13 : 8
	 14 : 11 17 18 19
	 15 : 11
	 16 : 11
	 17 : 14 20 21 22
	 18 : 14
	 19 : 14
	 20 : 17 23 24 25
	 21 : 17
	 22 : 17
	 23 : 20
	 24 : 20
	 25 : 20

	Assuming in current code that numbering for constraints corresponds to unified fragment.
	Frozen dihedral atom list: 
	     6     3     5     8
	---Fragment 1 Geometry and Gradient---
	 H          -4.1232275832       -0.0919454927       -3.5320550666
	 C          -5.4449946371        1.0658519144       -2.4317582462
	 C          -5.1899401907        0.8266106963        0.3954950362
	 O          -6.9345126798        2.3805022597       -3.4779333101
	 C          -2.4682961428        1.2476945910        1.3063638193
	 H          -6.4906538057        2.1414197786        1.2754856943
	 H          -5.7840379615       -1.0795277081        0.8968015848
	 C          -0.6402620093       -0.8368415192        0.4810920712
	 H          -1.8135230453        3.0536756206        0.5845564667
	 H          -2.4526038570        1.4121933611        3.3574876817
	 C           2.0685337905       -0.3814987794        1.3834722044
	 H          -0.6655295374       -0.9803114169       -1.5698522673
	 H          -1.2923592546       -2.6556197741        1.1859901543
	 C           3.8975090077       -2.4540143417        0.5291156814
	 H           2.7023932889        1.4455167918        0.6904510500
	 H           2.0910120829       -0.2613046384        3.4381506417
	 C           6.6040938280       -2.1607590815        1.5193964257
	 H           3.9319813918       -2.5260658197       -1.5270480807
	 H           3.1685093574       -4.2722974884        1.1532317518
	 C           8.0100481811        0.1523866477        0.5056981951
	 H           7.6644569557       -3.8470410783        1.0165081764
	 H           6.5737561646       -2.0956825826        3.5743186377
	 H           8.0435473563        0.1534411149       -1.5478993188
	 H           7.1441114163        1.9069387805        1.1178674170
	 H           9.9545971588        0.1664424307        1.1605260947
	             0.0030862847       -0.0016226840        0.0008866053
	            -0.0021276517        0.0012627001        0.0006099862
	             0.0021000809        0.0018282376       -0.0011981386
	             0.0009385404       -0.0006626033       -0.0003202862
	            -0.0006786093       -0.0004893637       -0.0002511907
	            -0.0002626702       -0.0002154879        0.0008362829
	             0.0007403663       -0.0000281343       -0.0009346817
	            -0.0010900331       -0.0002107229        0.0000565990
	            -0.0015522060       -0.0015251629       -0.0005258059
	             0.0012899205        0.0011010248        0.0020508535
	            -0.0003975201       -0.0002990635        0.0008440759
	            -0.0032826665        0.0010053259       -0.0013868584
	             0.0009980891       -0.0004414206       -0.0006624584
	             0.0000265011        0.0000056990       -0.0002776758
	            -0.0000128753        0.0001261299       -0.0001135931
	             0.0003360405        0.0000543957        0.0002616481
	            -0.0001564460        0.0002019538        0.0001805801
	            -0.0001172294       -0.0000686261       -0.0000095881
	             0.0000161330        0.0001257585       -0.0000248713
	            -0.0000707173       -0.0001142917        0.0000581059
	             0.0000460572        0.0000223762       -0.0000438566
	             0.0000844007        0.0000316073       -0.0000081182
	            -0.0000628210        0.0000047104       -0.0000993848
	            -0.0000254252       -0.0000808740        0.0000089671
	             0.0001744568       -0.0000114841        0.0000628037

	Previous optimization step data not found.  Starting new optimization.

	---Fragment 1 Intrafragment Coordinates---
	 - Coordinate -           - BOHR/RAD -       - ANG/DEG -
	 R(1,2)           =         2.073214	       1.097098
	 R(2,3)           =         2.848798	       1.507519
	 R(2,4)           =         2.245318	       1.188171
	 R(3,5)           =         2.900748	       1.535010
	 R(3,6)           =         2.048161	       1.083840
	 R(3,7)           =         2.058549	       1.089337
	 R(5,8)           =         2.892762	       1.530784
	 R(5,9)           =         2.052145	       1.085949
	 R(5,10)          =         2.057769	       1.088925
	 R(8,11)          =         2.891228	       1.529972
	 R(8,12)          =         2.056112	       1.088047
	 R(8,13)          =         2.056713	       1.088365
	 R(11,14)         =         2.893164	       1.530996
	 R(11,15)         =         2.054274	       1.087075
	 R(11,16)         =         2.058314	       1.089213
	 R(14,17)         =         2.896939	       1.532994
	 R(14,18)         =         2.057715	       1.088896
	 R(14,19)         =         2.055995	       1.087986
	 R(17,20)         =         2.890490	       1.529582
	 R(17,21)         =         2.054462	       1.087174
	 R(17,22)         =         2.056176	       1.088082
	 R(20,23)         =         2.053871	       1.086862
	 R(20,24)         =         2.050134	       1.084884
	 R(20,25)         =         2.051894	       1.085815
	 B(1,2,3)         =         2.007250	     115.006936
	 B(1,2,4)         =         2.097444	     120.174676
	 B(2,3,5)         =         1.964324	     112.547463
	 B(2,3,6)         =         1.891919	     108.398958
	 B(2,3,7)         =         1.868793	     107.073966
	 B(3,2,4)         =         2.178492	     124.818371
	 B(3,5,8)         =         1.980924	     113.498558
	 B(3,5,9)         =         1.893013	     108.461633
	 B(3,5,10)        =         1.908962	     109.375455
	 B(5,3,6)         =         1.947385	     111.576950
	 B(5,3,7)         =         1.905752	     109.191571
	 B(5,8,11)        =         1.970917	     112.925234
	 B(5,8,12)        =         1.904016	     109.092094
	 B(5,8,13)        =         1.916760	     109.822233
	 B(6,3,7)         =         1.882319	     107.848924
	 B(8,5,9)         =         1.909420	     109.401708
	 B(8,5,10)        =         1.914688	     109.703540
	 B(8,11,14)       =         1.968494	     112.786418
	 B(8,11,15)       =         1.900606	     108.896722
	 B(8,11,16)       =         1.908145	     109.328671
	 B(9,5,10)        =         1.852313	     106.129710
	 B(11,8,12)       =         1.911158	     109.501291
	 B(11,8,13)       =         1.906416	     109.229577
	 B(11,14,17)      =         2.001127	     114.656143
	 B(11,14,18)      =         1.907898	     109.314490
	 B(11,14,19)      =         1.896245	     108.646808
	 B(12,8,13)       =         1.850705	     106.037584
	 B(14,11,15)      =         1.920287	     110.024335
	 B(14,11,16)      =         1.906790	     109.251013
	 B(14,17,20)      =         1.999369	     114.555402
	 B(14,17,21)      =         1.891728	     108.388011
	 B(14,17,22)      =         1.908210	     109.332359
	 B(15,11,16)      =         1.856107	     106.347111
	 B(17,14,18)      =         1.906541	     109.236727
	 B(17,14,19)      =         1.893394	     108.483514
	 B(17,20,23)      =         1.937991	     111.038716
	 B(17,20,24)      =         1.954884	     112.006606
	 B(17,20,25)      =         1.933199	     110.764149
	 B(18,14,19)      =         1.852824	     106.158983
	 B(20,17,21)      =         1.896477	     108.660157
	 B(20,17,22)      =         1.909576	     109.410635
	 B(21,17,22)      =         1.852739	     106.154108
	 B(23,20,24)      =         1.880745	     107.758739
	 B(23,20,25)      =         1.879297	     107.675787
	 B(24,20,25)      =         1.874575	     107.405240
	 D(1,2,3,5)       =         0.911725	      52.238006
	 D(1,2,3,6)       =         3.074186	     176.137878
	 D(1,2,3,7)       =        -1.182515	     -67.753130
	 D(2,3,5,8)       =        -1.184725	     -67.879759
	 D(2,3,5,9)       =         0.941178	      53.925551
	 D(2,3,5,10)      =         2.954116	     169.258400
	 D(3,5,8,11)      =         3.133357	     179.528141
	 D(3,5,8,12)      =         1.004026	      57.526455
	 D(3,5,8,13)      =        -1.017393	     -58.292351
	 D(4,2,3,5)       =        -2.230679	    -127.808465
	 D(4,2,3,6)       =        -0.068218	      -3.908593
	 D(4,2,3,7)       =         1.958266	     112.200398
	 D(5,8,11,14)     =        -3.130079	    -179.340336
	 D(5,8,11,15)     =        -0.993161	     -56.903962
	 D(5,8,11,16)     =         1.028037	      58.902156
	*D(6,3,5,8)       =         2.967059	     169.999986
	 D(6,3,5,9)       =        -1.190222	     -68.194704
	 D(6,3,5,10)      =         0.822716	      47.138145
	 D(7,3,5,8)       =         0.888011	      50.879303
	 D(7,3,5,9)       =         3.013915	     172.684613
	 D(7,3,5,10)      =        -1.256332	     -71.982538
	 D(8,11,14,17)    =        -3.081836	    -176.576209
	 D(8,11,14,18)    =         1.054137	      60.397615
	 D(8,11,14,19)    =        -0.960606	     -55.038673
	 D(9,5,8,11)      =         1.016622	      58.248135
	 D(9,5,8,12)      =        -1.112709	     -63.753550
	 D(9,5,8,13)      =        -3.134129	    -179.572357
	 D(10,5,8,11)     =        -1.008641	     -57.790889
	 D(10,5,8,12)     =        -3.137972	    -179.792575
	 D(10,5,8,13)     =         1.123793	      64.388619
	 D(11,14,17,20)   =        -1.152772	     -66.048997
	 D(11,14,17,21)   =         3.009745	     172.445696
	 D(11,14,17,22)   =         0.997406	      57.147135
	 D(12,8,11,14)    =        -1.004768	     -57.568948
	 D(12,8,11,15)    =         1.132150	      64.867425
	 D(12,8,11,16)    =        -3.129837	    -179.326456
	 D(13,8,11,14)    =         1.014879	      58.148278
	 D(13,8,11,15)    =        -3.131389	    -179.415348
	 D(13,8,11,16)    =        -1.110190	     -63.609230
	 D(14,17,20,23)   =        -0.975995	     -55.920410
	 D(14,17,20,24)   =         1.127583	      64.605735
	 D(14,17,20,25)   =        -3.063188	    -175.507770
	 D(15,11,14,17)   =         1.075509	      61.622122
	 D(15,11,14,18)   =        -1.071703	     -61.404054
	 D(15,11,14,19)   =        -3.086446	    -176.840342
	 D(16,11,14,17)   =        -0.956001	     -54.774830
	 D(16,11,14,18)   =        -3.103213	    -177.801006
	 D(16,11,14,19)   =         1.165229	      66.762706
	 D(18,14,17,20)   =         0.995169	      57.018981
	 D(18,14,17,21)   =        -1.125499	     -64.486326
	 D(18,14,17,22)   =        -3.137838	    -179.784888
	 D(19,14,17,20)   =         3.007626	     172.324257
	 D(19,14,17,21)   =         0.886958	      50.818950
	 D(19,14,17,22)   =        -1.125382	     -64.479611
	 D(21,17,20,23)   =         1.142068	      65.435691
	 D(21,17,20,24)   =        -3.037539	    -174.038165
	 D(21,17,20,25)   =        -0.945125	     -54.151669
	 D(22,17,20,23)   =        -3.125439	    -179.074444
	 D(22,17,20,24)   =        -1.021861	     -58.548299
	 D(22,17,20,25)   =         1.070553	      61.338196

	Current energy   :      -387.1195257649

	Generating empirical Hessian (Schlegel '84) for each fragment.
	Taking RFO optimization step.
	Going to follow RFO solution 1.
	Using RFO vector 1.
	Norm of target step-size    0.30809
	Projected energy change by RFO approximation:         0.0018220216

	Back-transformation to cartesian coordinates...
	Successfully converged to displaced geometry.

	Back-transformation to cartesian coordinates to adjust frozen coordinates...
	Successfully converged to displaced geometry.

	--- Internal Coordinate Step in ANG or DEG, aJ/ANG or AJ/DEG ---
	 ---------------------------------------------------------------------------
	   Coordinate                Previous        Force       Change         New 
	   ----------                --------       ------       ------       ------
	    1 R(1,2)          =      1.097098    -0.019800    -0.003716     1.093382
	    2 R(2,3)          =      1.507519     0.011725     0.002367     1.509886
	    3 R(2,4)          =      1.188171     0.007096     0.000410     1.188581
	    4 R(3,5)          =      1.535010     0.034953     0.007692     1.542702
	    5 R(3,6)          =      1.083840    -0.003195    -0.000574     1.083266
	    6 R(3,7)          =      1.089337     0.003421     0.000626     1.089963
	    7 R(5,8)          =      1.530784     0.017775     0.003861     1.534645
	    8 R(5,9)          =      1.085949     0.013615     0.002463     1.088412
	    9 R(5,10)         =      1.088925    -0.017648    -0.003224     1.085701
	   10 R(8,11)         =      1.529972    -0.000925    -0.000200     1.529772
	   11 R(8,12)         =      1.088047    -0.011152    -0.002031     1.086016
	   12 R(8,13)         =      1.088365     0.001262     0.000230     1.088596
	   13 R(11,14)        =      1.530996     0.000760     0.000165     1.531162
	   14 R(11,15)        =      1.087075    -0.001207    -0.000219     1.086856
	   15 R(11,16)        =      1.089213    -0.002208    -0.000404     1.088809
	   16 R(14,17)        =      1.532994    -0.000412    -0.000090     1.532904
	   17 R(14,18)        =      1.088896    -0.000083    -0.000015     1.088881
	   18 R(14,19)        =      1.087986     0.001026     0.000187     1.088173
	   19 R(17,20)        =      1.529582     0.001357     0.000294     1.529875
	   20 R(17,21)        =      1.087174    -0.000133    -0.000024     1.087150
	   21 R(17,22)        =      1.088082     0.000069     0.000013     1.088094
	   22 R(20,23)        =      1.086862    -0.000810    -0.000147     1.086715
	   23 R(20,24)        =      1.084884     0.000460     0.000083     1.084967
	   24 R(20,25)        =      1.085815    -0.001527    -0.000276     1.085539
	   25 B(1,2,3)        =    115.006936     0.000314     1.240858   116.247794
	   26 B(1,2,4)        =    120.174676    -0.000087    -0.624885   119.549791
	   27 B(2,3,5)        =    112.547463     0.000479     1.607165   114.154627
	   28 B(2,3,6)        =    108.398958    -0.000303    -2.379155   106.019803
	   29 B(2,3,7)        =    107.073966    -0.000061     0.989110   108.063076
	   30 B(3,2,4)        =    124.818371    -0.000227    -0.844639   123.973732
	   31 B(3,5,8)        =    113.498558     0.000576     2.122535   115.621092
	   32 B(3,5,9)        =    108.461633    -0.000049     1.048019   109.509652
	   33 B(3,5,10)       =    109.375455    -0.000300    -1.998536   107.376919
	   34 B(5,3,6)        =    111.576950    -0.000144    -1.265336   110.311613
	   35 B(5,3,7)        =    109.191571    -0.000065     0.847570   110.039140
	   36 B(5,8,11)       =    112.925234    -0.000036    -0.188385   112.736849
	   37 B(5,8,12)       =    109.092094     0.000224     1.793339   110.885433
	   38 B(5,8,13)       =    109.822233    -0.000103    -0.851070   108.971163
	   39 B(6,3,7)        =    107.848924     0.000084     0.158078   108.007002
	   40 B(8,5,9)        =    109.401708    -0.000191     0.107600   109.509307
	   41 B(8,5,10)       =    109.703540    -0.000156    -1.148863   108.554677
	   42 B(8,11,14)      =    112.786418     0.000022     0.078175   112.864593
	   43 B(8,11,15)      =    108.896722     0.000004     0.113605   109.010327
	   44 B(8,11,16)      =    109.328671    -0.000030    -0.260209   109.068462
	   45 B(9,5,10)       =    106.129710     0.000090    -0.333951   105.795759
	   46 B(11,8,12)      =    109.501291    -0.000168    -0.901708   108.599583
	   47 B(11,8,13)      =    109.229577     0.000076    -0.080660   109.148917
	   48 B(11,14,17)     =    114.656143     0.000003     0.006026   114.662169
	   49 B(11,14,18)     =    109.314490     0.000001    -0.013093   109.301396
	   50 B(11,14,19)     =    108.646808     0.000002     0.045144   108.691952
	   51 B(12,8,13)      =    106.037584     0.000009     0.246027   106.283611
	   52 B(14,11,15)     =    110.024335    -0.000008     0.071617   110.095952
	   53 B(14,11,16)     =    109.251013     0.000005    -0.018377   109.232636
	   54 B(14,17,20)     =    114.555402    -0.000002    -0.007655   114.547747
	   55 B(14,17,21)     =    108.388011     0.000001     0.023334   108.411345
	   56 B(14,17,22)     =    109.332359    -0.000006    -0.072371   109.259988
	   57 B(15,11,16)     =    106.347111     0.000005     0.008318   106.355429
	   58 B(17,14,18)     =    109.236727    -0.000006    -0.068304   109.168423
	   59 B(17,14,19)     =    108.483514    -0.000002     0.007199   108.490712
	   60 B(17,20,23)     =    111.038716     0.000002     0.009438   111.048153
	   61 B(17,20,24)     =    112.006606     0.000007     0.040295   112.046902
	   62 B(17,20,25)     =    110.764149    -0.000001    -0.013711   110.750437
	   63 B(18,14,19)     =    106.158983     0.000002     0.025801   106.184784
	   64 B(20,17,21)     =    108.660157     0.000004     0.061069   108.721225
	   65 B(20,17,22)     =    109.410635     0.000004     0.001673   109.412309
	   66 B(21,17,22)     =    106.154108    -0.000001    -0.004681   106.149427
	   67 B(23,20,24)     =    107.758739    -0.000002     0.004641   107.763380
	   68 B(23,20,25)     =    107.675787    -0.000003    -0.027373   107.648413
	   69 B(24,20,25)     =    107.405240    -0.000003    -0.016167   107.389073
	   70 D(1,2,3,5)      =     52.238006     0.000028     6.484223    58.722229
	   71 D(1,2,3,6)      =    176.137878     0.000010     4.223578   180.361455
	   72 D(1,2,3,7)      =    -67.753130    -0.000010     3.705073   -64.048057
	   73 D(2,3,5,8)      =    -67.879759    -0.000035    -2.878172   -70.757931
	   74 D(2,3,5,9)      =     53.925551    -0.000011    -0.430019    53.495532
	   75 D(2,3,5,10)     =    169.258400    -0.000030    -1.339425   167.918975
	   76 D(3,5,8,11)     =    179.528141     0.000020     6.031762   185.559903
	   77 D(3,5,8,12)     =     57.526455     0.000038     6.024585    63.551040
	   78 D(3,5,8,13)     =    -58.292351     0.000020     5.194662   -53.097689
	   79 D(4,2,3,5)      =   -127.808465     0.000017     0.995492  -126.812973
	   80 D(4,2,3,6)      =     -3.908593    -0.000001    -1.265153    -5.173747
	   81 D(4,2,3,7)      =    112.200398    -0.000021    -1.783658   110.416740
	   82 D(5,8,11,14)    =   -179.340336    -0.000020    -1.459262  -180.799598
	   83 D(5,8,11,15)    =    -56.903962    -0.000018    -1.233232   -58.137194
	   84 D(5,8,11,16)    =     58.902156    -0.000020    -1.303521    57.598636
	   85 *D(6,3,5,8)     =    169.999986     0.000000    -0.000000   169.999986
	   86 D(6,3,5,9)      =    -68.194704     0.000024     2.448153   -65.746551
	   87 D(6,3,5,10)     =     47.138145     0.000005     1.538747    48.676892
	   88 D(7,3,5,8)      =     50.879303     0.000006     0.050585    50.929888
	   89 D(7,3,5,9)      =    172.684613     0.000030     2.498738   175.183351
	   90 D(7,3,5,10)     =    -71.982538     0.000011     1.589332   -70.393206
	   91 D(8,11,14,17)   =   -176.576209     0.000002     0.448032  -176.128178
	   92 D(8,11,14,18)   =     60.397615     0.000004     0.543512    60.941127
	   93 D(8,11,14,19)   =    -55.038673     0.000003     0.495120   -54.543554
	   94 D(9,5,8,11)     =     58.248135    -0.000023     3.058126    61.306261
	   95 D(9,5,8,12)     =    -63.753550    -0.000005     3.050948   -60.702602
	   96 D(9,5,8,13)     =   -179.572357    -0.000024     2.221025  -177.351331
	   97 D(10,5,8,11)    =    -57.790889    -0.000003     4.038418   -53.752472
	   98 D(10,5,8,12)    =   -179.792575     0.000015     4.031240  -175.761334
	   99 D(10,5,8,13)    =     64.388619    -0.000003     3.201317    67.589936
	  100 D(11,14,17,20)  =    -66.048997     0.000001     0.207890   -65.841106
	  101 D(11,14,17,21)  =    172.445696    -0.000000     0.117101   172.562797
	  102 D(11,14,17,22)  =     57.147135     0.000001     0.148545    57.295680
	  103 D(12,8,11,14)   =    -57.568948     0.000013     0.058683   -57.510265
	  104 D(12,8,11,15)   =     64.867425     0.000015     0.284713    65.152138
	  105 D(12,8,11,16)   =   -179.326456     0.000013     0.214424  -179.112032
	  106 D(13,8,11,14)   =     58.148278     0.000004    -0.189243    57.959035
	  107 D(13,8,11,15)   =   -179.415348     0.000005     0.036787  -179.378561
	  108 D(13,8,11,16)   =    -63.609230     0.000004    -0.033502   -63.642732
	  109 D(14,17,20,23)  =    -55.920410    -0.000001    -0.283494   -56.203904
	  110 D(14,17,20,24)  =     64.605735    -0.000001    -0.243364    64.362371
	  111 D(14,17,20,25)  =   -175.507770    -0.000001    -0.246292  -175.754061
	  112 D(15,11,14,17)  =     61.622122    -0.000001     0.195858    61.817981
	  113 D(15,11,14,18)  =    -61.404054     0.000000     0.291339   -61.112715
	  114 D(15,11,14,19)  =   -176.840342    -0.000001     0.242946  -176.597396
	  115 D(16,11,14,17)  =    -54.774830    -0.000002     0.155584   -54.619246
	  116 D(16,11,14,18)  =   -177.801006    -0.000001     0.251065  -177.549941
	  117 D(16,11,14,19)  =     66.762706    -0.000002     0.202672    66.965378
	  118 D(18,14,17,20)  =     57.018981     0.000001     0.142145    57.161126
	  119 D(18,14,17,21)  =    -64.486326    -0.000001     0.051355   -64.434971
	  120 D(18,14,17,22)  =   -179.784888     0.000000     0.082800  -179.702088
	  121 D(19,14,17,20)  =    172.324257     0.000000     0.140153   172.464410
	  122 D(19,14,17,21)  =     50.818950    -0.000001     0.049363    50.868313
	  123 D(19,14,17,22)  =    -64.479611    -0.000000     0.080807   -64.398804
	  124 D(21,17,20,23)  =     65.435691    -0.000001    -0.213272    65.222419
	  125 D(21,17,20,24)  =   -174.038165    -0.000000    -0.173142  -174.211307
	  126 D(21,17,20,25)  =    -54.151669    -0.000000    -0.176069   -54.327738
	  127 D(22,17,20,23)  =   -179.074444     0.000000    -0.184241  -179.258685
	  128 D(22,17,20,24)  =    -58.548299     0.000001    -0.144111   -58.692410
	  129 D(22,17,20,25)  =     61.338196     0.000001    -0.147038    61.191158
	 ---------------------------------------------------------------------------

  ==> Convergence Check <==

  Measures of convergence in internal coordinates in au.
  Criteria marked as inactive (o), active & met (*), and active & unmet ( ).
  --------------------------------------------------------------------------------------------- ~
   Step     Total Energy     Delta E     MAX Force     RMS Force      MAX Disp      RMS Disp    ~
  --------------------------------------------------------------------------------------------- ~
    Convergence Criteria    1.00e-06 *    3.00e-04 *             o    1.20e-03 *             o  ~
  --------------------------------------------------------------------------------------------- ~
      1    -387.11952576   -3.87e+02      7.57e-03      1.44e-03 o    1.13e-01      2.71e-02 o  ~
  ---------------------------------------------------------------------------------------------

	Writing optimization data to binary file.
	Structure for next step:
	Cartesian Geometry (in Angstrom)
	    H    -2.4912415781  -0.1064089086  -1.9115436967
	    C    -3.0453889257   0.5636037929  -1.2486052427
	    C    -2.7544973927   0.4335854050   0.2272783307
	    O    -3.8899833939   1.2678734009  -1.6995920002
	    C    -1.2769818359   0.6700677013   0.6027163696
	    H    -3.3889377835   1.1589414515   0.7220606102
	    H    -3.0665651817  -0.5606210838   0.5469450845
	    C    -0.2972853545  -0.4271133653   0.1650832019
	    H    -0.9499364580   1.6290613011   0.2052084394
	    H    -1.2282790564   0.7658566267   1.6830858923
	    C     1.1220784317  -0.1945801515   0.6861752850
	    H    -0.2605412938  -0.5039936291  -0.9175848408
	    H    -0.6576451437  -1.3883565102   0.5272885806
	    C     2.0977548263  -1.2978581284   0.2674996164
	    H     1.4754344122   0.7704262863   0.3323986524
	    H     1.0962522971  -0.1320488825   1.7728803236
	    C     3.5106034449  -1.1551974625   0.8448224400
	    H     2.1573696676  -1.3322539990  -0.8192036839
	    H     1.6927722066  -2.2584295056   0.5796071636
	    C     4.2816896317   0.0672748405   0.3433180989
	    H     4.0752702570  -2.0502036101   0.5958019374
	    H     3.4532247675  -1.1259919985   1.9310101564
	    H     4.3437642369   0.0714807170  -0.7416141763
	    H     3.8158714933   0.9973239160   0.6518246150
	    H     5.2956473082   0.0680640063   0.7309842891
			--------------------------
			 OPTKING Finished Execution 
			--------------------------

    Structure for next step:
    Molecular point group: c1
    Full point group: C1

    Geometry (in Angstrom), charge = 0, multiplicity = 1:

    H           -2.467188910123    -0.107723968646    -1.922547757878
    C           -3.021336215436     0.562288681644    -1.259609354488
    C           -2.730444704598     0.432270303656     0.216274106192
    O           -3.865930619140     1.266558235859    -1.710596077598
    C           -1.252929260672     0.668752581966     0.591712116375
    H           -3.364885046985     1.157626294771     0.711056347920
    H           -3.042512469786    -0.561936109155     0.535940835599
    C           -0.273232854060    -0.428428400827     0.154078982143
    H           -0.925883907748     1.627746108475     0.194204216528
    H           -1.204226484835     0.764541500010     1.672081556608
    C            1.146130823762    -0.195895204786     0.675171025438
    H           -0.236488796163    -0.505308658800    -0.928588977933
    H           -0.633592615730    -1.389671472377     0.516284333151
    C            2.121807143908    -1.299173097508     0.256495388836
    H            1.499486777237     0.769111159279     0.321394419903
    H            1.120304691165    -0.133363940613     1.761875981075
    C            3.534655654618    -1.156512442463     0.833818168332
    H            2.181421980566    -1.333568965468    -0.830207828507
    H            1.716824555064    -2.259744401310     0.568602912171
    C            4.305741782446     0.065959767217     0.332313865559
    H            4.099322423571    -2.051518521678     0.584797684761
    H            3.477276981558    -1.127306980749     1.920005801774
    H            4.367816382902     0.070165643335    -0.752618326861
    H            3.839923679636     0.996008771688     0.640820358029
    H            5.319699381598     0.066748932880     0.719980026149

gradient() will perform analytic gradient computation.

*** tstart() called on cx1-1-2-2.cx1.hpc.ic.ac.uk
*** at Fri Sep  2 13:20:42 2016


         ---------------------------------------------------------
                                   SCF
            by Justin Turney, Rob Parrish, and Andy Simmonett
                              RHF Reference
                        4 Threads,   2000 MiB Core
         ---------------------------------------------------------

  ==> Geometry <==

    Molecular point group: c1
    Full point group: C1

    Geometry (in Angstrom), charge = 0, multiplicity = 1:

       Center              X                  Y                   Z               Mass       
    ------------   -----------------  -----------------  -----------------  -----------------
           H         -2.467188910123    -0.107723968646    -1.922547757878     1.007825032070
           C         -3.021336215436     0.562288681644    -1.259609354488    12.000000000000
           C         -2.730444704598     0.432270303656     0.216274106192    12.000000000000
           O         -3.865930619140     1.266558235859    -1.710596077598    15.994914619560
           C         -1.252929260672     0.668752581966     0.591712116375    12.000000000000
           H         -3.364885046985     1.157626294771     0.711056347920     1.007825032070
           H         -3.042512469786    -0.561936109155     0.535940835599     1.007825032070
           C         -0.273232854060    -0.428428400827     0.154078982143    12.000000000000
           H         -0.925883907748     1.627746108475     0.194204216528     1.007825032070
           H         -1.204226484835     0.764541500010     1.672081556608     1.007825032070
           C          1.146130823762    -0.195895204786     0.675171025438    12.000000000000
           H         -0.236488796163    -0.505308658800    -0.928588977933     1.007825032070
           H         -0.633592615730    -1.389671472377     0.516284333151     1.007825032070
           C          2.121807143908    -1.299173097508     0.256495388836    12.000000000000
           H          1.499486777237     0.769111159279     0.321394419903     1.007825032070
           H          1.120304691165    -0.133363940613     1.761875981075     1.007825032070
           C          3.534655654618    -1.156512442463     0.833818168332    12.000000000000
           H          2.181421980566    -1.333568965468    -0.830207828507     1.007825032070
           H          1.716824555064    -2.259744401310     0.568602912171     1.007825032070
           C          4.305741782446     0.065959767217     0.332313865559    12.000000000000
           H          4.099322423571    -2.051518521678     0.584797684761     1.007825032070
           H          3.477276981558    -1.127306980749     1.920005801774     1.007825032070
           H          4.367816382902     0.070165643335    -0.752618326861     1.007825032070
           H          3.839923679636     0.996008771688     0.640820358029     1.007825032070
           H          5.319699381598     0.066748932880     0.719980026149     1.007825032070

  Running in c1 symmetry.

  Rotational constants: A =      0.16058  B =      0.01436  C =      0.01415 [cm^-1]
  Rotational constants: A =   4813.96851  B =    430.41857  C =    424.28761 [MHz]
  Nuclear repulsion =  435.457793348219980

  Charge       = 0
  Multiplicity = 1
  Electrons    = 72
  Nalpha       = 36
  Nbeta        = 36

  ==> Algorithm <==

  SCF Algorithm Type is DF.
  DIIS enabled.
  MOM disabled.
  Fractional occupation disabled.
  Guess Type is READ.
  Energy threshold   = 1.00e-08
  Density threshold  = 1.00e-08
  Integral threshold = 0.00e+00

  ==> Primary Basis <==

  Basis Set: 6-31G*
    Number of shells: 86
    Number of basis function: 167
    Number of Cartesian functions: 167
    Spherical Harmonics?: false
    Max angular momentum: 2

  ==> Pre-Iterations <==

   -------------------------------------------------------
    Irrep   Nso     Nmo     Nalpha   Nbeta   Ndocc  Nsocc
   -------------------------------------------------------
     A        167     167       0       0       0       0
   -------------------------------------------------------
    Total     167     167      36      36      36       0
   -------------------------------------------------------

 OEINTS: Overlap, kinetic, potential, dipole, and quadrupole integrals
         stored in file 35.

  ==> Integral Setup <==

  ==> DFJK: Density-Fitted J/K Matrices <==

    J tasked:                  Yes
    K tasked:                  Yes
    wK tasked:                  No
    OpenMP threads:              4
    Integrals threads:           4
    Memory (MB):              1430
    Algorithm:                Core
    Integral Cache:           NONE
    Schwarz Cutoff:          1E-12
    Fitting Condition:       1E-12

   => Auxiliary Basis Set <=

  Basis Set: 
    Number of shells: 360
    Number of basis function: 1129
    Number of Cartesian functions: 1129
    Spherical Harmonics?: false
    Max angular momentum: 3

  Minimum eigenvalue in the overlap matrix is 3.0975008188E-03.
  Using Symmetric Orthogonalization.
  SCF Guess: Reading in previously saved MOs, projecting if necessary.

  Using orbitals from previous SCF, no projection.
  Recomputing DOCC and SOCC from number of alpha and beta electrons from previous calculation.
              A 
    DOCC [    36 ]

  ==> Iterations <==

                           Total Energy        Delta E     RMS |[F,P]|

   @DF-RHF iter   0:  -387.08791520329498   -3.87088e+02   1.53144e-03 
   @DF-RHF iter   1:  -387.11790505205738   -2.99898e-02   2.30132e-04 
   @DF-RHF iter   2:  -387.11930858628841   -1.40353e-03   8.38861e-05 DIIS
   @DF-RHF iter   3:  -387.11961201247050   -3.03426e-04   3.71534e-05 DIIS
   @DF-RHF iter   4:  -387.11967901308469   -6.70006e-05   2.04488e-05 DIIS
   @DF-RHF iter   5:  -387.11971755317893   -3.85401e-05   1.16419e-05 DIIS
   @DF-RHF iter   6:  -387.11972750954681   -9.95637e-06   3.00930e-06 DIIS
   @DF-RHF iter   7:  -387.11972807542725   -5.65880e-07   9.50688e-07 DIIS
   @DF-RHF iter   8:  -387.11972810992029   -3.44930e-08   3.10632e-07 DIIS
   @DF-RHF iter   9:  -387.11972811369230   -3.77202e-09   8.15986e-08 DIIS
   @DF-RHF iter  10:  -387.11972811396311   -2.70802e-10   2.80803e-08 DIIS
   @DF-RHF iter  11:  -387.11972811399346   -3.03544e-11   9.17946e-09 DIIS

  ==> Post-Iterations <==

    Orbital Energies (a.u.)
    -----------------------

    Doubly Occupied:                                                      

       1A    -20.561559     2A    -11.324833     3A    -11.236020  
       4A    -11.235121     5A    -11.228014     6A    -11.222239  
       7A    -11.220364     8A    -11.219779     9A    -11.212145  
      10A     -1.401477    11A     -1.104231    12A     -1.069432  
      13A     -1.014461    14A     -0.943908    15A     -0.877393  
      16A     -0.826795    17A     -0.784442    18A     -0.781188  
      19A     -0.676352    20A     -0.658651    21A     -0.632687  
      22A     -0.618617    23A     -0.610597    24A     -0.585294  
      25A     -0.570816    26A     -0.563410    27A     -0.539174  
      28A     -0.519197    29A     -0.512385    30A     -0.503516  
      31A     -0.485245    32A     -0.481398    33A     -0.467244  
      34A     -0.461202    35A     -0.445232    36A     -0.407082  

    Virtual:                                                              

      37A      0.157191    38A      0.223562    39A      0.241195  
      40A      0.248533    41A      0.254565    42A      0.273018  
      43A      0.284288    44A      0.292843    45A      0.301988  
      46A      0.310531    47A      0.316036    48A      0.327619  
      49A      0.331625    50A      0.345920    51A      0.347083  
      52A      0.360872    53A      0.373554    54A      0.382203  
      55A      0.398517    56A      0.423739    57A      0.428830  
      58A      0.445981    59A      0.476625    60A      0.482447  
      61A      0.517252    62A      0.691647    63A      0.700012  
      64A      0.709336    65A      0.731731    66A      0.737199  
      67A      0.748193    68A      0.771029    69A      0.788590  
      70A      0.817620    71A      0.850302    72A      0.858438  
      73A      0.896046    74A      0.900088    75A      0.934679  
      76A      0.938724    77A      0.962653    78A      0.979845  
      79A      0.998870    80A      1.015921    81A      1.041160  
      82A      1.088980    83A      1.095658    84A      1.112763  
      85A      1.116255    86A      1.127046    87A      1.128951  
      88A      1.141428    89A      1.154134    90A      1.173581  
      91A      1.177930    92A      1.186663    93A      1.191971  
      94A      1.210494    95A      1.218065    96A      1.222763  
      97A      1.237410    98A      1.244678    99A      1.247253  
     100A      1.256153   101A      1.269930   102A      1.286841  
     103A      1.322849   104A      1.367238   105A      1.369504  
     106A      1.478062   107A      1.488249   108A      1.634481  
     109A      1.651418   110A      1.714046   111A      1.724289  
     112A      1.734338   113A      1.782394   114A      1.797701  
     115A      1.837543   116A      1.856545   117A      1.884599  
     118A      1.943947   119A      1.997494   120A      2.045522  
     121A      2.075154   122A      2.113049   123A      2.124464  
     124A      2.155442   125A      2.174122   126A      2.194246  
     127A      2.224455   128A      2.243161   129A      2.268310  
     130A      2.284882   131A      2.291181   132A      2.329978  
     133A      2.347061   134A      2.373561   135A      2.386188  
     136A      2.398431   137A      2.476083   138A      2.532262  
     139A      2.568790   140A      2.606991   141A      2.644289  
     142A      2.660080   143A      2.686941   144A      2.706603  
     145A      2.736543   146A      2.755560   147A      2.795581  
     148A      2.800912   149A      2.917360   150A      2.937452  
     151A      2.955229   152A      2.970159   153A      2.994351  
     154A      3.023280   155A      3.123420   156A      3.182156  
     157A      3.265045   158A      3.370574   159A      4.294134  
     160A      4.511915   161A      4.569580   162A      4.644236  
     163A      4.729927   164A      4.814289   165A      4.867602  
     166A      4.912494   167A      5.003409  

    Final Occupation by Irrep:
              A 
    DOCC [    36 ]

  Energy converged.

  @DF-RHF Final Energy:  -387.11972811399346

   => Energetics <=

    Nuclear Repulsion Energy =            435.4577933482199796
    One-Electron Energy =               -1387.1520485500045652
    Two-Electron Energy =                 564.5745270877907842
    DFT Exchange-Correlation Energy =       0.0000000000000000
    Empirical Dispersion Energy =           0.0000000000000000
    PCM Polarization Energy =               0.0000000000000000
    EFP Energy =                            0.0000000000000000
    Total Energy =                       -387.1197281139938013

    Alert: EFP and PCM quantities not currently incorporated into SCF psivars.

Properties will be evaluated at   0.000000,   0.000000,   0.000000 Bohr
  ==> Properties <==


Properties computed using the SCF density matrix

  Nuclear Dipole Moment: (a.u.)
     X:    14.7440      Y:    -3.7608      Z:     5.3476

  Electronic Dipole Moment: (a.u.)
     X:   -13.8192      Y:     3.0969      Z:    -4.6925

  Dipole Moment: (a.u.)
     X:     0.9248      Y:    -0.6639      Z:     0.6551     Total:     1.3135

  Dipole Moment: (Debye)
     X:     2.3507      Y:    -1.6875      Z:     1.6652     Total:     3.3386


  Saving occupied orbitals to File 180.

*** tstop() called on cx1-1-2-2.cx1.hpc.ic.ac.uk at Fri Sep  2 13:20:51 2016
Module time:
	user time   =      28.85 seconds =       0.48 minutes
	system time =       0.38 seconds =       0.01 minutes
	total time  =          9 seconds =       0.15 minutes
Total time:
	user time   =     105.31 seconds =       1.76 minutes
	system time =       1.17 seconds =       0.02 minutes
	total time  =         34 seconds =       0.57 minutes

*** tstart() called on cx1-1-2-2.cx1.hpc.ic.ac.uk
*** at Fri Sep  2 13:20:51 2016


         ------------------------------------------------------------
                                   SCF GRAD                          
                          Rob Parrish, Justin Turney,                
                       Andy Simmonett, and Alex Sokolov              
         ------------------------------------------------------------

  ==> Geometry <==

    Molecular point group: c1
    Full point group: C1

    Geometry (in Angstrom), charge = 0, multiplicity = 1:

       Center              X                  Y                   Z               Mass       
    ------------   -----------------  -----------------  -----------------  -----------------
           H         -2.467188910123    -0.107723968646    -1.922547757878     1.007825032070
           C         -3.021336215436     0.562288681644    -1.259609354488    12.000000000000
           C         -2.730444704598     0.432270303656     0.216274106192    12.000000000000
           O         -3.865930619140     1.266558235859    -1.710596077598    15.994914619560
           C         -1.252929260672     0.668752581966     0.591712116375    12.000000000000
           H         -3.364885046985     1.157626294771     0.711056347920     1.007825032070
           H         -3.042512469786    -0.561936109155     0.535940835599     1.007825032070
           C         -0.273232854060    -0.428428400827     0.154078982143    12.000000000000
           H         -0.925883907748     1.627746108475     0.194204216528     1.007825032070
           H         -1.204226484835     0.764541500010     1.672081556608     1.007825032070
           C          1.146130823762    -0.195895204786     0.675171025438    12.000000000000
           H         -0.236488796163    -0.505308658800    -0.928588977933     1.007825032070
           H         -0.633592615730    -1.389671472377     0.516284333151     1.007825032070
           C          2.121807143908    -1.299173097508     0.256495388836    12.000000000000
           H          1.499486777237     0.769111159279     0.321394419903     1.007825032070
           H          1.120304691165    -0.133363940613     1.761875981075     1.007825032070
           C          3.534655654618    -1.156512442463     0.833818168332    12.000000000000
           H          2.181421980566    -1.333568965468    -0.830207828507     1.007825032070
           H          1.716824555064    -2.259744401310     0.568602912171     1.007825032070
           C          4.305741782446     0.065959767217     0.332313865559    12.000000000000
           H          4.099322423571    -2.051518521678     0.584797684761     1.007825032070
           H          3.477276981558    -1.127306980749     1.920005801774     1.007825032070
           H          4.367816382902     0.070165643335    -0.752618326861     1.007825032070
           H          3.839923679636     0.996008771688     0.640820358029     1.007825032070
           H          5.319699381598     0.066748932880     0.719980026149     1.007825032070

  Nuclear repulsion =  435.457793348219980

  ==> Basis Set <==

  Basis Set: 6-31G*
    Number of shells: 86
    Number of basis function: 167
    Number of Cartesian functions: 167
    Spherical Harmonics?: false
    Max angular momentum: 2

  ==> DFJKGrad: Density-Fitted SCF Gradients <==

    Gradient:                    1
    J tasked:                  Yes
    K tasked:                  Yes
    wK tasked:                  No
    OpenMP threads:              4
    Integrals threads:           4
    Memory (MB):              1430
    Schwarz Cutoff:          0E+00
    Fitting Condition:       1E-12

   => Auxiliary Basis Set <=

  Basis Set: 
    Number of shells: 360
    Number of basis function: 1129
    Number of Cartesian functions: 1129
    Spherical Harmonics?: false
    Max angular momentum: 3


  -Total Gradient:
     Atom            X                  Y                   Z
    ------   -----------------  -----------------  -----------------
       1       -0.003857687842    -0.002128071168     0.000956868824
       2        0.006418800700     0.011294450614    -0.001436879928
       3       -0.003442950070    -0.005864918987     0.001917502177
       4       -0.001812871987    -0.004263898239     0.000081230237
       5       -0.000198845842     0.000393933299     0.000291582438
       6       -0.000064081837     0.000679837153    -0.002021027543
       7       -0.000838202901    -0.000509294203     0.000937135375
       8        0.001835133119     0.000842436807    -0.001278012549
       9        0.001021540874     0.000237072062     0.000283900980
      10       -0.000080970185     0.000297008735    -0.000549057722
      11       -0.000080606831    -0.000489853766    -0.000861046303
      12        0.001236768918    -0.000478977782     0.001360468673
      13       -0.000020075589     0.000220512692     0.000118338134
      14        0.000167004919    -0.000074359838     0.000262258595
      15       -0.000008910718    -0.000021802068     0.000056423971
      16       -0.000271583792    -0.000035704700    -0.000088127575
      17        0.000028977396    -0.000150052915    -0.000097028566
      18       -0.000015940684     0.000060329657     0.000053039491
      19        0.000018348336    -0.000074657035     0.000001680817
      20       -0.000010011197     0.000049129796    -0.000005707129
      21        0.000016271011    -0.000034677734     0.000036484140
      22       -0.000034281893    -0.000002145564    -0.000016184946
      23        0.000006966806     0.000007387082     0.000015787538
      24        0.000014732119     0.000044625907    -0.000008148572
      25       -0.000027522814     0.000001690193    -0.000011480553


*** tstop() called on cx1-1-2-2.cx1.hpc.ic.ac.uk at Fri Sep  2 13:21:02 2016
Module time:
	user time   =      39.07 seconds =       0.65 minutes
	system time =       0.31 seconds =       0.01 minutes
	total time  =         11 seconds =       0.18 minutes
Total time:
	user time   =     144.39 seconds =       2.41 minutes
	system time =       1.49 seconds =       0.02 minutes
	total time  =         45 seconds =       0.75 minutes
CURRENT ENERGY: -387.1197281140

			-----------------------------------------
			 OPTKING 2.0: for geometry optimizations 
			  - R.A. King,  Bethel University        
			-----------------------------------------

	Previous internal coordinate definitions found.
	---Fragment 1 Geometry and Gradient---
	 H          -4.6623113582       -0.2035687987       -3.6330887398
	 C          -5.7094980025        1.0625716159       -2.3803167144
	 C          -5.1597927127        0.8168724893        0.4086988303
	 O          -7.3055501189        2.3934481971       -3.2325581106
	 C          -2.3676931665        1.2637592306        1.1181738495
	 H          -6.3587112074        2.1875966613        1.3437017626
	 H          -5.7495153238       -1.0619053505        1.0127814027
	 C          -0.5163352647       -0.8096123451        0.2911670791
	 H          -1.7496670165        3.0759943589        0.3669927831
	 H          -2.2756582583        1.4447740522        3.1597762138
	 C           2.1658733694       -0.3701882878        1.2758883309
	 H          -0.4468990582       -0.9548949777       -1.7547788583
	 H          -1.1973165235       -2.6260984975        0.9756359964
	 C           4.0096344088       -2.4550813535        0.4847060392
	 H           2.8336193489        1.4534094568        0.6073474343
	 H           2.1170690517       -0.2520213238        3.3294630843
	 C           6.6795311613       -2.1854917855        1.5756879828
	 H           4.1222901235       -2.5200801241       -1.5688654293
	 H           3.2443282273       -4.2702980488        1.0745037824
	 C           8.1366727677        0.1246458958        0.6279821961
	 H           7.7465967109       -3.8768081625        1.1051074673
	 H           6.5711011833       -2.1303014613        3.6282851389
	 H           8.2539767624        0.1325938498       -1.4222425204
	 H           7.2564041257        1.8821838044        1.2109749771
	 H          10.0527749405        0.1261372028        1.3605650706
	            -0.0038576878       -0.0021280712        0.0009568688
	             0.0064188007        0.0112944506       -0.0014368799
	            -0.0034429501       -0.0058649190        0.0019175022
	            -0.0018128720       -0.0042638982        0.0000812302
	            -0.0001988458        0.0003939333        0.0002915824
	            -0.0000640818        0.0006798372       -0.0020210275
	            -0.0008382029       -0.0005092942        0.0009371354
	             0.0018351331        0.0008424368       -0.0012780125
	             0.0010215409        0.0002370721        0.0002839010
	            -0.0000809702        0.0002970087       -0.0005490577
	            -0.0000806068       -0.0004898538       -0.0008610463
	             0.0012367689       -0.0004789778        0.0013604687
	            -0.0000200756        0.0002205127        0.0001183381
	             0.0001670049       -0.0000743598        0.0002622586
	            -0.0000089107       -0.0000218021        0.0000564240
	            -0.0002715838       -0.0000357047       -0.0000881276
	             0.0000289774       -0.0001500529       -0.0000970286
	            -0.0000159407        0.0000603297        0.0000530395
	             0.0000183483       -0.0000746570        0.0000016808
	            -0.0000100112        0.0000491298       -0.0000057071
	             0.0000162710       -0.0000346777        0.0000364841
	            -0.0000342819       -0.0000021456       -0.0000161849
	             0.0000069668        0.0000073871        0.0000157875
	             0.0000147321        0.0000446259       -0.0000081486
	            -0.0000275228        0.0000016902       -0.0000114806

	---Fragment 1 Intrafragment Coordinates---
	 - Coordinate -           - BOHR/RAD -       - ANG/DEG -
	 R(1,2)           =         2.066192	       1.093382
	 R(2,3)           =         2.853270	       1.509886
	 R(2,4)           =         2.246092	       1.188581
	 R(3,5)           =         2.915284	       1.542702
	 R(3,6)           =         2.047076	       1.083266
	 R(3,7)           =         2.059732	       1.089963
	 R(5,8)           =         2.900058	       1.534645
	 R(5,9)           =         2.056800	       1.088412
	 R(5,10)          =         2.051677	       1.085701
	 R(8,11)          =         2.890850	       1.529772
	 R(8,12)          =         2.052273	       1.086016
	 R(8,13)          =         2.057147	       1.088596
	 R(11,14)         =         2.893476	       1.531162
	 R(11,15)         =         2.053860	       1.086856
	 R(11,16)         =         2.057551	       1.088809
	 R(14,17)         =         2.896769	       1.532904
	 R(14,18)         =         2.057686	       1.088881
	 R(14,19)         =         2.056348	       1.088173
	 R(17,20)         =         2.891045	       1.529875
	 R(17,21)         =         2.054416	       1.087150
	 R(17,22)         =         2.056200	       1.088094
	 R(20,23)         =         2.053593	       1.086715
	 R(20,24)         =         2.050291	       1.084967
	 R(20,25)         =         2.051372	       1.085539
	 B(1,2,3)         =         2.028907	     116.247794
	 B(1,2,4)         =         2.086537	     119.549791
	 B(2,3,5)         =         1.992374	     114.154627
	 B(2,3,6)         =         1.850395	     106.019803
	 B(2,3,7)         =         1.886056	     108.063076
	 B(3,2,4)         =         2.163750	     123.973732
	 B(3,5,8)         =         2.017969	     115.621092
	 B(3,5,9)         =         1.911304	     109.509652
	 B(3,5,10)        =         1.874081	     107.376919
	 B(5,3,6)         =         1.925301	     110.311613
	 B(5,3,7)         =         1.920545	     110.039140
	 B(5,8,11)        =         1.967629	     112.736849
	 B(5,8,12)        =         1.935316	     110.885433
	 B(5,8,13)        =         1.901906	     108.971163
	 B(6,3,7)         =         1.885078	     108.007002
	 B(8,5,9)         =         1.911298	     109.509307
	 B(8,5,10)        =         1.894637	     108.554677
	 B(8,11,14)       =         1.969859	     112.864593
	 B(8,11,15)       =         1.902589	     109.010327
	 B(8,11,16)       =         1.903604	     109.068462
	 B(9,5,10)        =         1.846484	     105.795759
	 B(11,8,12)       =         1.895420	     108.599583
	 B(11,8,13)       =         1.905008	     109.148917
	 B(11,14,17)      =         2.001232	     114.662169
	 B(11,14,18)      =         1.907669	     109.301396
	 B(11,14,19)      =         1.897032	     108.691952
	 B(12,8,13)       =         1.854999	     106.283611
	 B(14,11,15)      =         1.921537	     110.095952
	 B(14,11,16)      =         1.906469	     109.232636
	 B(14,17,20)      =         1.999235	     114.547747
	 B(14,17,21)      =         1.892135	     108.411345
	 B(14,17,22)      =         1.906947	     109.259988
	 B(15,11,16)      =         1.856252	     106.355429
	 B(17,14,18)      =         1.905348	     109.168423
	 B(17,14,19)      =         1.893520	     108.490712
	 B(17,20,23)      =         1.938156	     111.048153
	 B(17,20,24)      =         1.955587	     112.046902
	 B(17,20,25)      =         1.932960	     110.750437
	 B(18,14,19)      =         1.853274	     106.184784
	 B(20,17,21)      =         1.897543	     108.721225
	 B(20,17,22)      =         1.909605	     109.412309
	 B(21,17,22)      =         1.852657	     106.149427
	 B(23,20,24)      =         1.880826	     107.763380
	 B(23,20,25)      =         1.878819	     107.648413
	 B(24,20,25)      =         1.874293	     107.389073
	 D(1,2,3,5)       =         1.024896	      58.722229
	 D(1,2,3,6)       =        -3.135284	    -179.638545
	 D(1,2,3,7)       =        -1.117849	     -64.048057
	 D(2,3,5,8)       =        -1.234959	     -70.757931
	 D(2,3,5,9)       =         0.933673	      53.495532
	 D(2,3,5,10)      =         2.930739	     167.918975
	 D(3,5,8,11)      =        -3.044554	    -174.440097
	 D(3,5,8,12)      =         1.109175	      63.551040
	 D(3,5,8,13)      =        -0.926730	     -53.097689
	 D(4,2,3,5)       =        -2.213304	    -126.812973
	 D(4,2,3,6)       =        -0.090299	      -5.173747
	 D(4,2,3,7)       =         1.927136	     110.416740
	 D(5,8,11,14)     =         3.127637	     179.200402
	 D(5,8,11,15)     =        -1.014685	     -58.137194
	 D(5,8,11,16)     =         1.005286	      57.598636
	*D(6,3,5,8)       =         2.967059	     169.999986
	 D(6,3,5,9)       =        -1.147494	     -65.746551
	 D(6,3,5,10)      =         0.849572	      48.676892
	 D(7,3,5,8)       =         0.888894	      50.929888
	 D(7,3,5,9)       =         3.057526	     175.183351
	 D(7,3,5,10)      =        -1.228593	     -70.393206
	 D(8,11,14,17)    =        -3.074017	    -176.128178
	 D(8,11,14,18)    =         1.063623	      60.941127
	 D(8,11,14,19)    =        -0.951965	     -54.543554
	 D(9,5,8,11)      =         1.069996	      61.306261
	 D(9,5,8,12)      =        -1.059460	     -60.702602
	 D(9,5,8,13)      =        -3.095365	    -177.351331
	 D(10,5,8,11)     =        -0.938158	     -53.752472
	 D(10,5,8,12)     =        -3.067614	    -175.761334
	 D(10,5,8,13)     =         1.179667	      67.589936
	 D(11,14,17,20)   =        -1.149144	     -65.841106
	 D(11,14,17,21)   =         3.011789	     172.562797
	 D(11,14,17,22)   =         0.999998	      57.295680
	 D(12,8,11,14)    =        -1.003743	     -57.510265
	 D(12,8,11,15)    =         1.137119	      65.152138
	 D(12,8,11,16)    =        -3.126095	    -179.112032
	 D(13,8,11,14)    =         1.011576	      57.959035
	 D(13,8,11,15)    =        -3.130747	    -179.378561
	 D(13,8,11,16)    =        -1.110775	     -63.642732
	 D(14,17,20,23)   =        -0.980943	     -56.203904
	 D(14,17,20,24)   =         1.123335	      64.362371
	 D(14,17,20,25)   =        -3.067487	    -175.754061
	 D(15,11,14,17)   =         1.078927	      61.817981
	 D(15,11,14,18)   =        -1.066618	     -61.112715
	 D(15,11,14,19)   =        -3.082206	    -176.597396
	 D(16,11,14,17)   =        -0.953286	     -54.619246
	 D(16,11,14,18)   =        -3.098831	    -177.549941
	 D(16,11,14,19)   =         1.168766	      66.965378
	 D(18,14,17,20)   =         0.997650	      57.161126
	 D(18,14,17,21)   =        -1.124602	     -64.434971
	 D(18,14,17,22)   =        -3.136393	    -179.702088
	 D(19,14,17,20)   =         3.010072	     172.464410
	 D(19,14,17,21)   =         0.887820	      50.868313
	 D(19,14,17,22)   =        -1.123971	     -64.398804
	 D(21,17,20,23)   =         1.138346	      65.222419
	 D(21,17,20,24)   =        -3.040561	    -174.211307
	 D(21,17,20,25)   =        -0.948198	     -54.327738
	 D(22,17,20,23)   =        -3.128654	    -179.258685
	 D(22,17,20,24)   =        -1.024376	     -58.692410
	 D(22,17,20,25)   =         1.067987	      61.191158

	Current energy   :      -387.1197281140

	Energy change for the previous step:
		Projected    :         0.0018220216
		Actual       :        -0.0002023491

	Performing BFGS update.
	Previous computed or guess Hessian on step 1.
	Steps to be used in Hessian update: 1
	Taking RFO optimization step.
	Going to follow RFO solution 1.
	Using RFO vector 1.

	Determining step-restricting scale parameter for RS-RFO.
	Maximum step size allowed    0.50000

	 Iter      |step|        alpha        rfo_root  
	------------------------------------------------
	    0     0.51901       1.00000           1
	    1     0.50111       1.13554           1
	    2     0.50000       1.14447           1
	------------------------------------------------
	Norm of target step-size    0.50000
	Projected energy change by RFO approximation:        -0.0073521491

	Back-transformation to cartesian coordinates...
	Successfully converged to displaced geometry.

	Back-transformation to cartesian coordinates to adjust frozen coordinates...
	Successfully converged to displaced geometry.

	--- Internal Coordinate Step in ANG or DEG, aJ/ANG or AJ/DEG ---
	 ---------------------------------------------------------------------------
	   Coordinate                Previous        Force       Change         New 
	   ----------                --------       ------       ------       ------
	    1 R(1,2)          =      1.093382     0.010144    -0.002565     1.090817
	    2 R(2,3)          =      1.509886    -0.005502     0.001693     1.511579
	    3 R(2,4)          =      1.188581     0.010456     0.000770     1.189351
	    4 R(3,5)          =      1.542702    -0.028511     0.003914     1.546616
	    5 R(3,6)          =      1.083266     0.003546    -0.000192     1.083074
	    6 R(3,7)          =      1.089963    -0.008069    -0.000256     1.089707
	    7 R(5,8)          =      1.534645    -0.016903     0.001654     1.536299
	    8 R(5,9)          =      1.088412    -0.003396     0.002086     1.090498
	    9 R(5,10)         =      1.085701     0.004315    -0.002740     1.082960
	   10 R(8,11)         =      1.529772     0.004262     0.000350     1.530122
	   11 R(8,12)         =      1.086016     0.010550    -0.000878     1.085138
	   12 R(8,13)         =      1.088596     0.001225     0.000362     1.088958
	   13 R(11,14)        =      1.531162    -0.001369    -0.000013     1.531149
	   14 R(11,15)        =      1.086856     0.000335    -0.000182     1.086674
	   15 R(11,16)        =      1.088809     0.000688    -0.000327     1.088482
	   16 R(14,17)        =      1.532904     0.000369    -0.000042     1.532862
	   17 R(14,18)        =      1.088881     0.000459     0.000035     1.088916
	   18 R(14,19)        =      1.088173    -0.000491     0.000133     1.088305
	   19 R(17,20)        =      1.529875    -0.000637     0.000210     1.530086
	   20 R(17,21)        =      1.087150    -0.000236    -0.000050     1.087101
[...]

	Performing BFGS update.
	Previous computed or guess Hessian on step 1.
	Steps to be used in Hessian update: 13 12
	Taking RFO optimization step.
	Going to follow RFO solution 1.
	Using RFO vector 1.
	Norm of target step-size    0.00387
	Projected energy change by RFO approximation:         0.0000001311

	Back-transformation to cartesian coordinates...
	Successfully converged to displaced geometry.

	Back-transformation to cartesian coordinates to adjust frozen coordinates...
	Successfully converged to displaced geometry.

	--- Internal Coordinate Step in ANG or DEG, aJ/ANG or AJ/DEG ---
	 ---------------------------------------------------------------------------
	   Coordinate                Previous        Force       Change         New 
	   ----------                --------       ------       ------       ------
	    1 R(1,2)          =      1.094708    -0.000033    -0.000007     1.094701
	    2 R(2,3)          =      1.507947     0.000014    -0.000001     1.507946
	    3 R(2,4)          =      1.189219     0.000064     0.000004     1.189223
	    4 R(3,5)          =      1.540006     0.000046     0.000004     1.540010
	    5 R(3,6)          =      1.083430    -0.000021    -0.000005     1.083425
	    6 R(3,7)          =      1.088688     0.000033     0.000011     1.088700
	    7 R(5,8)          =      1.531847     0.000015     0.000002     1.531850
	    8 R(5,9)          =      1.087356    -0.000010    -0.000000     1.087356
	    9 R(5,10)         =      1.086356    -0.000002     0.000001     1.086356
	   10 R(8,11)         =      1.530415    -0.000002     0.000001     1.530416
	   11 R(8,12)         =      1.087792     0.000009     0.000001     1.087792
	   12 R(8,13)         =      1.088587    -0.000018    -0.000004     1.088582
	   13 R(11,14)        =      1.531008    -0.000021    -0.000004     1.531004
	   14 R(11,15)        =      1.086817    -0.000014    -0.000003     1.086814
	   15 R(11,16)        =      1.088892     0.000012     0.000003     1.088895
	   16 R(14,17)        =      1.532995     0.000002    -0.000001     1.532995
	   17 R(14,18)        =      1.088905     0.000004     0.000001     1.088906
	   18 R(14,19)        =      1.088142    -0.000003    -0.000001     1.088141
	   19 R(17,20)        =      1.529768     0.000011     0.000002     1.529769
	   20 R(17,21)        =      1.087139    -0.000004    -0.000001     1.087138
	   21 R(17,22)        =      1.088113     0.000003     0.000000     1.088114
	   22 R(20,23)        =      1.086724     0.000000     0.000000     1.086724
	   23 R(20,24)        =      1.084931    -0.000002    -0.000000     1.084931
	   24 R(20,25)        =      1.085580    -0.000001    -0.000000     1.085580
	   25 B(1,2,3)        =    116.174951    -0.000000    -0.001363   116.173588
	   26 B(1,2,4)        =    119.851853    -0.000001    -0.002502   119.849351
	   27 B(2,3,5)        =    113.093920     0.000000     0.005212   113.099132
	   28 B(2,3,6)        =    107.475867    -0.000000    -0.005522   107.470345
	   29 B(2,3,7)        =    108.404525     0.000000    -0.002525   108.402001
	   30 B(3,2,4)        =    123.972676     0.000001     0.003895   123.976571
	   31 B(3,5,8)        =    114.797125     0.000000     0.001975   114.799099
	   32 B(3,5,9)        =    109.128922     0.000000     0.001376   109.130298
	   33 B(3,5,10)       =    107.641333    -0.000000     0.000212   107.641545
	   34 B(5,3,6)        =    110.269126     0.000000     0.003167   110.272293
	   35 B(5,3,7)        =    109.360064    -0.000000    -0.001021   109.359042
	   36 B(5,8,11)       =    112.647031     0.000000     0.000097   112.647128
	   37 B(5,8,12)       =    110.291117     0.000000     0.002587   110.293705
	   38 B(5,8,13)       =    109.190334    -0.000000    -0.002833   109.187501
	   39 B(6,3,7)        =    108.094155     0.000000     0.000394   108.094549
	   40 B(8,5,9)        =    109.879309    -0.000000    -0.003358   109.875951
	   41 B(8,5,10)       =    108.817210    -0.000000     0.001057   108.818267
	   42 B(8,11,14)      =    112.831753     0.000000     0.000078   112.831832
	   43 B(8,11,15)      =    108.925052    -0.000000    -0.001691   108.923361
	   44 B(8,11,16)      =    109.190968     0.000000     0.002350   109.193318
	   45 B(9,5,10)       =    106.207883    -0.000000    -0.001449   106.206433
	   46 B(11,8,12)      =    108.855230    -0.000000     0.001903   108.857133
	   47 B(11,8,13)      =    109.347685    -0.000000    -0.001957   109.345728
	   48 B(11,14,17)     =    114.649692    -0.000000    -0.000218   114.649474
	   49 B(11,14,18)     =    109.318844     0.000000     0.000513   109.319357
	   50 B(11,14,19)     =    108.680261    -0.000000    -0.000781   108.679480
	   51 B(12,8,13)      =    106.307739     0.000000     0.000182   106.307921
	   52 B(14,11,15)     =    110.060642     0.000000    -0.000433   110.060209
	   53 B(14,11,16)     =    109.254837    -0.000000    -0.000197   109.254640
	   54 B(14,17,20)     =    114.551119     0.000000     0.000144   114.551264
	   55 B(14,17,21)     =    108.398662    -0.000000    -0.000447   108.398215
	   56 B(14,17,22)     =    109.280695     0.000000     0.000143   109.280838
	   57 B(15,11,16)     =    106.368295     0.000000    -0.000092   106.368203
	   58 B(17,14,18)     =    109.180556    -0.000000     0.000091   109.180647
	   59 B(17,14,19)     =    108.487219     0.000000     0.000264   108.487484
	   60 B(17,20,23)     =    111.046205     0.000000     0.000110   111.046314
	   61 B(17,20,24)     =    112.032482     0.000000     0.000097   112.032579
	   62 B(17,20,25)     =    110.753575     0.000000     0.000046   110.753621
	   63 B(18,14,19)     =    106.183259     0.000000     0.000151   106.183411
	   64 B(20,17,21)     =    108.701867     0.000000    -0.000130   108.701737
	   65 B(20,17,22)     =    109.416079     0.000000     0.000299   109.416378
	   66 B(21,17,22)     =    106.153255    -0.000000    -0.000032   106.153223
	   67 B(23,20,24)     =    107.764590    -0.000000    -0.000001   107.764589
	   68 B(23,20,25)     =    107.655131    -0.000000    -0.000089   107.655042
	   69 B(24,20,25)     =    107.395367    -0.000000    -0.000181   107.395186
	   70 D(1,2,3,5)      =     66.681759     0.000000    -0.068793    66.612966
	   71 D(1,2,3,6)      =   -171.374645     0.000000    -0.065342  -171.439987
	   72 D(1,2,3,7)      =    -54.764318     0.000000    -0.069115   -54.833433
	   73 D(2,3,5,8)      =    -69.636152    -0.000000    -0.001291   -69.637442
	   74 D(2,3,5,9)      =     54.192593    -0.000000    -0.003202    54.189391
	   75 D(2,3,5,10)     =    169.047201    -0.000000    -0.004090   169.043111
	   76 D(3,5,8,11)     =   -176.528984     0.000000     0.008131  -176.520853
	   77 D(3,5,8,12)     =     61.626917     0.000000     0.003750    61.630667
	   78 D(3,5,8,13)     =    -54.839594     0.000000     0.003708   -54.835886
	   79 D(4,2,3,5)      =   -113.054621    -0.000000    -0.076568  -113.131189
	   80 D(4,2,3,6)      =      8.888974    -0.000000    -0.073117     8.815857
	   81 D(4,2,3,7)      =    125.499301    -0.000000    -0.076889   125.422412
	   82 D(5,8,11,14)    =   -179.943099    -0.000000     0.019744  -179.923355
	   83 D(5,8,11,15)    =    -57.409502    -0.000000     0.018029   -57.391473
	   84 D(5,8,11,16)    =     58.361936    -0.000000     0.018275    58.380211
	   85 *D(6,3,5,8)     =    169.999986    -0.000000    -0.000000   169.999986
	   86 D(6,3,5,9)      =    -66.171270    -0.000000    -0.001912   -66.173181
	   87 D(6,3,5,10)     =     48.683338    -0.000000    -0.002799    48.680539
	   88 D(7,3,5,8)      =     51.269756     0.000000    -0.001766    51.267990
	   89 D(7,3,5,9)      =    175.098501     0.000000    -0.003677   175.094824
	   90 D(7,3,5,10)     =    -70.046891     0.000000    -0.004565   -70.051456
	   91 D(8,11,14,17)   =   -176.164934    -0.000000     0.032454  -176.132480
	   92 D(8,11,14,18)   =     60.883866    -0.000000     0.032094    60.915960
	   93 D(8,11,14,19)   =    -54.602028    -0.000000     0.032065   -54.569963
	   94 D(9,5,8,11)     =     60.041878    -0.000000     0.007509    60.049387
	   95 D(9,5,8,12)     =    -61.802221    -0.000000     0.003128   -61.799092
	   96 D(9,5,8,13)     =   -178.268731    -0.000000     0.003086  -178.265645
	   97 D(10,5,8,11)    =    -55.857031     0.000000     0.010509   -55.846522
	   98 D(10,5,8,12)    =   -177.701129    -0.000000     0.006128  -177.695002
	   99 D(10,5,8,13)    =     65.832360     0.000000     0.006086    65.838446
	  100 D(11,14,17,20)  =    -65.860413    -0.000000     0.009279   -65.851135
	  101 D(11,14,17,21)  =    172.575557    -0.000000     0.009680   172.585237
	  102 D(11,14,17,22)  =     57.299758    -0.000000     0.009885    57.309643
	  103 D(12,8,11,14)   =    -57.289777     0.000000     0.024469   -57.265307
	  104 D(12,8,11,15)   =     65.243821     0.000000     0.022754    65.266574
	  105 D(12,8,11,16)   =   -178.984741     0.000000     0.023000  -178.961741
	  106 D(13,8,11,14)   =     58.456768     0.000000     0.024668    58.481436
	  107 D(13,8,11,15)   =   -179.009635     0.000000     0.022953  -178.986682
	  108 D(13,8,11,16)   =    -63.238197     0.000000     0.023199   -63.214998
	  109 D(14,17,20,23)  =    -56.176883    -0.000000    -0.014124   -56.191008
	  110 D(14,17,20,24)  =     64.379688    -0.000000    -0.013982    64.365706
	  111 D(14,17,20,25)  =   -175.736260    -0.000000    -0.014115  -175.750375
	  112 D(15,11,14,17)  =     61.939446     0.000000     0.034890    61.974336
	  113 D(15,11,14,18)  =    -61.011754     0.000000     0.034529   -60.977224
	  114 D(15,11,14,19)  =   -176.497648     0.000000     0.034501  -176.463147
	  115 D(16,11,14,17)  =    -54.506060     0.000000     0.035363   -54.470697
	  116 D(16,11,14,18)  =   -177.457260     0.000000     0.035003  -177.422257
	  117 D(16,11,14,19)  =     67.056846     0.000000     0.034974    67.091820
	  118 D(18,14,17,20)  =     57.165182     0.000000     0.009866    57.175048
	  119 D(18,14,17,21)  =    -64.398848     0.000000     0.010267   -64.388581
	  120 D(18,14,17,22)  =   -179.674646     0.000000     0.010472  -179.664174
	  121 D(19,14,17,20)  =    172.471244     0.000000     0.010237   172.481481
	  122 D(19,14,17,21)  =     50.907214     0.000000     0.010639    50.917853
	  123 D(19,14,17,22)  =    -64.368584     0.000000     0.010844   -64.357741
	  124 D(21,17,20,23)  =     65.220987    -0.000000    -0.014700    65.206286
	  125 D(21,17,20,24)  =   -174.222442    -0.000000    -0.014558  -174.237000
	  126 D(21,17,20,25)  =    -54.338390    -0.000000    -0.014691   -54.353081
	  127 D(22,17,20,23)  =   -179.264196    -0.000000    -0.014647  -179.278844
	  128 D(22,17,20,24)  =    -58.707625    -0.000000    -0.014505   -58.722130
	  129 D(22,17,20,25)  =     61.176427    -0.000000    -0.014638    61.161789
	 ---------------------------------------------------------------------------

  ==> Convergence Check <==

  Measures of convergence in internal coordinates in au.
  Criteria marked as inactive (o), active & met (*), and active & unmet ( ).
  ---------------------------------------------------------------------------------------------
   Step     Total Energy     Delta E     MAX Force     RMS Force      MAX Disp      RMS Disp   
  ---------------------------------------------------------------------------------------------
    Convergence Criteria    1.00e-06 *    3.00e-04 *             o    1.20e-03 *             o
  ---------------------------------------------------------------------------------------------
     14    -387.12032125   -2.21e-07 *    1.13e-05 *    2.10e-06 o    1.34e-03      3.40e-04 o  ~
  ---------------------------------------------------------------------------------------------


  **** Optimization is complete! (in 14 steps) ****

  ==> Optimization Summary <==

  Measures of convergence in internal coordinates in au.
  --------------------------------------------------------------------------------------------------------------- ~
   Step         Total Energy             Delta E       MAX Force       RMS Force        MAX Disp        RMS Disp  ~
  --------------------------------------------------------------------------------------------------------------- ~
      1    -387.119525764899   -387.119525764899      0.00756898      0.00144090      0.11317104      0.02712171  ~
      2    -387.119728113993     -0.000202349095      0.00346058      0.00087994      0.23777794      0.04365213  ~
      3    -387.115226696708      0.004501417285      0.01189763      0.00273516      0.15165025      0.03012154  ~
      4    -387.120135055173     -0.004908358465      0.00171655      0.00043982      0.08375724      0.02039541  ~
      5    -387.120262209349     -0.000127154176      0.00071176      0.00012604      0.03602146      0.01100613  ~
      6    -387.120287264676     -0.000025055327      0.00021743      0.00005818      0.01285096      0.00275147  ~
      7    -387.120293856350     -0.000006591674      0.00013354      0.00003137      0.01367477      0.00275164  ~
      8    -387.120298883255     -0.000005026905      0.00011351      0.00002293      0.04076120      0.00825433  ~
      9    -387.120310467173     -0.000011583918      0.00012076      0.00002327      0.04052612      0.00825430  ~
     10    -387.120317933193     -0.000007466020      0.00008234      0.00001548      0.03994536      0.00825449  ~
     11    -387.120320951950     -0.000003018757      0.00004997      0.00001115      0.01254480      0.00418520  ~
     12    -387.120319664510      0.000001287440      0.00014008      0.00002656      0.00979739      0.00276959  ~
     13    -387.120321024802     -0.000001360291      0.00002600      0.00000800      0.00362833      0.00113874  ~
     14    -387.120321246081     -0.000000221280      0.00001125      0.00000210      0.00134197      0.00034039  ~
  --------------------------------------------------------------------------------------------------------------- ~

	Writing optimization data to binary file.
	Final energy is   -387.1203212460812
	Final (previous) structure:
	Cartesian Geometry (in Angstrom)
	    H    -2.5129021344  -0.2325130969  -1.8916449281
	    C    -2.9869047745   0.5310072633  -1.2665490752
	    C    -2.7604072128   0.4088739754   0.2192798951
	    O    -3.6316401375   1.3931289991  -1.7718264566
	    C    -1.2945282011   0.6445987415   0.6282429796
	    H    -3.4065956018   1.1287587713   0.7071592231
	    H    -3.0668213073  -0.5876106028   0.5329211629
	    C    -0.3213518587  -0.4556039983   0.1934578243
	    H    -0.9656303248   1.6046452349   0.2377559218
	    H    -1.2645763898   0.7311877931   1.7107282437
	    C     1.1036104192  -0.2146630962   0.6970446912
	    H    -0.3021249246  -0.5351724661  -0.8912495262
	    H    -0.6774097336  -1.4152303562   0.5640800363
	    C     2.0802108685  -1.3112169807   0.2636774523
	    H     1.4456141141   0.7523830961   0.3378422025
	    H     1.0932943651  -0.1521064161   1.7840892155
	    C     3.4998140864  -1.1603535635   0.8222844578
	    H     2.1253030166  -1.3442429346  -0.8237923801
	    H     1.6854154972  -2.2745327909   0.5802394754
	    C     4.2565617231   0.0672799471   0.3119532037
	    H     4.0666117049  -2.0514154596   0.5641747875
	    H     3.4571915000  -1.1329774817   1.9092180179
	    H     4.3037254760   0.0731981451  -0.7737307823
	    H     3.7891714587   0.9939476949   0.6280375066
	    H     5.2757113510   0.0738127201   0.6858199888
	Saving final (previous) structure.
			--------------------------
			 OPTKING Finished Execution 
			--------------------------

    Final optimized geometry and variables:
    Molecular point group: c1
    Full point group: C1

    Geometry (in Angstrom), charge = 0, multiplicity = 1:

    H           -2.512901942495    -0.232513079176    -1.891644783666
    C           -2.986904546410     0.531007222773    -1.266548978446
    C           -2.760407002034     0.408873944133     0.219279878341
    O           -3.631639860151     1.393128892699    -1.771826321344
    C           -1.294528102253     0.644598692265     0.628242931578
    H           -3.406595341673     1.128758685135     0.707159169051
    H           -3.066821073083    -0.587610557949     0.532921122164
    C           -0.321351834172    -0.455603963460     0.193457809492
    H           -0.965630251051     1.604645112401     0.237755903631
    H           -1.264576293188     0.731187737247     1.710728113026
    C            1.103610334899    -0.214663079855     0.697044637963
    H           -0.302124901486    -0.535172425214    -0.891249458143
    H           -0.677409681886    -1.415230248079     0.564079993247
    C            2.080210709667    -1.311216880559     0.263677432193
    H            1.445614003756     0.752383038695     0.337842176678
    H            1.093294281614    -0.152106404518     1.784089079240
    C            3.499813819096    -1.160353474864     0.822284394981
    H            2.125302854295    -1.344242831961    -0.823792317212
    H            1.685415368449    -2.274532617197     0.580239431140
    C            4.256561398022     0.067279941958     0.311953179872
    H            4.066611394397    -2.051415302932     0.564174744451
    H            3.457191235973    -1.132977395158     1.909217872059
    H            4.303725147319     0.073198139512    -0.773730723259
    H            3.789171169358     0.993947619024     0.628037458650
    H            5.275710948104     0.073812714456     0.685819936459

	Cleaning optimization helper files.


Properties will be evaluated at   0.000000,   0.000000,   0.000000 Bohr

Properties computed using the  density matrix

  Nuclear Dipole Moment: (a.u.)
     X:    14.0877      Y:    -4.0880      Z:     5.4866

  Electronic Dipole Moment: (a.u.)
     X:   -13.3266      Y:     3.3059      Z:    -4.7839

  Dipole Moment: (a.u.)
     X:     0.7611      Y:    -0.7821      Z:     0.7027     Total:     1.2980

  Dipole Moment: (Debye)
     X:     1.9345      Y:    -1.9879      Z:     1.7860     Total:     3.2991

  Quadrupole Moment: (Debye Ang)
    XX:   -69.2697     YY:   -61.9641     ZZ:   -61.9008
    XY:     7.8281     XZ:    -7.7984     YZ:     4.3556

  Traceless Quadrupole Moment: (Debye Ang)
    XX:    -4.8915     YY:     2.4141     ZZ:     2.4774
    XY:     7.8281     XZ:    -7.7984     YZ:     4.3556

  Mulliken Charges: (a.u.)
   Center  Symbol    Alpha    Beta     Spin     Total
       1     H     0.42997  0.42997  0.00000  0.14006
       2     C     2.83257  2.83257  0.00000  0.33487
       3     C     3.20804  3.20804  0.00000 -0.41608
       4     O     4.23771  4.23771  0.00000 -0.47543
       5     C     3.16475  3.16475  0.00000 -0.32950
       6     H     0.39823  0.39823  0.00000  0.20354
       7     H     0.41200  0.41200  0.00000  0.17600
       8     C     3.15671  3.15671  0.00000 -0.31343
       9     H     0.41212  0.41212  0.00000  0.17576
      10     H     0.41288  0.41288  0.00000  0.17423
      11     C     3.15416  3.15416  0.00000 -0.30832
      12     H     0.42151  0.42151  0.00000  0.15699
      13     H     0.42161  0.42161  0.00000  0.15679
      14     C     3.15308  3.15308  0.00000 -0.30615
      15     H     0.41917  0.41917  0.00000  0.16167
      16     H     0.42267  0.42267  0.00000  0.15465
      17     C     3.15274  3.15274  0.00000 -0.30549
      18     H     0.42344  0.42344  0.00000  0.15312
      19     H     0.42205  0.42205  0.00000  0.15590
      20     C     3.24159  3.24159  0.00000 -0.48317
      21     H     0.42008  0.42008  0.00000  0.15984
      22     H     0.42293  0.42293  0.00000  0.15413
      23     H     0.42171  0.42171  0.00000  0.15658
      24     H     0.41996  0.41996  0.00000  0.16009
      25     H     0.41833  0.41833  0.00000  0.16335

   Total alpha = 36.00000, Total beta = 36.00000, Total charge = -0.00000


*** PSI4 exiting successfully. Buy a developer a beer!
