    -----------------------------------------------------------------------
          Psi4: An Open-Source Ab Initio Electronic Structure Package
                              Psi4 (no tag) Driver

                          Git: Rev {detached?}  

    J. M. Turney, A. C. Simmonett, R. M. Parrish, E. G. Hohenstein,
    F. A. Evangelista, J. T. Fermann, B. J. Mintz, L. A. Burns, J. J. Wilke,
    M. L. Abrams, N. J. Russ, M. L. Leininger, C. L. Janssen, E. T. Seidl,
    W. D. Allen, H. F. Schaefer, R. A. King, E. F. Valeev, C. D. Sherrill,
    and T. D. Crawford, WIREs Comput. Mol. Sci. 2, 556-565 (2012)
    (doi: 10.1002/wcms.93)

                         Additional Contributions by
    A. E. DePrince, M. Saitow, U. Bozkaya, A. Yu. Sokolov
    -----------------------------------------------------------------------


    Psi4 started on: Thu Sep  1 23:42:36 2016

    Process ID:  23696
    PSI4DATADIR: /export131/home/mjharvey/miniconda3/share
    Memory level set to 256.000 MB

  ==> Input File <==

--------------------------------------------------------------------------
set {
	reference rhf
	basis 6-31G*
}


set_num_threads( 1 )
memory 2 gb

molecule MOL {
0 1

H	 2.803428	 0.819406	 1.101388
O	 3.517057	 0.607535	 0.517508
C	 3.528310	 -0.774642	 0.265487
C	 2.396637	 -1.227938	 -0.650245
H	 4.482210	 -0.980652	 -0.202818
H	 3.500229	 -1.332737	 1.200645
C	 0.999068	 -1.024226	 -0.060186
H	 2.477635	 -0.689591	 -1.590984
H	 2.544137	 -2.283023	 -0.874757
C	 -0.111885	 -1.538514	 -0.980029
H	 0.845735	 0.032940	 0.137939
H	 0.933290	 -1.536125	 0.900009
C	 -1.527195	 -1.436481	 -0.399662
H	 -0.071139	 -1.001022	 -1.925698
H	 0.089111	 -2.581452	 -1.215786
C	 -2.037799	 -0.007733	 -0.193645
H	 -2.209549	 -1.955177	 -1.069858
H	 -1.567198	 -1.973840	 0.546637
C	 -3.489788	 0.042957	 0.286558
H	 -1.950391	 0.543125	 -1.129073
H	 -1.411525	 0.513360	 0.526456
C	 -4.216917	 1.317354	 -0.141063
H	 -4.025645	 -0.823308	 -0.095450
H	 -3.513059	 -0.038752	 1.371301
H	 -4.239342	 1.411634	 -1.223113
H	 -5.243387	 1.322503	 0.212445
H	 -3.726170	 2.201406	 0.256408

	symmetry c1
}
set optking {
	frozen_dihedral = ("
		14 10 7 4,
		14 10 13 16,
		10 7 4 8,
		8 4 3 2,
		10 13 16 20,
		4 3 2 1
	")
}

ee = energy('scf')
oeprop('DIPOLE', 'QUADRUPOLE', 'MULLIKEN_CHARGES')
f=open( 'psi4out.xyz', 'w' )
f.write( "27  " )
f.write( str(ee) + "\n" )
f.write( MOL.save_string_xyz() )
f.close()
--------------------------------------------------------------------------

  Memory set to   2.000 GiB by Python script.

*** tstart() called on cx1-3-15-4.cx1.hpc.ic.ac.uk
*** at Thu Sep  1 23:42:37 2016


         ---------------------------------------------------------
                                   SCF
            by Justin Turney, Rob Parrish, and Andy Simmonett
                              RHF Reference
                        1 Threads,   2000 MiB Core
         ---------------------------------------------------------

  ==> Geometry <==

    Molecular point group: c1
    Full point group: C1

    Geometry (in Angstrom), charge = 0, multiplicity = 1:

       Center              X                  Y                   Z               Mass       
    ------------   -----------------  -----------------  -----------------  -----------------
           H          2.861996723562     1.238121482970     1.234282206796     1.007825032070
           O          3.575625723562     1.026250482970     0.650402206796    15.994914619560
           C          3.586878723562    -0.355926517030     0.398381206796    12.000000000000
           C          2.455205723562    -0.809222517030    -0.517350793204    12.000000000000
           H          4.540778723562    -0.561936517030    -0.069923793204     1.007825032070
           H          3.558797723562    -0.914021517030     1.333539206796     1.007825032070
           C          1.057636723562    -0.605510517030     0.072708206796    12.000000000000
           H          2.536203723562    -0.270875517030    -1.458089793204     1.007825032070
           H          2.602705723562    -1.864307517030    -0.741862793204     1.007825032070
           C         -0.053316276438    -1.119798517030    -0.847134793204    12.000000000000
           H          0.904303723562     0.451655482970     0.270833206796     1.007825032070
           H          0.991858723562    -1.117409517030     1.032903206796     1.007825032070
           C         -1.468626276438    -1.017765517030    -0.266767793204    12.000000000000
           H         -0.012570276438    -0.582306517030    -1.792803793204     1.007825032070
           H          0.147679723562    -2.162736517030    -1.082891793204     1.007825032070
           C         -1.979230276438     0.410982482970    -0.060750793204    12.000000000000
           H         -2.150980276438    -1.536461517030    -0.936963793204     1.007825032070
           H         -1.508629276438    -1.555124517030     0.679531206796     1.007825032070
           C         -3.431219276438     0.461672482970     0.419452206796    12.000000000000
           H         -1.891822276438     0.961840482970    -0.996178793204     1.007825032070
           H         -1.352956276438     0.932075482970     0.659350206796     1.007825032070
           C         -4.158348276438     1.736069482970    -0.008168793204    12.000000000000
           H         -3.967076276438    -0.404592517030     0.037444206796     1.007825032070
           H         -3.454490276438     0.379963482970     1.504195206796     1.007825032070
           H         -4.180773276438     1.830349482970    -1.090218793204     1.007825032070
           H         -5.184818276438     1.741218482970     0.345339206796     1.007825032070
           H         -3.667601276438     2.620121482970     0.389302206796     1.007825032070

  Running in c1 symmetry.

  Rotational constants: A =      0.10689  B =      0.01586  C =      0.01440 [cm^-1]
  Rotational constants: A =   3204.40097  B =    475.55799  C =    431.72837 [MHz]
  Nuclear repulsion =  459.523292455248225

  Charge       = 0
  Multiplicity = 1
  Electrons    = 74
  Nalpha       = 37
  Nbeta        = 37

  ==> Algorithm <==

  SCF Algorithm Type is DF.
  DIIS enabled.
  MOM disabled.
  Fractional occupation disabled.
  Guess Type is CORE.
  Energy threshold   = 1.00e-06
  Density threshold  = 1.00e-06
  Integral threshold = 0.00e+00

  ==> Primary Basis <==

  Basis Set: 6-31G*
    Number of shells: 90
    Number of basis function: 171
    Number of Cartesian functions: 171
    Spherical Harmonics?: false
    Max angular momentum: 2

  ==> Pre-Iterations <==

   -------------------------------------------------------
    Irrep   Nso     Nmo     Nalpha   Nbeta   Ndocc  Nsocc
   -------------------------------------------------------
     A        171     171       0       0       0       0
   -------------------------------------------------------
    Total     171     171      37      37      37       0
   -------------------------------------------------------

 OEINTS: Overlap, kinetic, potential, dipole, and quadrupole integrals
         stored in file 35.

  ==> Integral Setup <==

  ==> DFJK: Density-Fitted J/K Matrices <==

    J tasked:                  Yes
    K tasked:                  Yes
    wK tasked:                  No
    OpenMP threads:              1
    Integrals threads:           1
    Memory (MB):              1430
    Algorithm:                Core
    Integral Cache:           NONE
    Schwarz Cutoff:          1E-12
    Fitting Condition:       1E-12

   => Auxiliary Basis Set <=

  Basis Set: 
    Number of shells: 378
    Number of basis function: 1179
    Number of Cartesian functions: 1179
    Spherical Harmonics?: false
    Max angular momentum: 3

  Minimum eigenvalue in the overlap matrix is 3.1137339933E-03.
  Using Symmetric Orthogonalization.
  SCF Guess: Core (One-Electron) Hamiltonian.

  ==> Iterations <==

                           Total Energy        Delta E     RMS |[F,P]|

   @DF-RHF iter   1:  -287.97064850601203   -2.87971e+02   5.81937e-02 
   @DF-RHF iter   2:    11.81893715986831    2.99790e+02   6.53744e-02 DIIS
   @DF-RHF iter   3:  -250.21789964378297   -2.62037e+02   5.14735e-02 DIIS
   @DF-RHF iter   4:  -240.44391080416119    9.77399e+00   6.28037e-02 DIIS
   @DF-RHF iter   5:  -373.89189559075498   -1.33448e+02   1.75522e-02 DIIS
   @DF-RHF iter   6:  -322.11545073498871    5.17764e+01   3.93675e-02 DIIS
   @DF-RHF iter   7:  -387.86036370259751   -6.57449e+01   5.05272e-03 DIIS
   @DF-RHF iter   8:  -388.25805822315681   -3.97695e-01   1.04814e-03 DIIS
   @DF-RHF iter   9:  -388.27425381503292   -1.61956e-02   4.65469e-04 DIIS
   @DF-RHF iter  10:  -388.27813108146495   -3.87727e-03   2.10240e-04 DIIS
   @DF-RHF iter  11:  -388.27887172000737   -7.40639e-04   8.60206e-05 DIIS
   @DF-RHF iter  12:  -388.27904100089802   -1.69281e-04   2.59020e-05 DIIS
   @DF-RHF iter  13:  -388.27905696003279   -1.59591e-05   8.00835e-06 DIIS
   @DF-RHF iter  14:  -388.27905862013517   -1.66010e-06   1.98591e-06 DIIS
   @DF-RHF iter  15:  -388.27905872994677   -1.09812e-07   5.24739e-07 DIIS

  ==> Post-Iterations <==

    Orbital Energies (a.u.)
    -----------------------

    Doubly Occupied:                                                      

       1A    -20.552297     2A    -11.267040     3A    -11.219781  
       4A    -11.217144     5A    -11.215874     6A    -11.215311  
       7A    -11.215192     8A    -11.213648     9A    -11.209395  
      10A     -1.359040    11A     -1.095241    12A     -1.061533  
      13A     -1.011353    14A     -0.948285    15A     -0.888316  
      16A     -0.820342    17A     -0.801243    18A     -0.778363  
      19A     -0.693691    20A     -0.650688    21A     -0.639049  
      22A     -0.614668    23A     -0.597296    24A     -0.585186  
      25A     -0.580460    26A     -0.554626    27A     -0.540908  
      28A     -0.529486    29A     -0.508856    30A     -0.491806  
      31A     -0.483406    32A     -0.476683    33A     -0.468267  
      34A     -0.459124    35A     -0.452228    36A     -0.441304  
      37A     -0.422701  

    Virtual:                                                              

      38A      0.218965    39A      0.232541    40A      0.243363  
      41A      0.257728    42A      0.264883    43A      0.276404  
      44A      0.293319    45A      0.296998    46A      0.314869  
      47A      0.322805    48A      0.325877    49A      0.328648  
      50A      0.334531    51A      0.341509    52A      0.345379  
      53A      0.355365    54A      0.363806    55A      0.380865  
      56A      0.402416    57A      0.419843    58A      0.428857  
      59A      0.437789    60A      0.447385    61A      0.457125  
      62A      0.477229    63A      0.503168    64A      0.697989  
      65A      0.708010    66A      0.721453    67A      0.728745  
      68A      0.740375    69A      0.763763    70A      0.785540  
      71A      0.800301    72A      0.821587    73A      0.832392  
      74A      0.876225    75A      0.899935    76A      0.904925  
      77A      0.920625    78A      0.945796    79A      0.966559  
      80A      0.995606    81A      1.013305    82A      1.018952  
      83A      1.071347    84A      1.087348    85A      1.089477  
      86A      1.108616    87A      1.132351    88A      1.138751  
      89A      1.160230    90A      1.167860    91A      1.176218  
      92A      1.178442    93A      1.182058    94A      1.188788  
      95A      1.195699    96A      1.204301    97A      1.208586  
      98A      1.218387    99A      1.225201   100A      1.232262  
     101A      1.239987   102A      1.245752   103A      1.269063  
     104A      1.273386   105A      1.303328   106A      1.329821  
     107A      1.377590   108A      1.413257   109A      1.440967  
     110A      1.478406   111A      1.561275   112A      1.611817  
     113A      1.671769   114A      1.686959   115A      1.734779  
     116A      1.769983   117A      1.799813   118A      1.801297  
     119A      1.867738   120A      1.929312   121A      1.949310  
     122A      1.986499   123A      2.020109   124A      2.056674  
     125A      2.085811   126A      2.117019   127A      2.167278  
     128A      2.174594   129A      2.225475   130A      2.233841  
     131A      2.260059   132A      2.273180   133A      2.280800  
     134A      2.310759   135A      2.322413   136A      2.325759  
     137A      2.347666   138A      2.398359   139A      2.430947  
     140A      2.462706   141A      2.490779   142A      2.561122  
     143A      2.611348   144A      2.625848   145A      2.642247  
     146A      2.680881   147A      2.692585   148A      2.717864  
     149A      2.737121   150A      2.742017   151A      2.770833  
     152A      2.787642   153A      2.829459   154A      2.891398  
     155A      2.925348   156A      2.950009   157A      3.000097  
     158A      3.052851   159A      3.097609   160A      3.141072  
     161A      3.192156   162A      3.223929   163A      4.186318  
     164A      4.547157   165A      4.606674   166A      4.686461  
     167A      4.763843   168A      4.822210   169A      4.865719  
     170A      4.955858   171A      5.011533  

    Final Occupation by Irrep:
              A 
    DOCC [    37 ]

  Energy converged.

  @DF-RHF Final Energy:  -388.27905872994677

   => Energetics <=

    Nuclear Repulsion Energy =            459.5232924552482245
    One-Electron Energy =               -1437.0450440110309955
    Two-Electron Energy =                 589.2426928258352063
    DFT Exchange-Correlation Energy =       0.0000000000000000
    Empirical Dispersion Energy =           0.0000000000000000
    PCM Polarization Energy =               0.0000000000000000
    EFP Energy =                            0.0000000000000000
    Total Energy =                       -388.2790587299475646

    Alert: EFP and PCM quantities not currently incorporated into SCF psivars.

Properties will be evaluated at   0.000000,   0.000000,   0.000000 Bohr
  ==> Properties <==


Properties computed using the SCF density matrix

  Nuclear Dipole Moment: (a.u.)
     X:    -8.6332      Y:    -0.7586      Z:    -0.6364

  Electronic Dipole Moment: (a.u.)
     X:     8.1064      Y:     0.2795      Z:     0.8543

  Dipole Moment: (a.u.)
     X:    -0.5268      Y:    -0.4791      Z:     0.2179     Total:     0.7447

  Dipole Moment: (Debye)
     X:    -1.3391      Y:    -1.2177      Z:     0.5538     Total:     1.8928


  Saving occupied orbitals to File 180.

*** tstop() called on cx1-3-15-4.cx1.hpc.ic.ac.uk at Thu Sep  1 23:43:03 2016
Module time:
	user time   =      25.41 seconds =       0.42 minutes
	system time =       0.22 seconds =       0.00 minutes
	total time  =         26 seconds =       0.43 minutes
Total time:
	user time   =      25.41 seconds =       0.42 minutes
	system time =       0.22 seconds =       0.00 minutes
	total time  =         26 seconds =       0.43 minutes


Properties will be evaluated at   0.000000,   0.000000,   0.000000 Bohr

Properties computed using the  density matrix

  Nuclear Dipole Moment: (a.u.)
     X:    -8.6332      Y:    -0.7586      Z:    -0.6364

  Electronic Dipole Moment: (a.u.)
     X:     8.1064      Y:     0.2795      Z:     0.8543

  Dipole Moment: (a.u.)
     X:    -0.5268      Y:    -0.4791      Z:     0.2179     Total:     0.7447

  Dipole Moment: (Debye)
     X:    -1.3391      Y:    -1.2177      Z:     0.5538     Total:     1.8928

  Quadrupole Moment: (Debye Ang)
    XX:   -68.9738     YY:   -61.4055     ZZ:   -58.3312
    XY:    -5.7380     XZ:     0.4373     YZ:     0.7327

  Traceless Quadrupole Moment: (Debye Ang)
    XX:    -6.0703     YY:     1.4980     ZZ:     4.5723
    XY:    -5.7380     XZ:     0.4373     YZ:     0.7327

  Mulliken Charges: (a.u.)
   Center  Symbol    Alpha    Beta     Spin     Total
       1     H     0.27992  0.27992  0.00000  0.44016
       2     O     4.37094  4.37094  0.00000 -0.74188
       3     C     2.99737  2.99737  0.00000  0.00526
       4     C     3.16093  3.16093  0.00000 -0.32186
       5     H     0.41444  0.41444  0.00000  0.17112
       6     H     0.43206  0.43206  0.00000  0.13588
       7     C     3.16329  3.16329  0.00000 -0.32657
       8     H     0.41496  0.41496  0.00000  0.17008
       9     H     0.42433  0.42433  0.00000  0.15133
      10     C     3.15226  3.15226  0.00000 -0.30453
      11     H     0.42295  0.42295  0.00000  0.15411
      12     H     0.42546  0.42546  0.00000  0.14908
      13     C     3.15464  3.15464  0.00000 -0.30929
      14     H     0.42157  0.42157  0.00000  0.15686
      15     H     0.42157  0.42157  0.00000  0.15687
      16     C     3.15386  3.15386  0.00000 -0.30771
      17     H     0.42093  0.42093  0.00000  0.15815
      18     H     0.42413  0.42413  0.00000  0.15173
      19     C     3.15221  3.15221  0.00000 -0.30443
      20     H     0.42288  0.42288  0.00000  0.15423
      21     H     0.42223  0.42223  0.00000  0.15554
      22     C     3.23967  3.23967  0.00000 -0.47933
      23     H     0.42228  0.42228  0.00000  0.15543
      24     H     0.42201  0.42201  0.00000  0.15599
      25     H     0.42140  0.42140  0.00000  0.15720
      26     H     0.41986  0.41986  0.00000  0.16029
      27     H     0.42185  0.42185  0.00000  0.15630

   Total alpha = 37.00000, Total beta = 37.00000, Total charge = -0.00000


*** PSI4 exiting successfully. Buy a developer a beer!
