    -----------------------------------------------------------------------
          Psi4: An Open-Source Ab Initio Electronic Structure Package
                              Psi4 (no tag) Driver

                          Git: Rev {detached?}  

    J. M. Turney, A. C. Simmonett, R. M. Parrish, E. G. Hohenstein,
    F. A. Evangelista, J. T. Fermann, B. J. Mintz, L. A. Burns, J. J. Wilke,
    M. L. Abrams, N. J. Russ, M. L. Leininger, C. L. Janssen, E. T. Seidl,
    W. D. Allen, H. F. Schaefer, R. A. King, E. F. Valeev, C. D. Sherrill,
    and T. D. Crawford, WIREs Comput. Mol. Sci. 2, 556-565 (2012)
    (doi: 10.1002/wcms.93)

                         Additional Contributions by
    A. E. DePrince, M. Saitow, U. Bozkaya, A. Yu. Sokolov
    -----------------------------------------------------------------------


    Psi4 started on: Fri Sep  2 19:36:10 2016

    Process ID:   1842
    PSI4DATADIR: /export131/home/mjharvey/miniconda3/share
    Memory level set to 256.000 MB

  ==> Input File <==

--------------------------------------------------------------------------
set {
	reference rhf
	basis 6-31G*
}


set_num_threads( 4 )
memory 2 gb

molecule MOL {
0 1

O	 2.862325	 1.357334	 0.000267
C	 2.843464	 0.164689	 -0.000222
C	 1.546494	 -0.624492	 -0.000609
C	 4.124123	 -0.644674	 -0.000428
C	 0.291004	 0.242674	 0.000989
H	 1.557904	 -1.283758	 -0.867573
H	 1.558622	 -1.285963	 0.864672
C	 0.458881	 1.515824	 0.832053
H	 -0.542716	 -0.339158	 0.381136
H	 0.035389	 0.500470	 -1.021924
C	 -0.794442	 2.392645	 0.842001
H	 0.718514	 1.250080	 1.855781
H	 1.297582	 2.093727	 0.446469
C	 -0.634444	 3.668030	 1.671343
H	 -1.633345	 1.816176	 1.227934
H	 -1.054425	 2.659629	 -0.180802
C	 -1.890594	 4.538514	 1.676623
H	 -0.375722	 3.402390	 2.694242
H	 0.202899	 4.245861	 1.285564
H	 -2.739100	 3.999718	 2.088797
H	 -1.746480	 5.434271	 2.272903
H	 -2.155734	 4.850139	 0.670275
H	 4.165367	 -1.288615	 -0.874074
H	 4.976217	 0.020734	 -0.001915
H	 4.166763	 -1.286207	 0.874930

	symmetry c1
}
set optking {
	frozen_dihedral = ("
		9 5 3 6
	")
}

ee = optimize('scf')
oeprop('DIPOLE', 'QUADRUPOLE', 'MULLIKEN_CHARGES')
f=open( 'psi4out.xyz', 'w' )
f.write( "25  " )
f.write( str(ee) + "\n" )
f.write( MOL.save_string_xyz() )
f.close()
--------------------------------------------------------------------------

  Memory set to   2.000 GiB by Python script.
gradient() will perform analytic gradient computation.

*** tstart() called on cx1-1-3-1.cx1.hpc.ic.ac.uk
*** at Fri Sep  2 19:36:10 2016


         ---------------------------------------------------------
                                   SCF
            by Justin Turney, Rob Parrish, and Andy Simmonett
                              RHF Reference
                        4 Threads,   2000 MiB Core
         ---------------------------------------------------------

  ==> Geometry <==

    Molecular point group: c1
    Full point group: C1

    Geometry (in Angstrom), charge = 0, multiplicity = 1:

       Center              X                  Y                   Z               Mass       
    ------------   -----------------  -----------------  -----------------  -----------------
           O          1.881884189007    -0.061119564747    -0.562278287215    15.994914619560
           C          1.863023189007    -1.253764564747    -0.562767287215    12.000000000000
           C          0.566053189007    -2.042945564747    -0.563154287215    12.000000000000
           C          3.143682189007    -2.063127564747    -0.562973287215    12.000000000000
           C         -0.689436810993    -1.175779564747    -0.561556287215    12.000000000000
           H          0.577463189007    -2.702211564747    -1.430118287215     1.007825032070
           H          0.578181189007    -2.704416564747     0.302126712785     1.007825032070
           C         -0.521559810993     0.097370435253     0.269507712785    12.000000000000
           H         -1.523156810993    -1.757611564747    -0.181409287215     1.007825032070
           H         -0.945051810993    -0.917983564747    -1.584469287215     1.007825032070
           C         -1.774882810993     0.974191435253     0.279455712785    12.000000000000
           H         -0.261926810993    -0.168373564747     1.293235712785     1.007825032070
           H          0.317141189007     0.675273435253    -0.116076287215     1.007825032070
           C         -1.614884810993     2.249576435253     1.108797712785    12.000000000000
           H         -2.613785810993     0.397722435253     0.665388712785     1.007825032070
           H         -2.034865810993     1.241175435253    -0.743347287215     1.007825032070
           C         -2.871034810993     3.120060435253     1.114077712785    12.000000000000
           H         -1.356162810993     1.983936435253     2.131696712785     1.007825032070
           H         -0.777541810993     2.827407435253     0.723018712785     1.007825032070
           H         -3.719540810993     2.581264435253     1.526251712785     1.007825032070
           H         -2.726920810993     4.015817435253     1.710357712785     1.007825032070
           H         -3.136174810993     3.431685435253     0.107729712785     1.007825032070
           H          3.184926189007    -2.707068564747    -1.436619287215     1.007825032070
           H          3.995776189007    -1.397719564747    -0.564460287215     1.007825032070
           H          3.186322189007    -2.704660564747     0.312384712785     1.007825032070

  Running in c1 symmetry.

  Rotational constants: A =      0.14170  B =      0.01950  C =      0.01779 [cm^-1]
  Rotational constants: A =   4248.18372  B =    584.73821  C =    533.29253 [MHz]
  Nuclear repulsion =  456.549102676544010

  Charge       = 0
  Multiplicity = 1
  Electrons    = 72
  Nalpha       = 36
  Nbeta        = 36

  ==> Algorithm <==

  SCF Algorithm Type is DF.
  DIIS enabled.
  MOM disabled.
  Fractional occupation disabled.
  Guess Type is CORE.
  Energy threshold   = 1.00e-08
  Density threshold  = 1.00e-08
  Integral threshold = 0.00e+00

  ==> Primary Basis <==

  Basis Set: 6-31G*
    Number of shells: 86
    Number of basis function: 167
    Number of Cartesian functions: 167
    Spherical Harmonics?: false
    Max angular momentum: 2

  ==> Pre-Iterations <==

   -------------------------------------------------------
    Irrep   Nso     Nmo     Nalpha   Nbeta   Ndocc  Nsocc
   -------------------------------------------------------
     A        167     167       0       0       0       0
   -------------------------------------------------------
    Total     167     167      36      36      36       0
   -------------------------------------------------------

 OEINTS: Overlap, kinetic, potential, dipole, and quadrupole integrals
         stored in file 35.

  ==> Integral Setup <==

  ==> DFJK: Density-Fitted J/K Matrices <==

    J tasked:                  Yes
    K tasked:                  Yes
    wK tasked:                  No
    OpenMP threads:              4
    Integrals threads:           4
    Memory (MB):              1430
    Algorithm:                Core
    Integral Cache:           NONE
    Schwarz Cutoff:          1E-12
    Fitting Condition:       1E-12

   => Auxiliary Basis Set <=

  Basis Set: 
    Number of shells: 360
    Number of basis function: 1129
    Number of Cartesian functions: 1129
    Spherical Harmonics?: false
    Max angular momentum: 3

  Minimum eigenvalue in the overlap matrix is 2.7398941886E-03.
  Using Symmetric Orthogonalization.
  SCF Guess: Core (One-Electron) Hamiltonian.

  ==> Iterations <==

                           Total Energy        Delta E     RMS |[F,P]|

   @DF-RHF iter   1:  -270.52957270201608   -2.70530e+02   6.85932e-02 
   @DF-RHF iter   2:   -88.33784088510737    1.82192e+02   7.40338e-02 DIIS
   @DF-RHF iter   3:  -267.65452174347894   -1.79317e+02   4.93318e-02 DIIS
   @DF-RHF iter   4:  -225.22259535121640    4.24319e+01   6.60338e-02 DIIS
   @DF-RHF iter   5:  -370.27146190091599   -1.45049e+02   2.14136e-02 DIIS
   @DF-RHF iter   6:  -349.64887032282940    2.06226e+01   4.08223e-02 DIIS
   @DF-RHF iter   7:  -372.18995606175571   -2.25411e+01   2.39054e-02 DIIS
   @DF-RHF iter   8:  -386.77851949337770   -1.45886e+01   4.56450e-03 DIIS
   @DF-RHF iter   9:  -387.07100904506802   -2.92490e-01   1.60337e-03 DIIS
   @DF-RHF iter  10:  -387.10617892308341   -3.51699e-02   6.04055e-04 DIIS
   @DF-RHF iter  11:  -387.11253644015238   -6.35752e-03   2.38927e-04 DIIS
   @DF-RHF iter  12:  -387.11363352636857   -1.09709e-03   7.10889e-05 DIIS
   @DF-RHF iter  13:  -387.11373825970185   -1.04733e-04   3.22474e-05 DIIS
   @DF-RHF iter  14:  -387.11376338518033   -2.51255e-05   8.15311e-06 DIIS
   @DF-RHF iter  15:  -387.11376610468534   -2.71951e-06   3.42899e-06 DIIS
   @DF-RHF iter  16:  -387.11376669500947   -5.90324e-07   1.67894e-06 DIIS
   @DF-RHF iter  17:  -387.11376692467246   -2.29663e-07   6.53716e-07 DIIS
   @DF-RHF iter  18:  -387.11376696835151   -4.36791e-08   1.79787e-07 DIIS
   @DF-RHF iter  19:  -387.11376697021507   -1.86355e-09   6.33427e-08 DIIS
   @DF-RHF iter  20:  -387.11376697041175   -1.96678e-10   2.22892e-08 DIIS
   @DF-RHF iter  21:  -387.11376697043301   -2.12594e-11   7.94162e-09 DIIS

  ==> Post-Iterations <==

    Orbital Energies (a.u.)
    -----------------------

    Doubly Occupied:                                                      

       1A    -20.551911     2A    -11.332110     3A    -11.233673  
       4A    -11.231237     5A    -11.215564     6A    -11.203743  
       7A    -11.199827     8A    -11.198603     9A    -11.186770  
      10A     -1.404980    11A     -1.084392    12A     -1.051493  
      13A     -1.014591    14A     -0.961362    15A     -0.884187  
      16A     -0.810595    17A     -0.780085    18A     -0.736201  
      19A     -0.670765    20A     -0.642337    21A     -0.626714  
      22A     -0.621619    23A     -0.590888    24A     -0.581266  
      25A     -0.565625    26A     -0.550102    27A     -0.530831  
      28A     -0.522079    29A     -0.511104    30A     -0.505580  
      31A     -0.482961    32A     -0.467689    33A     -0.454052  
      34A     -0.448445    35A     -0.431988    36A     -0.381078  

    Virtual:                                                              

      37A      0.164374    38A      0.219433    39A      0.242157  
      40A      0.260693    41A      0.274354    42A      0.291507  
      43A      0.298879    44A      0.306144    45A      0.308119  
      46A      0.319946    47A      0.331070    48A      0.345317  
      49A      0.349511    50A      0.354578    51A      0.359564  
      52A      0.373849    53A      0.381366    54A      0.398832  
      55A      0.414036    56A      0.423028    57A      0.451944  
      58A      0.472811    59A      0.476921    60A      0.512074  
      61A      0.554304    62A      0.689176    63A      0.706657  
      64A      0.729146    65A      0.758711    66A      0.763901  
      67A      0.770668    68A      0.791703    69A      0.798856  
      70A      0.804013    71A      0.833727    72A      0.861033  
      73A      0.888625    74A      0.927924    75A      0.948530  
      76A      0.956836    77A      0.977255    78A      0.985787  
      79A      1.007187    80A      1.021993    81A      1.043411  
      82A      1.074787    83A      1.107009    84A      1.115436  
      85A      1.125068    86A      1.135738    87A      1.151035  
      88A      1.162526    89A      1.171526    90A      1.184139  
      91A      1.187028    92A      1.202795    93A      1.213813  
      94A      1.220909    95A      1.222341    96A      1.227028  
      97A      1.237139    98A      1.245521    99A      1.249684  
     100A      1.271952   101A      1.282699   102A      1.313586  
     103A      1.342174   104A      1.380961   105A      1.439973  
     106A      1.517166   107A      1.591639   108A      1.645065  
     109A      1.671145   110A      1.680121   111A      1.714553  
     112A      1.742632   113A      1.761555   114A      1.810194  
     115A      1.860034   116A      1.899180   117A      1.951296  
     118A      2.009164   119A      2.047298   120A      2.094107  
     121A      2.100053   122A      2.145678   123A      2.166046  
     124A      2.191233   125A      2.205411   126A      2.234796  
     127A      2.262199   128A      2.267006   129A      2.277451  
     130A      2.287575   131A      2.333324   132A      2.343264  
     133A      2.366400   134A      2.380276   135A      2.393874  
     136A      2.455516   137A      2.487355   138A      2.525477  
     139A      2.559256   140A      2.606942   141A      2.628154  
     142A      2.672816   143A      2.682900   144A      2.699720  
     145A      2.767415   146A      2.786027   147A      2.792838  
     148A      2.829253   149A      2.858833   150A      2.919007  
     151A      2.961631   152A      2.971773   153A      2.995654  
     154A      3.107859   155A      3.199888   156A      3.221417  
     157A      3.392960   158A      3.427795   159A      4.437594  
     160A      4.546283   161A      4.603344   162A      4.685481  
     163A      4.749861   164A      4.827102   165A      4.852312  
     166A      4.936369   167A      5.048498  

    Final Occupation by Irrep:
              A 
    DOCC [    36 ]

  Energy converged.

  @DF-RHF Final Energy:  -387.11376697043301

   => Energetics <=

    Nuclear Repulsion Energy =            456.5491026765440097
    One-Electron Energy =               -1429.9928383740373192
    Two-Electron Energy =                 586.3299687270608729
    DFT Exchange-Correlation Energy =       0.0000000000000000
    Empirical Dispersion Energy =           0.0000000000000000
    PCM Polarization Energy =               0.0000000000000000
    EFP Energy =                            0.0000000000000000
    Total Energy =                       -387.1137669704324935

    Alert: EFP and PCM quantities not currently incorporated into SCF psivars.

Properties will be evaluated at   0.000000,   0.000000,   0.000000 Bohr
  ==> Properties <==


Properties computed using the SCF density matrix

  Nuclear Dipole Moment: (a.u.)
     X:    -6.7926      Y:     1.9630      Z:     2.5432

  Electronic Dipole Moment: (a.u.)
     X:     7.0038      Y:    -3.1387      Z:    -2.6264

  Dipole Moment: (a.u.)
     X:     0.2112      Y:    -1.1757      Z:    -0.0832     Total:     1.1974

  Dipole Moment: (Debye)
     X:     0.5368      Y:    -2.9884      Z:    -0.2115     Total:     3.0436


  Saving occupied orbitals to File 180.

*** tstop() called on cx1-1-3-1.cx1.hpc.ic.ac.uk at Fri Sep  2 19:36:23 2016
Module time:
	user time   =      39.86 seconds =       0.66 minutes
	system time =       0.52 seconds =       0.01 minutes
	total time  =         13 seconds =       0.22 minutes
Total time:
	user time   =      39.86 seconds =       0.66 minutes
	system time =       0.52 seconds =       0.01 minutes
	total time  =         13 seconds =       0.22 minutes

*** tstart() called on cx1-1-3-1.cx1.hpc.ic.ac.uk
*** at Fri Sep  2 19:36:23 2016


         ------------------------------------------------------------
                                   SCF GRAD                          
                          Rob Parrish, Justin Turney,                
                       Andy Simmonett, and Alex Sokolov              
         ------------------------------------------------------------

  ==> Geometry <==

    Molecular point group: c1
    Full point group: C1

    Geometry (in Angstrom), charge = 0, multiplicity = 1:

       Center              X                  Y                   Z               Mass       
    ------------   -----------------  -----------------  -----------------  -----------------
           O          1.881884189007    -0.061119564747    -0.562278287215    15.994914619560
           C          1.863023189007    -1.253764564747    -0.562767287215    12.000000000000
           C          0.566053189007    -2.042945564747    -0.563154287215    12.000000000000
           C          3.143682189007    -2.063127564747    -0.562973287215    12.000000000000
           C         -0.689436810993    -1.175779564747    -0.561556287215    12.000000000000
           H          0.577463189007    -2.702211564747    -1.430118287215     1.007825032070
           H          0.578181189007    -2.704416564747     0.302126712785     1.007825032070
           C         -0.521559810993     0.097370435253     0.269507712785    12.000000000000
           H         -1.523156810993    -1.757611564747    -0.181409287215     1.007825032070
           H         -0.945051810993    -0.917983564747    -1.584469287215     1.007825032070
           C         -1.774882810993     0.974191435253     0.279455712785    12.000000000000
           H         -0.261926810993    -0.168373564747     1.293235712785     1.007825032070
           H          0.317141189007     0.675273435253    -0.116076287215     1.007825032070
           C         -1.614884810993     2.249576435253     1.108797712785    12.000000000000
           H         -2.613785810993     0.397722435253     0.665388712785     1.007825032070
           H         -2.034865810993     1.241175435253    -0.743347287215     1.007825032070
           C         -2.871034810993     3.120060435253     1.114077712785    12.000000000000
           H         -1.356162810993     1.983936435253     2.131696712785     1.007825032070
           H         -0.777541810993     2.827407435253     0.723018712785     1.007825032070
           H         -3.719540810993     2.581264435253     1.526251712785     1.007825032070
           H         -2.726920810993     4.015817435253     1.710357712785     1.007825032070
           H         -3.136174810993     3.431685435253     0.107729712785     1.007825032070
           H          3.184926189007    -2.707068564747    -1.436619287215     1.007825032070
           H          3.995776189007    -1.397719564747    -0.564460287215     1.007825032070
           H          3.186322189007    -2.704660564747     0.312384712785     1.007825032070

  Nuclear repulsion =  456.549102676544010

  ==> Basis Set <==

  Basis Set: 6-31G*
    Number of shells: 86
    Number of basis function: 167
    Number of Cartesian functions: 167
    Spherical Harmonics?: false
    Max angular momentum: 2

  ==> DFJKGrad: Density-Fitted SCF Gradients <==

    Gradient:                    1
    J tasked:                  Yes
    K tasked:                  Yes
    wK tasked:                  No
    OpenMP threads:              4
    Integrals threads:           4
    Memory (MB):              1430
    Schwarz Cutoff:          0E+00
    Fitting Condition:       1E-12

   => Auxiliary Basis Set <=

  Basis Set: 
    Number of shells: 360
    Number of basis function: 1129
    Number of Cartesian functions: 1129
    Spherical Harmonics?: false
    Max angular momentum: 3


  -Total Gradient:
     Atom            X                  Y                   Z
    ------   -----------------  -----------------  -----------------
       1       -0.034543455168     0.009708916160     0.012566391284
       2       -0.002557447619     0.003957321180     0.002507750831
       3       -0.001059844231     0.002755709772    -0.000231124340
       4       -0.000223244922    -0.000128841811    -0.000884204263
       5       -0.000592706651    -0.005171218406     0.000236133493
       6       -0.000655625157     0.000502522387    -0.001219937925
       7       -0.001601833510    -0.001060133859    -0.000373762728
       8        0.010413470971    -0.018841589162    -0.001301515123
       9        0.000745066772     0.001326262404     0.000211701026
      10       -0.000461280603    -0.002405494436     0.000809026275
      11        0.002823762436     0.005665223098    -0.002731854396
      12        0.000380355165     0.001150354352    -0.001327754210
      13        0.024304746804     0.003756624743    -0.008810185299
      14       -0.000164348001     0.000257616498     0.000634116804
      15        0.002779359346    -0.001171958256    -0.000321791861
      16       -0.000071883502    -0.000367954844     0.000502560405
      17       -0.000189532874     0.000041131885    -0.000199192260
      18       -0.000012997443     0.000024108091    -0.000019680367
      19        0.000061986742     0.000343833318    -0.000066211101
      20        0.000165478944     0.000027518201    -0.000036087695
      21        0.000090170423    -0.000227809868    -0.000056820920
      22        0.000038480730    -0.000044078995     0.000102612397
      23        0.000266075550    -0.000161378200    -0.000013575460
      24        0.000052919148    -0.000011645171    -0.000001902298
      25        0.000012326649     0.000074960920     0.000025307729


*** tstop() called on cx1-1-3-1.cx1.hpc.ic.ac.uk at Fri Sep  2 19:36:34 2016
Module time:
	user time   =      38.36 seconds =       0.64 minutes
	system time =       0.29 seconds =       0.00 minutes
	total time  =         11 seconds =       0.18 minutes
Total time:
	user time   =      78.24 seconds =       1.30 minutes
	system time =       0.81 seconds =       0.01 minutes
	total time  =         24 seconds =       0.40 minutes
CURRENT ENERGY: -387.1137669704

			-----------------------------------------
			 OPTKING 2.0: for geometry optimizations 
			  - R.A. King,  Bethel University        
			-----------------------------------------

	Internal coordinates to be generated automatically.
	Detected frag with atoms:  1 2 3 4 5 6 7 8 9 10 11 12 13 14 15 16 17 18 19 20
	 21 22 23 24 25
	---Fragment 1 Bond Connectivity---
	 1 : 2
	 2 : 1 3 4
	 3 : 2 5 6 7
	 4 : 2 23 24 25
	 5 : 3 8 9 10
	 6 : 3
	 7 : 3
	 8 : 5 11 12 13
	 9 : 5
	 10 : 5
	 11 : 8 14 15 16
	 12 : 8
	 13 : 8
	 14 : 11 17 18 19
	 15 : 11
	 16 : 11
	 17 : 14 20 21 22
	 18 : 14
	 19 : 14
	 20 : 17
	 21 : 17
	 22 : 17
	 23 : 4
	 24 : 4
	 25 : 4

	Assuming in current code that numbering for constraints corresponds to unified fragment.
	Frozen dihedral atom list: 
	     9     5     3     6
	---Fragment 1 Geometry and Gradient---
	 O           3.5562457310       -0.1154992387       -1.0625519733
	 C           3.5206036064       -2.3692716625       -1.0634760494
	 C           1.0696855039       -3.8606076218       -1.0642073734
	 C           5.9406983861       -3.8987460746       -1.0638653330
	 C          -1.3028467587       -2.2219013700       -1.0611875910
	 H           1.0912472790       -5.1064398105       -2.7025319005
	 H           1.0926041024       -5.1106066566        0.5709367446
	 C          -0.9856052047        0.1840034561        0.5092957679
	 H          -2.8783492302       -3.3214045054       -0.3428138708
	 H          -1.7858891042       -1.7347375319       -2.9942130188
	 C          -3.3540424307        1.8409550136        0.5280947634
	 H          -0.4949699396       -0.3181799254        2.4438613224
	 H           0.5993099927        1.2760818574       -0.2193523934
	 C          -3.0516900289        4.2510833776        2.0953240139
	 H          -4.9393393528        0.7515864795        1.2574024391
	 H          -3.8453390999        2.3454816555       -1.4047227945
	 C          -5.4254695108        5.8960597407        2.1053017679
	 H          -2.5627763044        3.7490965277        4.0283229855
	 H          -1.4693410796        5.3430257187        1.3663073561
	 H          -7.0289134729        4.8778828592        2.8841977470
	 H          -5.1531335188        7.5887951523        3.2321076664
	 H          -5.9265114976        6.4849456468        0.2035796535
	 H           6.0186382507       -5.1156182103       -2.7148170101
	 H           7.5509226855       -2.6413071879       -1.0666753557
	 H           6.0212763084       -5.1110677498        0.5903215553
	            -0.0345434552        0.0097089162        0.0125663913
	            -0.0025574476        0.0039573212        0.0025077508
	            -0.0010598442        0.0027557098       -0.0002311243
	            -0.0002232449       -0.0001288418       -0.0008842043
	            -0.0005927067       -0.0051712184        0.0002361335
	            -0.0006556252        0.0005025224       -0.0012199379
	            -0.0016018335       -0.0010601339       -0.0003737627
	             0.0104134710       -0.0188415892       -0.0013015151
	             0.0007450668        0.0013262624        0.0002117010
	            -0.0004612806       -0.0024054944        0.0008090263
	             0.0028237624        0.0056652231       -0.0027318544
	             0.0003803552        0.0011503544       -0.0013277542
	             0.0243047468        0.0037566247       -0.0088101853
	            -0.0001643480        0.0002576165        0.0006341168
	             0.0027793593       -0.0011719583       -0.0003217919
	            -0.0000718835       -0.0003679548        0.0005025604
	            -0.0001895329        0.0000411319       -0.0001991923
	            -0.0000129974        0.0000241081       -0.0000196804
	             0.0000619867        0.0003438333       -0.0000662111
	             0.0001654789        0.0000275182       -0.0000360877
	             0.0000901704       -0.0002278099       -0.0000568209
	             0.0000384807       -0.0000440790        0.0001026124
	             0.0002660756       -0.0001613782       -0.0000135755
	             0.0000529191       -0.0000116452       -0.0000019023
	             0.0000123266        0.0000749609        0.0000253077

	Previous optimization step data not found.  Starting new optimization.

	---Fragment 1 Intrafragment Coordinates---
	 - Coordinate -           - BOHR/RAD -       - ANG/DEG -
	 R(1,2)           =         2.254054	       1.192794
	 R(2,3)           =         2.868986	       1.518202
	 R(2,4)           =         2.862892	       1.514977
	 R(3,5)           =         2.883449	       1.525855
	 R(3,6)           =         2.058317	       1.089215
	 R(3,7)           =         2.058329	       1.089221
	 R(4,23)          =         2.052436	       1.086102
	 R(4,24)          =         2.043033	       1.081126
	 R(4,25)          =         2.052450	       1.086110
	 R(5,8)           =         2.890577	       1.529628
	 R(5,9)           =         2.051140	       1.085417
	 R(5,10)          =         2.051157	       1.085426
	 R(8,11)          =         2.890560	       1.529619
	 R(8,12)          =         2.058022	       1.089058
	 R(8,13)          =         2.058038	       1.089067
	 R(11,14)         =         2.890734	       1.529711
	 R(11,15)         =         2.057129	       1.088586
	 R(11,16)         =         2.057110	       1.088576
	 R(14,17)         =         2.888057	       1.528294
	 R(14,18)         =         2.056092	       1.088037
	 R(14,19)         =         2.056121	       1.088052
	 R(17,20)         =         2.052899	       1.086348
	 R(17,21)         =         2.051636	       1.085679
	 R(17,22)         =         2.052895	       1.086345
	 B(1,2,3)         =         2.133241	     122.225726
	 B(1,2,4)         =         2.118593	     121.386431
	 B(2,3,5)         =         1.990504	     114.047461
	 B(2,3,6)         =         1.881659	     107.811094
	 B(2,3,7)         =         1.881745	     107.816029
	 B(2,4,23)        =         1.927255	     110.423553
	 B(2,4,24)        =         1.914992	     109.720933
	 B(2,4,25)        =         1.926914	     110.404035
	 B(3,2,4)         =         2.031351	     116.387843
	 B(3,5,8)         =         1.964151	     112.537549
	 B(3,5,9)         =         1.904701	     109.131307
	 B(3,5,10)        =         1.904730	     109.132963
	 B(5,3,6)         =         1.932037	     110.697572
	 B(5,3,7)         =         1.932064	     110.699120
	 B(5,8,11)        =         1.972211	     112.999364
	 B(5,8,12)        =         1.911113	     109.498703
	 B(5,8,13)        =         1.911157	     109.501209
	 B(6,3,7)         =         1.838606	     105.344366
	 B(8,5,9)         =         1.917905	     109.887846
	 B(8,5,10)        =         1.917908	     109.888031
	 B(8,11,14)       =         1.977681	     113.312772
	 B(8,11,15)       =         1.907294	     109.279918
	 B(8,11,16)       =         1.907278	     109.278985
	 B(9,5,10)        =         1.850933	     106.050639
	 B(11,8,12)       =         1.906147	     109.214183
	 B(11,8,13)       =         1.906177	     109.215913
	 B(11,14,17)      =         1.972282	     113.003455
	 B(11,14,18)      =         1.908175	     109.330380
	 B(11,14,19)      =         1.908204	     109.332017
	 B(12,8,13)       =         1.853235	     106.182571
	 B(14,11,15)      =         1.907004	     109.263282
	 B(14,11,16)      =         1.906988	     109.262391
	 B(14,17,20)      =         1.939917	     111.149057
	 B(14,17,21)      =         1.941996	     111.268194
	 B(14,17,22)      =         1.939913	     111.148843
	 B(15,11,16)      =         1.853482	     106.196684
	 B(17,14,18)      =         1.908432	     109.345111
	 B(17,14,19)      =         1.908456	     109.346455
	 B(18,14,19)      =         1.854585	     106.259878
	 B(20,17,21)      =         1.880215	     107.728385
	 B(20,17,22)      =         1.878755	     107.644755
	 B(21,17,22)      =         1.880211	     107.728148
	 B(23,4,24)       =         1.911208	     109.504139
	 B(23,4,25)       =         1.871934	     107.253901
	 B(24,4,25)       =         1.911033	     109.494112
	 D(1,2,3,5)       =        -0.000937	      -0.053665
	 D(1,2,3,6)       =         2.152070	     123.304512
	 D(1,2,3,7)       =        -2.154042	    -123.417517
	 D(1,2,4,23)      =        -2.110057	    -120.897370
	 D(1,2,4,24)      =        -0.001810	      -0.103685
	 D(1,2,4,25)      =         2.106003	     120.665058
	 D(2,3,5,8)       =        -0.627592	     -35.958377
	 D(2,3,5,9)       =        -2.761469	    -158.220496
	 D(2,3,5,10)      =         1.506309	      86.305154
	 D(3,2,4,23)      =         1.031581	      59.105223
	 D(3,2,4,24)      =         3.139828	     179.898908
	 D(3,2,4,25)      =        -1.035545	     -59.332349
	 D(3,5,8,11)      =        -3.140628	    -179.944719
	 D(3,5,8,12)      =        -1.011737	     -57.968278
	 D(3,5,8,13)      =         1.013597	      58.074813
	 D(4,2,3,5)       =         3.140610	     179.943718
	 D(4,2,3,6)       =        -0.989569	     -56.698105
	 D(4,2,3,7)       =         0.987505	      56.579866
	 D(5,8,11,14)     =         3.141491	     179.994154
	 D(5,8,11,15)     =         1.010532	      57.899233
	 D(5,8,11,16)     =        -1.010768	     -57.912749
	 D(6,3,5,8)       =        -2.753045	    -157.737875
	*D(6,3,5,9)       =         1.396263	      80.000005
	 D(6,3,5,10)      =        -0.619144	     -35.474345
	 D(7,3,5,8)       =         1.497995	      85.828768
	 D(7,3,5,9)       =        -0.635882	     -36.433352
	 D(7,3,5,10)      =        -2.651290	    -151.907702
	 D(8,11,14,17)    =        -3.141427	    -179.990517
	 D(8,11,14,18)    =        -1.011676	     -57.964757
	 D(8,11,14,19)    =         1.011956	      57.980822
	 D(9,5,8,11)      =        -1.014224	     -58.110769
	 D(9,5,8,12)      =         1.114666	      63.865672
	 D(9,5,8,13)      =         3.140000	     179.908763
	 D(10,5,8,11)     =         1.016115	      58.219079
	 D(10,5,8,12)     =        -3.138180	    -179.804480
	 D(10,5,8,13)     =        -1.112846	     -63.761388
	 D(11,14,17,20)   =         1.045505	      59.903020
	 D(11,14,17,21)   =         3.140983	     179.965097
	 D(11,14,17,22)   =        -1.046731	     -59.973272
	 D(12,8,11,14)    =         1.009814	      57.858106
	 D(12,8,11,15)    =        -1.121144	     -64.236816
	 D(12,8,11,16)    =         3.140741	     179.951203
	 D(13,8,11,14)    =        -1.009941	     -57.865342
	 D(13,8,11,15)    =        -3.140899	    -179.960263
	 D(13,8,11,16)    =         1.120986	      64.227755
	 D(15,11,14,17)   =        -1.010307	     -57.886323
	 D(15,11,14,18)   =         1.119444	      64.139437
	 D(15,11,14,19)   =        -3.140109	    -179.914985
	 D(16,11,14,17)   =         1.010670	      57.907137
	 D(16,11,14,18)   =         3.140421	     179.932896
	 D(16,11,14,19)   =        -1.119132	     -64.121525
	 D(18,14,17,20)   =        -1.084102	     -62.114474
	 D(18,14,17,21)   =         1.011376	      57.947603
	 D(18,14,17,22)   =         3.106847	     178.009235
	 D(19,14,17,20)   =        -3.108020	    -178.076420
	 D(19,14,17,21)   =        -1.012541	     -58.014343
	 D(19,14,17,22)   =         1.082929	      62.047288
	 R(1,8)           =         4.815477	       2.548241

	Current energy   :      -387.1137669704

	Generating empirical Hessian (Schlegel '84) for each fragment.
	Taking RFO optimization step.
	Going to follow RFO solution 1.
	Using RFO vector 1.

	Determining step-restricting scale parameter for RS-RFO.
	Maximum step size allowed    0.50000

	 Iter      |step|        alpha        rfo_root  
	------------------------------------------------
	    0     0.66135       1.00000           1
	    1     0.54621       1.68201           1
	    2     0.50563       2.05803           1
	    3     0.50010       2.11724           1
	    4     0.50000       2.11834           1
	------------------------------------------------
	Norm of target step-size    0.50000
	Projected energy change by RFO approximation:        -0.0215300897

	Back-transformation to cartesian coordinates...
	Successfully converged to displaced geometry.

	Back-transformation to cartesian coordinates to adjust frozen coordinates...
	Successfully converged to displaced geometry.

	--- Internal Coordinate Step in ANG or DEG, aJ/ANG or AJ/DEG ---
	 ---------------------------------------------------------------------------
	   Coordinate                Previous        Force       Change         New 
	   ----------                --------       ------       ------       ------
	    1 R(1,2)          =      1.192794    -0.058800    -0.003385     1.189409
	    2 R(2,3)          =      1.518202    -0.069987    -0.008322     1.509880
	    3 R(2,4)          =      1.514977    -0.001752    -0.000308     1.514670
	    4 R(3,5)          =      1.525855     0.060267     0.015267     1.541122
	    5 R(3,6)          =      1.089215    -0.005437    -0.000860     1.088355
	    6 R(3,7)          =      1.089221    -0.002711    -0.000429     1.088792
	    7 R(4,23)         =      1.086102    -0.000961    -0.000151     1.085952
	    8 R(4,24)         =      1.081126    -0.000285    -0.000044     1.081082
	    9 R(4,25)         =      1.086110     0.000193     0.000030     1.086140
	   10 R(5,8)          =      1.529628     0.044359     0.008784     1.538412
	   11 R(5,9)          =      1.085417     0.009961     0.001558     1.086975
	   12 R(5,10)         =      1.085426     0.010093     0.001579     1.087005
	   13 R(8,11)         =      1.529619     0.015907     0.002905     1.532524
	   14 R(8,12)         =      1.089058     0.011848     0.001873     1.090931
	   15 R(8,13)         =      1.089067    -0.196329    -0.031035     1.058032
	   16 R(11,14)        =      1.529711    -0.004494    -0.000821     1.528890
	   17 R(11,15)        =      1.088586     0.013473     0.002127     1.090713
	   18 R(11,16)        =      1.088576     0.004492     0.000709     1.089285
	   19 R(14,17)        =      1.528294     0.001667     0.000303     1.528598
	   20 R(14,18)        =      1.088037     0.000226     0.000036     1.088073
	   21 R(14,19)        =      1.088052    -0.002091    -0.000330     1.087723
	   22 R(17,20)        =      1.086348     0.001290     0.000202     1.086550
	   23 R(17,21)        =      1.085679     0.001707     0.000267     1.085947
	   24 R(17,22)        =      1.086345     0.000965     0.000151     1.086496
	   25 B(1,2,3)        =    122.225726    -0.000658    -0.657215   121.568511
	   26 B(1,2,4)        =    121.386431     0.000324     0.315254   121.701685
	   27 B(2,3,5)        =    114.047461     0.000353     2.904640   116.952101
	   28 B(2,3,6)        =    107.811094    -0.000172    -1.539959   106.271135
	   29 B(2,3,7)        =    107.816029    -0.000222    -1.127353   106.688676
	   30 B(2,4,23)       =    110.423553    -0.000034    -0.128271   110.295283
	   31 B(2,4,24)       =    109.720933     0.000002     0.011160   109.732093
	   32 B(2,4,25)       =    110.404035     0.000009     0.035647   110.439682
	   33 B(3,2,4)        =    116.387843     0.000334     0.340944   116.728787
	   34 B(3,5,8)        =    112.537549     0.001373     5.098780   117.636329
	   35 B(3,5,9)        =    109.131307    -0.000703    -3.016935   106.114372
	   36 B(3,5,10)       =    109.132963    -0.000095     0.578748   109.711711
	   37 B(5,3,6)        =    110.697572    -0.000025    -0.292540   110.405031
	   38 B(5,3,7)        =    110.699120    -0.000026    -0.403585   110.295535
	   39 B(5,8,11)       =    112.999364    -0.000730    -2.207276   110.792087
	   40 B(5,8,12)       =    109.498703     0.000112    -0.075229   109.423475
	   41 B(5,8,13)       =    109.501209     0.000728     3.261586   112.762795
	   42 B(6,3,7)        =    105.344366     0.000064     0.197118   105.541484
	   43 B(8,5,9)        =    109.887846    -0.000374    -2.140667   107.747179
	   44 B(8,5,10)       =    109.888031    -0.000538    -1.303021   108.585010
	   45 B(8,11,14)      =    113.312772    -0.000126    -0.339680   112.973092
	   46 B(8,11,15)      =    109.279918     0.000196     0.928051   110.207969
	   47 B(8,11,16)      =    109.278985    -0.000002    -0.106400   109.172585
	   48 B(9,5,10)       =    106.050639     0.000269     0.417817   106.468457
	   49 B(11,8,12)      =    109.214183     0.000115    -0.567155   108.647029
	   50 B(11,8,13)      =    109.215913    -0.000160    -0.948227   108.267686
	   51 B(11,14,17)     =    113.003455     0.000027     0.078903   113.082359
	   52 B(11,14,18)     =    109.330380    -0.000007    -0.022793   109.307587
	   53 B(11,14,19)     =    109.332017    -0.000020    -0.078454   109.253563
	   54 B(12,8,13)      =    106.182571    -0.000023     0.611852   106.794423
	   55 B(14,11,15)     =    109.263282    -0.000064    -0.287917   108.975365
	   56 B(14,11,16)     =    109.262391     0.000038    -0.065266   109.197125
	   57 B(14,17,20)     =    111.149057     0.000005     0.018912   111.167969
	   58 B(14,17,21)     =    111.268194     0.000014     0.051725   111.319919
	   59 B(14,17,22)     =    111.148843    -0.000003    -0.014128   111.134715
	   60 B(15,11,16)     =    106.196684    -0.000037    -0.118811   106.077873
	   61 B(17,14,18)     =    109.345111    -0.000009    -0.014897   109.330214
	   62 B(17,14,19)     =    109.346455     0.000005     0.041386   109.387841
	   63 B(18,14,19)     =    106.259878     0.000003    -0.009598   106.250280
	   64 B(20,17,21)     =    107.728385    -0.000007    -0.017972   107.710414
	   65 B(20,17,22)     =    107.644755    -0.000003    -0.016414   107.628342
	   66 B(21,17,22)     =    107.728148    -0.000007    -0.025668   107.702479
	   67 B(23,4,24)      =    109.504139     0.000013     0.037017   109.541155
	   68 B(23,4,25)      =    107.253901     0.000008     0.017803   107.271704
	   69 B(24,4,25)      =    109.494112     0.000003     0.027725   109.521837
	   70 D(1,2,3,5)      =     -0.053665     0.000007     0.043921    -0.009744
	   71 D(1,2,3,6)      =    123.304512     0.000025     0.456222   123.760734
	   72 D(1,2,3,7)      =   -123.417517    -0.000003    -0.556652  -123.974169
	   73 D(1,2,4,23)     =   -120.897370    -0.000006    -0.162597  -121.059967
	   74 D(1,2,4,24)     =     -0.103685    -0.000007    -0.191266    -0.294951
	   75 D(1,2,4,25)     =    120.665058    -0.000005    -0.126760   120.538298
	   76 D(2,3,5,8)      =    -35.958377    -0.000010    -1.781029   -37.739405
	   77 D(2,3,5,9)      =   -158.220496     0.000002    -0.143758  -158.364254
	   78 D(2,3,5,10)     =     86.305154     0.000029     0.687835    86.992989
	   79 D(3,2,4,23)     =     59.105223     0.000007     0.196385    59.301608
	   80 D(3,2,4,24)     =    179.898908     0.000006     0.167716   180.066624
	   81 D(3,2,4,25)     =    -59.332349     0.000008     0.232222   -59.100127
	   82 D(3,5,8,11)     =   -179.944719     0.000105     5.107612  -174.837107
	   83 D(3,5,8,12)     =    -57.968278     0.000043     2.902587   -55.065691
	   84 D(3,5,8,13)     =     58.074813     0.000146     5.558616    63.633429
	   85 D(4,2,3,5)      =    179.943718    -0.000007    -0.314520   179.629198
	   86 D(4,2,3,6)      =    -56.698105     0.000011     0.097781   -56.600324
	   87 D(4,2,3,7)      =     56.579866    -0.000016    -0.915093    55.664773
	   88 D(5,8,11,14)    =    179.994154    -0.000044    -1.162219   178.831935
	   89 D(5,8,11,15)    =     57.899233    -0.000039    -1.233509    56.665724
	   90 D(5,8,11,16)    =    -57.912749    -0.000053    -1.552378   -59.465126
	   91 D(6,3,5,8)      =   -157.737875    -0.000012    -1.637271  -159.375146
	   92 *D(6,3,5,9)     =     80.000005    -0.000000     0.000000    80.000005
	   93 D(6,3,5,10)     =    -35.474345     0.000027     0.831593   -34.642751
	   94 D(7,3,5,8)      =     85.828768    -0.000023    -1.459110    84.369657
	   95 D(7,3,5,9)      =    -36.433352    -0.000011     0.178160   -36.255192
	   96 D(7,3,5,10)     =   -151.907702     0.000016     1.009753  -150.897948
	   97 D(8,11,14,17)   =   -179.990517    -0.000014    -0.396906  -180.387423
	   98 D(8,11,14,18)   =    -57.964757    -0.000013    -0.378807   -58.343564
	   99 D(8,11,14,19)   =     57.980822    -0.000016    -0.446980    57.533842
	  100 D(9,5,8,11)     =    -58.110769     0.000053     3.044388   -55.066381
	  101 D(9,5,8,12)     =     63.865672    -0.000009     0.839363    64.705035
	  102 D(9,5,8,13)     =    179.908763     0.000094     3.495392   183.404155
	  103 D(10,5,8,11)    =     58.219079     0.000006     1.652927    59.872006
	  104 D(10,5,8,12)    =   -179.804480    -0.000056    -0.552098  -180.356578
	  105 D(10,5,8,13)    =    -63.761388     0.000047     2.103931   -61.657458
	  106 D(11,14,17,20)  =     59.903020     0.000000    -0.000500    59.902520
	  107 D(11,14,17,21)  =    179.965097     0.000001     0.024299   179.989396
	  108 D(11,14,17,22)  =    -59.973272     0.000001     0.017044   -59.956228
	  109 D(12,8,11,14)   =     57.858106     0.000017     0.738480    58.596585
	  110 D(12,8,11,15)   =    -64.236816     0.000023     0.667190   -63.569626
	  111 D(12,8,11,16)   =    179.951203     0.000008     0.348321   180.299524
	  112 D(13,8,11,14)   =    -57.865342     0.000029     0.834283   -57.031059
	  113 D(13,8,11,15)   =   -179.960263     0.000035     0.762993  -179.197270
	  114 D(13,8,11,16)   =     64.227755     0.000021     0.444125    64.671880
	  115 D(15,11,14,17)  =    -57.886323     0.000014     0.353488   -57.532835
	  116 D(15,11,14,18)  =     64.139437     0.000014     0.371587    64.511024
	  117 D(15,11,14,19)  =   -179.914985     0.000012     0.303414  -179.611570
	  118 D(16,11,14,17)  =     57.907137     0.000000     0.016329    57.923465
	  119 D(16,11,14,18)  =    179.932896     0.000001     0.034428   179.967324
	  120 D(16,11,14,19)  =    -64.121525    -0.000002    -0.033745   -64.155270
	  121 D(18,14,17,20)  =    -62.114474    -0.000001    -0.014190   -62.128663
	  122 D(18,14,17,21)  =     57.947603     0.000000     0.010609    57.958212
	  123 D(18,14,17,22)  =    178.009235     0.000000     0.003354   178.012588
	  124 D(19,14,17,20)  =   -178.076420    -0.000001    -0.017545  -178.093965
	  125 D(19,14,17,21)  =    -58.014343    -0.000000     0.007254   -58.007089
	  126 D(19,14,17,22)  =     62.047288    -0.000000    -0.000001    62.047287
	  127 R(1,8)          =      2.548241     0.352716     0.229146     2.777387
	 ---------------------------------------------------------------------------

  ==> Convergence Check <==

  Measures of convergence in internal coordinates in au.
  Criteria marked as inactive (o), active & met (*), and active & unmet ( ).
  --------------------------------------------------------------------------------------------- ~
   Step     Total Energy     Delta E     MAX Force     RMS Force      MAX Disp      RMS Disp    ~
  --------------------------------------------------------------------------------------------- ~
    Convergence Criteria    1.00e-06 *    3.00e-04 *             o    1.20e-03 *             o  ~
  --------------------------------------------------------------------------------------------- ~
      1    -387.11376697   -3.87e+02      4.28e-02      5.39e-03 o    4.33e-01      4.44e-02 o  ~
  ---------------------------------------------------------------------------------------------

	Writing optimization data to binary file.
	Structure for next step:
	Cartesian Geometry (in Angstrom)
	    O     2.1402615381  -0.1781449962  -0.6193546210
	    C     1.9998621111  -1.3591290131  -0.6032644056
	    C     0.6295353295  -1.9917383443  -0.5614466691
	    C     3.1853357441  -2.3018562851  -0.6151531336
	    C    -0.5801523535  -1.0371360160  -0.5403009106
	    H     0.5738616976  -2.6558328622  -1.4219087788
	    H     0.6121890161  -2.6427492902   0.3111084540
	    C    -0.4516658471   0.2596229331   0.2773894197
	    H    -1.4079705855  -1.6082342838  -0.1278953195
	    H    -0.8609646850  -0.7785436111  -1.5580698546
	    C    -1.7791350813   1.0252150172   0.2953518706
	    H    -0.1760397848   0.0152093061   1.3042406877
	    H     0.2988200803   0.9057624505  -0.0950430143
	    C    -1.7152605438   2.3111136194   1.1199055304
	    H    -2.5745878180   0.3909312618   0.6885354536
	    H    -2.0653004112   1.2691161504  -0.7269806689
	    C    -3.0354126286   3.0816124754   1.1317824576
	    H    -1.4300778140   2.0694527587   2.1417532240
	    H    -0.9276475377   2.9502909519   0.7271477840
	    H    -3.8371728148   2.4798371437   1.5508742042
	    H    -2.9581697076   3.9881107254   1.7247194348
	    H    -3.3305285633   3.3686618925   0.1263055379
	    H     3.1365743437  -2.9574672265  -1.4794955863
	    H     4.1040048153  -1.7327052466  -0.6443684413
	    H     3.1771666701  -2.9327004814   0.2689673690
			--------------------------
			 OPTKING Finished Execution 
			--------------------------

    Structure for next step:
    Molecular point group: c1
    Full point group: C1

    Geometry (in Angstrom), charge = 0, multiplicity = 1:

    O            2.096983608840    -0.171501520879    -0.611208836242
    C            1.956584192538    -1.352485447601    -0.595118622035
    C            0.586257515603    -1.985094730501    -0.553300888788
    C            3.142057735072    -2.295212647700    -0.607007349179
    C           -0.623430074988    -1.030492475123    -0.532155131865
    H            0.530583887971    -2.649189197769    -1.413762932780
    H            0.568911203551    -2.636105626766     0.319254167723
    C           -0.494943578474     0.266266374907     0.285535136029
    H           -1.451248243824    -1.601590699344    -0.119749572235
    H           -0.904242385040    -0.771900090006    -1.549923998148
    C           -1.822412711251     1.031858400605     0.303497585474
    H           -0.219317537131     0.021852766627     1.312386325563
    H            0.255542291703     0.912405843009    -0.086897269553
    C           -1.758538178640     2.317756904612     1.128051182354
    H           -2.617865387237     0.397574693586     0.696681138510
    H           -2.108578019316     1.275759515110    -0.718834875965
    C           -3.078690162669     3.088255701720     1.139928108606
    H           -1.473355470650     2.076096062337     2.149898797936
    H           -0.970925232630     2.956934188262     0.735293465949
    H           -3.880450287560     2.486480415968     1.559019823279
    H           -3.001447247497     3.994753882510     1.732865040534
    H           -3.373806074780     3.375305096943     0.134451265678
    H            3.093296338404    -2.950823538960    -1.471349735894
    H            4.060726736120    -1.726061652645    -0.636222654628
    H            3.133888661616    -2.926056795815     0.277113085925

gradient() will perform analytic gradient computation.

*** tstart() called on cx1-1-3-1.cx1.hpc.ic.ac.uk
*** at Fri Sep  2 19:36:35 2016


         ---------------------------------------------------------
                                   SCF
            by Justin Turney, Rob Parrish, and Andy Simmonett
                              RHF Reference
                        4 Threads,   2000 MiB Core
         ---------------------------------------------------------

  ==> Geometry <==

    Molecular point group: c1
    Full point group: C1

    Geometry (in Angstrom), charge = 0, multiplicity = 1:

       Center              X                  Y                   Z               Mass       
    ------------   -----------------  -----------------  -----------------  -----------------
           O          2.096983608840    -0.171501520879    -0.611208836242    15.994914619560
           C          1.956584192538    -1.352485447601    -0.595118622035    12.000000000000
           C          0.586257515603    -1.985094730501    -0.553300888788    12.000000000000
           C          3.142057735072    -2.295212647700    -0.607007349179    12.000000000000
           C         -0.623430074988    -1.030492475123    -0.532155131865    12.000000000000
           H          0.530583887971    -2.649189197769    -1.413762932780     1.007825032070
           H          0.568911203551    -2.636105626766     0.319254167723     1.007825032070
           C         -0.494943578474     0.266266374907     0.285535136029    12.000000000000
           H         -1.451248243824    -1.601590699344    -0.119749572235     1.007825032070
           H         -0.904242385040    -0.771900090006    -1.549923998148     1.007825032070
           C         -1.822412711251     1.031858400605     0.303497585474    12.000000000000
           H         -0.219317537131     0.021852766627     1.312386325563     1.007825032070
           H          0.255542291703     0.912405843009    -0.086897269553     1.007825032070
           C         -1.758538178640     2.317756904612     1.128051182354    12.000000000000
           H         -2.617865387237     0.397574693586     0.696681138510     1.007825032070
           H         -2.108578019316     1.275759515110    -0.718834875965     1.007825032070
           C         -3.078690162669     3.088255701720     1.139928108606    12.000000000000
           H         -1.473355470650     2.076096062337     2.149898797936     1.007825032070
           H         -0.970925232630     2.956934188262     0.735293465949     1.007825032070
           H         -3.880450287560     2.486480415968     1.559019823279     1.007825032070
           H         -3.001447247497     3.994753882510     1.732865040534     1.007825032070
           H         -3.373806074780     3.375305096943     0.134451265678     1.007825032070
           H          3.093296338404    -2.950823538960    -1.471349735894     1.007825032070
           H          4.060726736120    -1.726061652645    -0.636222654628     1.007825032070
           H          3.133888661616    -2.926056795815     0.277113085925     1.007825032070

  Running in c1 symmetry.

  Rotational constants: A =      0.15656  B =      0.01797  C =      0.01669 [cm^-1]
  Rotational constants: A =   4693.52876  B =    538.68423  C =    500.23975 [MHz]
  Nuclear repulsion =  450.624708306484422

  Charge       = 0
  Multiplicity = 1
  Electrons    = 72
  Nalpha       = 36
  Nbeta        = 36

  ==> Algorithm <==

  SCF Algorithm Type is DF.
  DIIS enabled.
  MOM disabled.
  Fractional occupation disabled.
  Guess Type is READ.
  Energy threshold   = 1.00e-08
  Density threshold  = 1.00e-08
  Integral threshold = 0.00e+00

  ==> Primary Basis <==

  Basis Set: 6-31G*
    Number of shells: 86
    Number of basis function: 167
    Number of Cartesian functions: 167
    Spherical Harmonics?: false
    Max angular momentum: 2

  ==> Pre-Iterations <==

   -------------------------------------------------------
    Irrep   Nso     Nmo     Nalpha   Nbeta   Ndocc  Nsocc
   -------------------------------------------------------
     A        167     167       0       0       0       0
   -------------------------------------------------------
    Total     167     167      36      36      36       0
   -------------------------------------------------------

 OEINTS: Overlap, kinetic, potential, dipole, and quadrupole integrals
         stored in file 35.

  ==> Integral Setup <==

  ==> DFJK: Density-Fitted J/K Matrices <==

    J tasked:                  Yes
    K tasked:                  Yes
    wK tasked:                  No
    OpenMP threads:              4
    Integrals threads:           4
    Memory (MB):              1430
    Algorithm:                Core
    Integral Cache:           NONE
    Schwarz Cutoff:          1E-12
    Fitting Condition:       1E-12

   => Auxiliary Basis Set <=

  Basis Set: 
    Number of shells: 360
    Number of basis function: 1129
    Number of Cartesian functions: 1129
    Spherical Harmonics?: false
    Max angular momentum: 3

  Minimum eigenvalue in the overlap matrix is 2.8319394254E-03.
  Using Symmetric Orthogonalization.
  SCF Guess: Reading in previously saved MOs, projecting if necessary.

  Using orbitals from previous SCF, no projection.
  Recomputing DOCC and SOCC from number of alpha and beta electrons from previous calculation.
              A 
    DOCC [    36 ]

  ==> Iterations <==

                           Total Energy        Delta E     RMS |[F,P]|

   @DF-RHF iter   0:  -387.11916000132680   -3.87119e+02   2.06932e-03 
   @DF-RHF iter   1:  -387.12416983348317   -5.00983e-03   3.26352e-04 
   @DF-RHF iter   2:  -387.12630450333256   -2.13467e-03   1.21429e-04 DIIS
   @DF-RHF iter   3:  -387.12655295802517   -2.48455e-04   5.45410e-05 DIIS
   @DF-RHF iter   4:  -387.12660531732433   -5.23593e-05   1.40652e-05 DIIS
   @DF-RHF iter   5:  -387.12660879857776   -3.48125e-06   4.73349e-06 DIIS
   @DF-RHF iter   6:  -387.12660981381543   -1.01524e-06   2.07036e-06 DIIS
   @DF-RHF iter   7:  -387.12661013629543   -3.22480e-07   9.61065e-07 DIIS
   @DF-RHF iter   8:  -387.12661022175280   -8.54574e-08   3.64156e-07 DIIS
   @DF-RHF iter   9:  -387.12661023262262   -1.08698e-08   1.20862e-07 DIIS
   @DF-RHF iter  10:  -387.12661023353178   -9.09154e-10   3.63810e-08 DIIS
   @DF-RHF iter  11:  -387.12661023360431   -7.25322e-11   1.19045e-08 DIIS
   @DF-RHF iter  12:  -387.12661023361079   -6.48015e-12   3.98298e-09 DIIS

  ==> Post-Iterations <==

    Orbital Energies (a.u.)
    -----------------------

    Doubly Occupied:                                                      

       1A    -20.549006     2A    -11.326354     3A    -11.232589  
       4A    -11.229706     5A    -11.220019     6A    -11.207319  
       7A    -11.204226     8A    -11.202760     9A    -11.197740  
      10A     -1.399734    11A     -1.084620    12A     -1.052592  
      13A     -1.013117    14A     -0.965364    15A     -0.887254  
      16A     -0.813966    17A     -0.783529    18A     -0.727181  
      19A     -0.664138    20A     -0.643773    21A     -0.628743  
      22A     -0.621183    23A     -0.592342    24A     -0.581536  
      25A     -0.565503    26A     -0.555070    27A     -0.532651  
      28A     -0.522725    29A     -0.512326    30A     -0.497568  
      31A     -0.486222    32A     -0.469193    33A     -0.457985  
      34A     -0.452438    35A     -0.435645    36A     -0.393522  

    Virtual:                                                              

      37A      0.170951    38A      0.217989    39A      0.239200  
      40A      0.259287    41A      0.273218    42A      0.287488  
      43A      0.297967    44A      0.304401    45A      0.308400  
      46A      0.322062    47A      0.329898    48A      0.341337  
      49A      0.346575    50A      0.353661    51A      0.356381  
      52A      0.375338    53A      0.378705    54A      0.396512  
      55A      0.402604    56A      0.417462    57A      0.446497  
      58A      0.460632    59A      0.477554    60A      0.516432  
      61A      0.550758    62A      0.692274    63A      0.704935  
      64A      0.722975    65A      0.758374    66A      0.760785  
      67A      0.765893    68A      0.787397    69A      0.800015  
      70A      0.809615    71A      0.824388    72A      0.862064  
      73A      0.876303    74A      0.921399    75A      0.947719  
      76A      0.953255    77A      0.968326    78A      0.990347  
      79A      1.014446    80A      1.022328    81A      1.048731  
      82A      1.075898    83A      1.101246    84A      1.116988  
      85A      1.122603    86A      1.136502    87A      1.140852  
      88A      1.159633    89A      1.171156    90A      1.184154  
      91A      1.189123    92A      1.197733    93A      1.213566  
      94A      1.218254    95A      1.220992    96A      1.224782  
      97A      1.235847    98A      1.241948    99A      1.245052  
     100A      1.267196   101A      1.273897   102A      1.288031  
     103A      1.322036   104A      1.369502   105A      1.433711  
     106A      1.486404   107A      1.592083   108A      1.637998  
     109A      1.653369   110A      1.699108   111A      1.712666  
     112A      1.731565   113A      1.749633   114A      1.804589  
     115A      1.847550   116A      1.894104   117A      1.948789  
     118A      1.998983   119A      2.053218   120A      2.093610  
     121A      2.094064   122A      2.134479   123A      2.165844  
     124A      2.180067   125A      2.201589   126A      2.233826  
     127A      2.245181   128A      2.259041   129A      2.267388  
     130A      2.287533   131A      2.323443   132A      2.334595  
     133A      2.362985   134A      2.376467   135A      2.402767  
     136A      2.453511   137A      2.487640   138A      2.529317  
     139A      2.556295   140A      2.602849   141A      2.623008  
     142A      2.675900   143A      2.681108   144A      2.701785  
     145A      2.763596   146A      2.777405   147A      2.802508  
     148A      2.815636   149A      2.846300   150A      2.932946  
     151A      2.962627   152A      2.975475   153A      2.985846  
     154A      3.100547   155A      3.197879   156A      3.212241  
     157A      3.391634   158A      3.432511   159A      4.421208  
     160A      4.533530   161A      4.603086   162A      4.677919  
     163A      4.745902   164A      4.831220   165A      4.846725  
     166A      4.931837   167A      5.035574  

    Final Occupation by Irrep:
              A 
    DOCC [    36 ]

  Energy converged.

  @DF-RHF Final Energy:  -387.12661023361079

   => Energetics <=

    Nuclear Repulsion Energy =            450.6247083064844219
    One-Electron Energy =               -1418.0833612339852152
    Two-Electron Energy =                 580.3320426938900027
    DFT Exchange-Correlation Energy =       0.0000000000000000
    Empirical Dispersion Energy =           0.0000000000000000
    PCM Polarization Energy =               0.0000000000000000
    EFP Energy =                            0.0000000000000000
    Total Energy =                       -387.1266102336107906

    Alert: EFP and PCM quantities not currently incorporated into SCF psivars.

Properties will be evaluated at   0.000000,   0.000000,   0.000000 Bohr
  ==> Properties <==


Properties computed using the SCF density matrix

  Nuclear Dipole Moment: (a.u.)
     X:    -7.8256      Y:     2.0948      Z:     2.7347

  Electronic Dipole Moment: (a.u.)
     X:     7.7998      Y:    -3.2212      Z:    -2.7542

  Dipole Moment: (a.u.)
     X:    -0.0258      Y:    -1.1264      Z:    -0.0195     Total:     1.1268

  Dipole Moment: (Debye)
     X:    -0.0656      Y:    -2.8629      Z:    -0.0497     Total:     2.8641


  Saving occupied orbitals to File 180.

*** tstop() called on cx1-1-3-1.cx1.hpc.ic.ac.uk at Fri Sep  2 19:36:46 2016
Module time:
	user time   =      33.68 seconds =       0.56 minutes
	system time =       0.43 seconds =       0.01 minutes
	total time  =         11 seconds =       0.18 minutes
Total time:
	user time   =     114.20 seconds =       1.90 minutes
	system time =       1.30 seconds =       0.02 minutes
	total time  =         36 seconds =       0.60 minutes

*** tstart() called on cx1-1-3-1.cx1.hpc.ic.ac.uk
*** at Fri Sep  2 19:36:46 2016


         ------------------------------------------------------------
                                   SCF GRAD                          
                          Rob Parrish, Justin Turney,                
                       Andy Simmonett, and Alex Sokolov              
         ------------------------------------------------------------

  ==> Geometry <==

    Molecular point group: c1
    Full point group: C1

    Geometry (in Angstrom), charge = 0, multiplicity = 1:

       Center              X                  Y                   Z               Mass       
    ------------   -----------------  -----------------  -----------------  -----------------
           O          2.096983608840    -0.171501520879    -0.611208836242    15.994914619560
           C          1.956584192538    -1.352485447601    -0.595118622035    12.000000000000
           C          0.586257515603    -1.985094730501    -0.553300888788    12.000000000000
           C          3.142057735072    -2.295212647700    -0.607007349179    12.000000000000
           C         -0.623430074988    -1.030492475123    -0.532155131865    12.000000000000
           H          0.530583887971    -2.649189197769    -1.413762932780     1.007825032070
           H          0.568911203551    -2.636105626766     0.319254167723     1.007825032070
           C         -0.494943578474     0.266266374907     0.285535136029    12.000000000000
           H         -1.451248243824    -1.601590699344    -0.119749572235     1.007825032070
           H         -0.904242385040    -0.771900090006    -1.549923998148     1.007825032070
           C         -1.822412711251     1.031858400605     0.303497585474    12.000000000000
           H         -0.219317537131     0.021852766627     1.312386325563     1.007825032070
           H          0.255542291703     0.912405843009    -0.086897269553     1.007825032070
           C         -1.758538178640     2.317756904612     1.128051182354    12.000000000000
           H         -2.617865387237     0.397574693586     0.696681138510     1.007825032070
           H         -2.108578019316     1.275759515110    -0.718834875965     1.007825032070
           C         -3.078690162669     3.088255701720     1.139928108606    12.000000000000
           H         -1.473355470650     2.076096062337     2.149898797936     1.007825032070
           H         -0.970925232630     2.956934188262     0.735293465949     1.007825032070
           H         -3.880450287560     2.486480415968     1.559019823279     1.007825032070
           H         -3.001447247497     3.994753882510     1.732865040534     1.007825032070
           H         -3.373806074780     3.375305096943     0.134451265678     1.007825032070
           H          3.093296338404    -2.950823538960    -1.471349735894     1.007825032070
           H          4.060726736120    -1.726061652645    -0.636222654628     1.007825032070
           H          3.133888661616    -2.926056795815     0.277113085925     1.007825032070

  Nuclear repulsion =  450.624708306484536

  ==> Basis Set <==

  Basis Set: 6-31G*
    Number of shells: 86
    Number of basis function: 167
    Number of Cartesian functions: 167
    Spherical Harmonics?: false
    Max angular momentum: 2

  ==> DFJKGrad: Density-Fitted SCF Gradients <==

    Gradient:                    1
    J tasked:                  Yes
    K tasked:                  Yes
    wK tasked:                  No
    OpenMP threads:              4
    Integrals threads:           4
    Memory (MB):              1430
    Schwarz Cutoff:          0E+00
    Fitting Condition:       1E-12

   => Auxiliary Basis Set <=

  Basis Set: 
    Number of shells: 360
    Number of basis function: 1129
    Number of Cartesian functions: 1129
    Spherical Harmonics?: false
    Max angular momentum: 3


  -Total Gradient:
     Atom            X                  Y                   Z
    ------   -----------------  -----------------  -----------------
       1       -0.013540731361    -0.004968003122     0.004364152683
       2        0.002357707852     0.000357756778    -0.000226778524
       3        0.000639990744     0.000425437618    -0.001946481750
       4        0.000280430432     0.000419184059     0.000044571695
       5       -0.003554111192    -0.001969447893     0.000441103786
       6        0.003190102874     0.001577849923    -0.001161327375
       7        0.000527270563     0.000234044381    -0.000069043631
       8        0.020389696330     0.008463133809    -0.011056860174
       9        0.001762020459    -0.000603474276     0.002711989119
      10       -0.001701232583     0.000460667286     0.000156440033
      11        0.002219953340     0.002092585660    -0.001887856710
      12       -0.000804345195     0.000125736031     0.000861692061
      13       -0.010891548023    -0.005249056276     0.007231730038
      14        0.000073732181    -0.000632587741     0.000084816093
      15       -0.000599720589    -0.000308174347     0.000336632402
      16       -0.000013819705    -0.000252031935     0.000024563946
      17       -0.000127214667    -0.000080452245     0.000021729032
      18        0.000001978262     0.000005033693     0.000047309207
      19       -0.000011581807    -0.000137911282    -0.000122312648
      20       -0.000003170465     0.000010844951    -0.000010838180
      21       -0.000010085591     0.000075589468     0.000044063087
      22        0.000009430692    -0.000006987546    -0.000009556062
      23       -0.000261068756     0.000122635523     0.000032939628
      24        0.000122698215    -0.000096156708     0.000018817591
      25       -0.000056382010    -0.000066215809     0.000068504654


*** tstop() called on cx1-1-3-1.cx1.hpc.ic.ac.uk at Fri Sep  2 19:36:57 2016
Module time:
	user time   =      39.56 seconds =       0.66 minutes
	system time =       0.28 seconds =       0.00 minutes
	total time  =         11 seconds =       0.18 minutes
Total time:
	user time   =     153.78 seconds =       2.56 minutes
	system time =       1.58 seconds =       0.03 minutes
	total time  =         47 seconds =       0.78 minutes
CURRENT ENERGY: -387.1266102336

			-----------------------------------------
			 OPTKING 2.0: for geometry optimizations 
			  - R.A. King,  Bethel University        
			-----------------------------------------

	Previous internal coordinate definitions found.
	---Fragment 1 Geometry and Gradient---
	 O           3.9627247259       -0.3240909058       -1.1550173105
	 C           3.6974082798       -2.5558270947       -1.1246112122
	 C           1.1078661478       -3.7512853885       -1.0455871489
	 C           5.9376286130       -4.3373233209       -1.1470776506
	 C          -1.1781121047       -1.9473485600       -1.0056274594
	 H           1.0026582388       -5.0062420580       -2.6716247598
	 H           1.0750863686       -4.9815176919        0.6033029438
	 C          -0.9353078145        0.5031705270        0.5395832084
	 H          -2.7424617317       -3.0265677987       -0.2262938961
	 H          -1.7087704655       -1.4586797721       -2.9289318833
	 C          -3.4438609254        1.9499297851        0.5735273185
	 H          -0.4144500813        0.0412957442        2.4800507359
	 H           0.4829049467        1.7241971653       -0.1642120412
	 C          -3.3231555519        4.3799257923        2.1317077985
	 H          -4.9470486346        0.7513072882        1.3165365537
	 H          -3.9846349863        2.4108360950       -1.3584010503
	 C          -5.8178812555        5.8359575046        2.1541519364
	 H          -2.7842383359        3.9232529834        4.0627199415
	 H          -1.8347827852        5.5877958088        1.3895032779
	 H          -7.3329883158        4.6987670210        2.9461205017
	 H          -5.6719133001        7.5489908062        3.2746403519
	 H          -6.3755695068        6.3784022482        0.2540760704
	 H           5.8454829274       -5.5762483551       -2.7804480465
	 H           7.6736614318       -3.2617838120       -1.2022865768
	 H           5.9221913014       -5.5294459934        0.5236678402
	            -0.0135407314       -0.0049680031        0.0043641527
	             0.0023577079        0.0003577568       -0.0002267785
	             0.0006399907        0.0004254376       -0.0019464817
	             0.0002804304        0.0004191841        0.0000445717
	            -0.0035541112       -0.0019694479        0.0004411038
	             0.0031901029        0.0015778499       -0.0011613274
	             0.0005272706        0.0002340444       -0.0000690436
	             0.0203896963        0.0084631338       -0.0110568602
	             0.0017620205       -0.0006034743        0.0027119891
	            -0.0017012326        0.0004606673        0.0001564400
	             0.0022199533        0.0020925857       -0.0018878567
	            -0.0008043452        0.0001257360        0.0008616921
	            -0.0108915480       -0.0052490563        0.0072317300
	             0.0000737322       -0.0006325877        0.0000848161
	            -0.0005997206       -0.0003081743        0.0003366324
	            -0.0000138197       -0.0002520319        0.0000245639
	            -0.0001272147       -0.0000804522        0.0000217290
	             0.0000019783        0.0000050337        0.0000473092
	            -0.0000115818       -0.0001379113       -0.0001223126
	            -0.0000031705        0.0000108450       -0.0000108382
	            -0.0000100856        0.0000755895        0.0000440631
	             0.0000094307       -0.0000069875       -0.0000095561
	            -0.0002610688        0.0001226355        0.0000329396
	             0.0001226982       -0.0000961567        0.0000188176
	            -0.0000563820       -0.0000662158        0.0000685047

	---Fragment 1 Intrafragment Coordinates---
	 - Coordinate -           - BOHR/RAD -       - ANG/DEG -
	 R(1,2)           =         2.247657	       1.189409
	 R(2,3)           =         2.853260	       1.509880
	 R(2,4)           =         2.862310	       1.514670
	 R(3,5)           =         2.912298	       1.541122
	 R(3,6)           =         2.056692	       1.088355
	 R(3,7)           =         2.057519	       1.088792
	 R(4,23)          =         2.052151	       1.085952
	 R(4,24)          =         2.042950	       1.081082
	 R(4,25)          =         2.052507	       1.086140
	 R(5,8)           =         2.907176	       1.538412
	 R(5,9)           =         2.054085	       1.086975
	 R(5,10)          =         2.054141	       1.087005
	 R(8,11)          =         2.896050	       1.532524
	 R(8,12)          =         2.061561	       1.090931
	 R(8,13)          =         1.999390	       1.058032
	 R(11,14)         =         2.889183	       1.528890
	 R(11,15)         =         2.061148	       1.090713
	 R(11,16)         =         2.058450	       1.089285
	 R(14,17)         =         2.888631	       1.528598
	 R(14,18)         =         2.056159	       1.088073
	 R(14,19)         =         2.055498	       1.087723
	 R(17,20)         =         2.053282	       1.086550
	 R(17,21)         =         2.052141	       1.085947
	 R(17,22)         =         2.053181	       1.086496
	 B(1,2,3)         =         2.121771	     121.568511
	 B(1,2,4)         =         2.124095	     121.701685
	 B(2,3,5)         =         2.041199	     116.952101
	 B(2,3,6)         =         1.854781	     106.271135
	 B(2,3,7)         =         1.862069	     106.688676
	 B(2,4,23)        =         1.925016	     110.295283
	 B(2,4,24)        =         1.915186	     109.732093
	 B(2,4,25)        =         1.927536	     110.439682
	 B(3,2,4)         =         2.037302	     116.728787
	 B(3,5,8)         =         2.053141	     117.636329
	 B(3,5,9)         =         1.852045	     106.114372
	 B(3,5,10)        =         1.914831	     109.711711
	 B(5,3,6)         =         1.926931	     110.405031
	 B(5,3,7)         =         1.925020	     110.295535
	 B(5,8,11)        =         1.933687	     110.792087
	 B(5,8,12)        =         1.909800	     109.423475
	 B(5,8,13)        =         1.968082	     112.762795
	 B(6,3,7)         =         1.842046	     105.541484
	 B(8,5,9)         =         1.880543	     107.747179
	 B(8,5,10)        =         1.895166	     108.585010
	 B(8,11,14)       =         1.971752	     112.973092
	 B(8,11,15)       =         1.923492	     110.207969
	 B(8,11,16)       =         1.905421	     109.172585
	 B(9,5,10)        =         1.858225	     106.468457
	 B(11,8,12)       =         1.896248	     108.647029
	 B(11,8,13)       =         1.889628	     108.267686
	 B(11,14,17)      =         1.973659	     113.082359
	 B(11,14,18)      =         1.907777	     109.307587
	 B(11,14,19)      =         1.906834	     109.253563
	 B(12,8,13)       =         1.863914	     106.794423
	 B(14,11,15)      =         1.901979	     108.975365
	 B(14,11,16)      =         1.905849	     109.197125
	 B(14,17,20)      =         1.940247	     111.167969
	 B(14,17,21)      =         1.942899	     111.319919
	 B(14,17,22)      =         1.939667	     111.134715
	 B(15,11,16)      =         1.851408	     106.077873
	 B(17,14,18)      =         1.908172	     109.330214
	 B(17,14,19)      =         1.909178	     109.387841
	 B(18,14,19)      =         1.854417	     106.250280
	 B(20,17,21)      =         1.879901	     107.710414
	 B(20,17,22)      =         1.878469	     107.628342
	 B(21,17,22)      =         1.879763	     107.702479
	 B(23,4,24)       =         1.911854	     109.541155
	 B(23,4,25)       =         1.872244	     107.271704
	 B(24,4,25)       =         1.911517	     109.521837
	 D(1,2,3,5)       =        -0.000170	      -0.009744
	 D(1,2,3,6)       =         2.160032	     123.760734
	 D(1,2,3,7)       =        -2.163757	    -123.974169
	 D(1,2,4,23)      =        -2.112895	    -121.059967
	 D(1,2,4,24)      =        -0.005148	      -0.294951
	 D(1,2,4,25)      =         2.103790	     120.538298
	 D(2,3,5,8)       =        -0.658677	     -37.739405
	 D(2,3,5,9)       =        -2.763978	    -158.364254
	 D(2,3,5,10)      =         1.518314	      86.992989
	 D(3,2,4,23)      =         1.035008	      59.301608
	 D(3,2,4,24)      =        -3.140430	    -179.933376
	 D(3,2,4,25)      =        -1.031492	     -59.100127
	 D(3,5,8,11)      =        -3.051483	    -174.837107
	 D(3,5,8,12)      =        -0.961078	     -55.065691
	 D(3,5,8,13)      =         1.110613	      63.633429
	 D(4,2,3,5)       =         3.135121	     179.629198
	 D(4,2,3,6)       =        -0.987862	     -56.600324
	 D(4,2,3,7)       =         0.971534	      55.664773
	 D(5,8,11,14)     =         3.121206	     178.831935
	 D(5,8,11,15)     =         0.989003	      56.665724
	 D(5,8,11,16)     =        -1.037862	     -59.465126
	 D(6,3,5,8)       =        -2.781621	    -159.375146
	*D(6,3,5,9)       =         1.396263	      80.000005
	 D(6,3,5,10)      =        -0.604630	     -34.642751
	 D(7,3,5,8)       =         1.472528	      84.369657
	 D(7,3,5,9)       =        -0.632772	     -36.255192
	 D(7,3,5,10)      =        -2.633666	    -150.897948
	 D(8,11,14,17)    =         3.134831	     179.612577
	 D(8,11,14,18)    =        -1.018287	     -58.343564
	 D(8,11,14,19)    =         1.004155	      57.533842
	 D(9,5,8,11)      =        -0.961090	     -55.066381
	 D(9,5,8,12)      =         1.129316	      64.705035
	 D(9,5,8,13)      =        -3.082179	    -176.595845
	 D(10,5,8,11)     =         1.044964	      59.872006
	 D(10,5,8,12)     =         3.135369	     179.643422
	 D(10,5,8,13)     =        -1.076126	     -61.657458
	 D(11,14,17,20)   =         1.045496	      59.902520
	 D(11,14,17,21)   =         3.141408	     179.989396
	 D(11,14,17,22)   =        -1.046434	     -59.956228
	 D(12,8,11,14)    =         1.022703	      58.596585
	 D(12,8,11,15)    =        -1.109499	     -63.569626
	 D(12,8,11,16)    =        -3.136365	    -179.700476
	 D(13,8,11,14)    =        -0.995380	     -57.031059
	 D(13,8,11,15)    =        -3.127582	    -179.197270
	 D(13,8,11,16)    =         1.128737	      64.671880
	 D(15,11,14,17)   =        -1.004137	     -57.532835
	 D(15,11,14,18)   =         1.125930	      64.511024
	 D(15,11,14,19)   =        -3.134813	    -179.611570
	 D(16,11,14,17)   =         1.010955	      57.923465
	 D(16,11,14,18)   =         3.141022	     179.967324
	 D(16,11,14,19)   =        -1.119721	     -64.155270
	 D(18,14,17,20)   =        -1.084350	     -62.128663
	 D(18,14,17,21)   =         1.011562	      57.958212
	 D(18,14,17,22)   =         3.106906	     178.012588
	 D(19,14,17,20)   =        -3.108326	    -178.093965
	 D(19,14,17,21)   =        -1.012415	     -58.007089
	 D(19,14,17,22)   =         1.082929	      62.047287
	 R(1,8)           =         5.248500	       2.777387

	Current energy   :      -387.1266102336

	Energy change for the previous step:
		Projected    :        -0.0215300897
		Actual       :        -0.0128432632

	Performing BFGS update.
	Previous computed or guess Hessian on step 1.
	Steps to be used in Hessian update: 1
	Taking RFO optimization step.
	Going to follow RFO solution 1.
	Using RFO vector 1.
	Norm of target step-size    0.41974
	Projected energy change by RFO approximation:         0.0041233177

	Back-transformation to cartesian coordinates...
	Successfully converged to displaced geometry.

	Back-transformation to cartesian coordinates to adjust frozen coordinates...
	Successfully converged to displaced geometry.

	--- Internal Coordinate Step in ANG or DEG, aJ/ANG or AJ/DEG ---
	 ---------------------------------------------------------------------------
	   Coordinate                Previous        Force       Change         New 
	   ----------                --------       ------       ------       ------
	    1 R(1,2)          =      1.189409     0.057419     0.003774     1.193183
	    2 R(2,3)          =      1.509880     0.039777     0.010121     1.520001
	    3 R(2,4)          =      1.514670     0.001404     0.000329     1.514998
	    4 R(3,5)          =      1.541122    -0.028573    -0.006720     1.534402
	    5 R(3,6)          =      1.088355     0.001712     0.000389     1.088744
	    6 R(3,7)          =      1.088792     0.001678     0.000354     1.089147
	    7 R(4,23)         =      1.085952     0.000729     0.000150     1.086102
	    8 R(4,24)         =      1.081082    -0.000438    -0.000080     1.081003
	    9 R(4,25)         =      1.086140    -0.000780    -0.000152     1.085988
	   10 R(5,8)          =      1.538412    -0.032993    -0.008098     1.530314
	   11 R(5,9)          =      1.086975    -0.000034    -0.000109     1.086866
	   12 R(5,10)         =      1.087005    -0.003317    -0.000741     1.086264
	   13 R(8,11)         =      1.532524     0.007976     0.001635     1.534159
	   14 R(8,12)         =      1.090931    -0.004776    -0.001051     1.089880
	   15 R(8,13)         =      1.058032     0.111032     0.023616     1.081648
	   16 R(11,14)        =      1.528890     0.005089     0.001225     1.530115
	   17 R(11,15)        =      1.090713    -0.006080    -0.001319     1.089393
	   18 R(11,16)        =      1.089285     0.000625     0.000074     1.089360
	   19 R(14,17)        =      1.528598    -0.000931    -0.000234     1.528364
	   20 R(14,18)        =      1.088073    -0.000361    -0.000072     1.088000
	   21 R(14,19)        =      1.087723     0.000373     0.000094     1.087817
	   22 R(17,20)        =      1.086550     0.000065    -0.000001     1.086549
[...]
	 D(19,14,17,21)   =        -1.011640	     -57.962703
	 D(19,14,17,22)   =         1.083349	      62.071337
	 R(1,8)           =         5.914353	       3.129741

	Current energy   :      -387.1318368570

	Energy change for the previous step:
		Projected    :        -0.0000021821
		Actual       :        -0.0000006052

	Performing BFGS update.
	Previous computed or guess Hessian on step 1.
	Steps to be used in Hessian update: 11 10
	Taking RFO optimization step.
	Going to follow RFO solution 1.
	Rejecting RFO root 1 because normalization gives large value.
	Using RFO vector 2.
	Norm of target step-size    0.01245
	Projected energy change by RFO approximation:        -0.0000006759

	Back-transformation to cartesian coordinates...
	Successfully converged to displaced geometry.

	Back-transformation to cartesian coordinates to adjust frozen coordinates...
	Successfully converged to displaced geometry.

	--- Internal Coordinate Step in ANG or DEG, aJ/ANG or AJ/DEG ---
	 ---------------------------------------------------------------------------
	   Coordinate                Previous        Force       Change         New 
	   ----------                --------       ------       ------       ------
	    1 R(1,2)          =      1.193437     0.000346     0.000008     1.193445
	    2 R(2,3)          =      1.521656     0.000127     0.000032     1.521688
	    3 R(2,4)          =      1.513046    -0.000012     0.000011     1.513057
	    4 R(3,5)          =      1.536618    -0.000293    -0.000052     1.536566
	    5 R(3,6)          =      1.090194     0.000055     0.000019     1.090213
	    6 R(3,7)          =      1.084870     0.000073     0.000001     1.084871
	    7 R(4,23)         =      1.086115     0.000197     0.000029     1.086144
	    8 R(4,24)         =      1.081108    -0.000091    -0.000006     1.081102
	    9 R(4,25)         =      1.086834    -0.000131    -0.000025     1.086809
	   10 R(5,8)          =      1.534328     0.000421     0.000059     1.534387
	   11 R(5,9)          =      1.087292    -0.000127    -0.000013     1.087279
	   12 R(5,10)         =      1.083600     0.000148     0.000012     1.083612
	   13 R(8,11)         =      1.530007     0.000058    -0.000002     1.530005
	   14 R(8,12)         =      1.090486    -0.000040    -0.000006     1.090479
	   15 R(8,13)         =      1.082931    -0.000015     0.000018     1.082949
	   16 R(11,14)        =      1.529740     0.000132     0.000014     1.529754
	   17 R(11,15)        =      1.089115    -0.000069    -0.000006     1.089109
	   18 R(11,16)        =      1.088810    -0.000021    -0.000005     1.088805
	   19 R(14,17)        =      1.528299     0.000054     0.000002     1.528302
	   20 R(14,18)        =      1.088150    -0.000040    -0.000004     1.088146
	   21 R(14,19)        =      1.087612     0.000029     0.000005     1.087617
	   22 R(17,20)        =      1.086513     0.000011    -0.000000     1.086513
	   23 R(17,21)        =      1.085692     0.000035     0.000003     1.085695
	   24 R(17,22)        =      1.086367    -0.000056    -0.000005     1.086362
	   25 B(1,2,3)        =    121.823316     0.000000     0.002198   121.825513
	   26 B(1,2,4)        =    121.469716     0.000001     0.000006   121.469722
	   27 B(2,3,5)        =    115.472043     0.000001     0.003036   115.475079
	   28 B(2,3,6)        =    102.520768     0.000001     0.013149   102.533917
	   29 B(2,3,7)        =    110.108723    -0.000002    -0.016403   110.092320
	   30 B(2,4,23)       =    110.749527     0.000001    -0.000871   110.748656
	   31 B(2,4,24)       =    109.965364    -0.000001    -0.003954   109.961409
	   32 B(2,4,25)       =    109.616854     0.000001     0.003761   109.620615
	   33 B(3,2,4)        =    116.646502    -0.000001    -0.001647   116.644855
	   34 B(3,5,8)        =    114.716251     0.000001    -0.006052   114.710199
	   35 B(3,5,9)        =    107.071068    -0.000001    -0.001731   107.069337
	   36 B(3,5,10)       =    110.194428    -0.000002    -0.001481   110.192946
	   37 B(5,3,6)        =    109.135631    -0.000000     0.003050   109.138681
	   38 B(5,3,7)        =    111.304565     0.000000     0.000612   111.305177
	   39 B(5,8,11)       =    112.344573     0.000001     0.002842   112.347415
	   40 B(5,8,12)       =    109.158229     0.000000     0.006407   109.164637
	   41 B(5,8,13)       =    109.968096     0.000001     0.001613   109.969709
	   42 B(6,3,7)        =    107.688970     0.000000    -0.002523   107.686447
	   43 B(8,5,9)        =    106.428936    -0.000000     0.001171   106.430107
	   44 B(8,5,10)       =    109.819893     0.000001     0.005580   109.825474
	   45 B(8,11,14)      =    113.192843     0.000002     0.003104   113.195947
	   46 B(8,11,15)      =    109.617413    -0.000001    -0.005453   109.611960
	   47 B(8,11,16)      =    109.192940    -0.000000    -0.000058   109.192882
	   48 B(9,5,10)       =    108.332384     0.000001     0.002875   108.335259
	   49 B(11,8,12)      =    109.021888     0.000000     0.004534   109.026422
	   50 B(11,8,13)      =    109.358721    -0.000002    -0.014973   109.343748
	   51 B(11,14,17)     =    113.013840     0.000001     0.001682   113.015522
	   52 B(11,14,18)     =    109.326845    -0.000000    -0.002446   109.324399
	   53 B(11,14,19)     =    109.268989    -0.000000     0.002648   109.271636
	   54 B(12,8,13)      =    106.830907     0.000000    -0.000491   106.830416
	   55 B(14,11,15)     =    109.205451    -0.000000    -0.000658   109.204793
	   56 B(14,11,16)     =    109.156105    -0.000000     0.001614   109.157719
	   57 B(14,17,20)     =    111.178371     0.000000     0.000477   111.178847
	   58 B(14,17,21)     =    111.267363     0.000001     0.001901   111.269264
	   59 B(14,17,22)     =    111.137941    -0.000001    -0.001982   111.135959
	   60 B(15,11,16)     =    106.238689     0.000000     0.001381   106.240070
	   61 B(17,14,18)     =    109.343297    -0.000001    -0.003943   109.339355
	   62 B(17,14,19)     =    109.384347    -0.000000     0.001876   109.386223
	   63 B(18,14,19)     =    106.280658     0.000000     0.000090   106.280748
	   64 B(20,17,21)     =    107.716422    -0.000000    -0.000235   107.716188
	   65 B(20,17,22)     =    107.653651     0.000000    -0.000369   107.653282
	   66 B(21,17,22)     =    107.712595     0.000000     0.000180   107.712775
	   67 B(23,4,24)      =    109.866393     0.000000    -0.001953   109.864440
	   68 B(23,4,25)      =    107.183623    -0.000000     0.000940   107.184563
	   69 B(24,4,25)      =    109.408554     0.000000     0.002285   109.410839
	   70 D(1,2,3,5)      =    -32.914876     0.000000    -0.002597   -32.917473
	   71 D(1,2,3,6)      =     85.622879     0.000000     0.011400    85.634278
	   72 D(1,2,3,7)      =   -159.998585     0.000000     0.008406  -159.990180
	   73 D(1,2,4,23)     =   -127.981292    -0.000000     0.047150  -127.934142
	   74 D(1,2,4,24)     =     -6.362243    -0.000000     0.041478    -6.320765
	   75 D(1,2,4,25)     =    113.956911    -0.000000     0.044192   114.001103
	   76 D(2,3,5,8)      =    -47.355822     0.000000     0.017208   -47.338614
	   77 D(2,3,5,9)      =   -165.198701     0.000000     0.020499  -165.178202
	   78 D(2,3,5,10)     =     77.186245     0.000001     0.018861    77.205106
	   79 D(3,2,4,23)     =     49.239904     0.000000     0.060022    49.299926
	   80 D(3,2,4,24)     =    170.858953     0.000000     0.054350   170.913303
	   81 D(3,2,4,25)     =    -68.821893     0.000000     0.057064   -68.764828
	   82 D(3,5,8,11)     =   -172.779855    -0.000000     0.090122  -172.689733
	   83 D(3,5,8,12)     =    -51.725384     0.000000     0.102122   -51.623263
	   84 D(3,5,8,13)     =     65.169954     0.000000     0.106194    65.276148
	   85 D(4,2,3,5)      =    149.874526    -0.000000    -0.015453   149.859073
	   86 D(4,2,3,6)      =    -91.587719    -0.000000    -0.001456   -91.589175
	   87 D(4,2,3,7)      =     22.790817    -0.000000    -0.004450    22.786367
	   88 D(5,8,11,14)    =   -179.547277     0.000000     0.115752  -179.431526
	   89 D(5,8,11,15)    =     58.268487     0.000000     0.118439    58.386925
	   90 D(5,8,11,16)    =    -57.734309     0.000000     0.119873   -57.614437
	   91 D(6,3,5,8)      =   -162.157116    -0.000000    -0.003291  -162.160407
	   92 *D(6,3,5,9)     =     80.000005    -0.000000    -0.000000    80.000005
	   93 D(6,3,5,10)     =    -37.615049     0.000000    -0.001639   -37.616687
	   94 D(7,3,5,8)      =     79.123221    -0.000000    -0.002486    79.120735
	   95 D(7,3,5,9)      =    -38.719658    -0.000000     0.000805   -38.718853
	   96 D(7,3,5,10)     =   -156.334712     0.000000    -0.000833  -156.335545
	   97 D(8,11,14,17)   =    179.722426     0.000000     0.160592   179.883018
	   98 D(8,11,14,18)   =    -58.249630     0.000000     0.154921   -58.094709
	   99 D(8,11,14,19)   =     57.683556     0.000000     0.155143    57.838699
	  100 D(9,5,8,11)     =    -54.573878    -0.000000     0.085245   -54.488633
	  101 D(9,5,8,12)     =     66.480592    -0.000000     0.097245    66.577837
	  102 D(9,5,8,13)     =   -176.624070     0.000000     0.101318  -176.522752
	  103 D(10,5,8,11)    =     62.480696    -0.000000     0.092167    62.572863
	  104 D(10,5,8,12)    =   -176.464834     0.000000     0.104167  -176.360667
	  105 D(10,5,8,13)    =    -59.569496     0.000000     0.108240   -59.461256
	  106 D(11,14,17,20)  =     59.997038    -0.000000    -0.096653    59.900385
	  107 D(11,14,17,21)  =   -179.936842    -0.000000    -0.095350  -180.032192
	  108 D(11,14,17,22)  =    -59.902802    -0.000000    -0.095180   -59.997982
	  109 D(12,8,11,14)   =     59.320012    -0.000000     0.102692    59.422703
	  110 D(12,8,11,15)   =    -62.864224    -0.000000     0.105378   -62.758846
	  111 D(12,8,11,16)   =   -178.867020    -0.000000     0.106812  -178.760208
	  112 D(13,8,11,14)   =    -57.151611     0.000000     0.109107   -57.042504
	  113 D(13,8,11,15)   =   -179.335847     0.000000     0.111794  -179.224053
	  114 D(13,8,11,16)   =     64.661357     0.000000     0.113228    64.774586
	  115 D(15,11,14,17)  =    -57.863698     0.000000     0.155229   -57.708468
	  116 D(15,11,14,18)  =     64.164247     0.000000     0.149558    64.313805
	  117 D(15,11,14,19)  =   -179.902567     0.000000     0.149780  -179.752787
	  118 D(16,11,14,17)  =     57.888818     0.000000     0.157410    58.046228
	  119 D(16,11,14,18)  =    179.916762     0.000000     0.151739   180.068501
	  120 D(16,11,14,19)  =    -64.150052     0.000000     0.151961   -63.998091
	  121 D(18,14,17,20)  =    -62.021677    -0.000000    -0.091821   -62.113498
	  122 D(18,14,17,21)  =     58.044443    -0.000000    -0.090518    57.953925
	  123 D(18,14,17,22)  =    178.078483    -0.000000    -0.090348   177.988136
	  124 D(19,14,17,20)  =   -178.028823    -0.000000    -0.090765  -178.119588
	  125 D(19,14,17,21)  =    -57.962703     0.000000    -0.089462   -58.052165
	  126 D(19,14,17,22)  =     62.071337     0.000000    -0.089291    61.982046
	  127 R(1,8)          =      3.129741     0.000289    -0.000223     3.129518
	 ---------------------------------------------------------------------------

  ==> Convergence Check <==

  Measures of convergence in internal coordinates in au.
  Criteria marked as inactive (o), active & met (*), and active & unmet ( ).
  ---------------------------------------------------------------------------------------------
   Step     Total Energy     Delta E     MAX Force     RMS Force      MAX Disp      RMS Disp   
  ---------------------------------------------------------------------------------------------
    Convergence Criteria    1.00e-06 *    3.00e-04 *             o    1.20e-03 *             o
  ---------------------------------------------------------------------------------------------
     12    -387.13183686   -6.05e-07 *    5.11e-05 *    1.26e-05 o    2.80e-03      1.10e-03 o  ~
  ---------------------------------------------------------------------------------------------


  **** Optimization is complete! (in 12 steps) ****

  ==> Optimization Summary <==

  Measures of convergence in internal coordinates in au.
  --------------------------------------------------------------------------------------------------------------- ~
   Step         Total Energy             Delta E       MAX Force       RMS Force        MAX Disp        RMS Disp  ~
  --------------------------------------------------------------------------------------------------------------- ~
      1    -387.113766970433   -387.113766970433      0.04281200      0.00538824      0.43302345      0.04436328  ~
      2    -387.126610233611     -0.012843263178      0.01347682      0.00199298      0.17460623      0.03724147  ~
      3    -387.129215379845     -0.002605146234      0.00476698      0.00083782      0.22422678      0.04434041  ~
      4    -387.128585686387      0.000629693458      0.00895409      0.00165164      0.19176752      0.03785389  ~
      5    -387.130939788633     -0.002354102246      0.00207576      0.00054925      0.04981841      0.01109176  ~
      6    -387.131230525710     -0.000290737077      0.00089926      0.00022885      0.14836651      0.03327183  ~
      7    -387.131654913111     -0.000424387401      0.00110956      0.00022064      0.12066016      0.03167385  ~
      8    -387.131814392437     -0.000159479326      0.00057673      0.00013086      0.03744748      0.01228348  ~
      9    -387.131824334540     -0.000009942103      0.00031463      0.00007590      0.02626545      0.00831897  ~
     10    -387.131834092114     -0.000009757574      0.00023310      0.00004831      0.01020712      0.00407589  ~
     11    -387.131836251852     -0.000002159738      0.00010277      0.00002264      0.00663469      0.00200654  ~
     12    -387.131836857048     -0.000000605195      0.00005112      0.00001264      0.00280287      0.00110499  ~
  --------------------------------------------------------------------------------------------------------------- ~

	Writing optimization data to binary file.
	Final energy is   -387.1318368570475
	Final (previous) structure:
	Cartesian Geometry (in Angstrom)
	    O     2.0437592156  -0.3337797752  -1.4201540126
	    C     1.8945964470  -1.3235965340  -0.7703045539
	    C     0.5315875756  -1.9810817318  -0.6110684155
	    C     3.0660970834  -2.0234406508  -0.1167666482
	    C    -0.6681651631  -1.0210318574  -0.6014110070
	    H     0.4721226749  -2.6185119533  -1.4934906775
	    H     0.5279299386  -2.6253117725   0.2617993635
	    C    -0.5061000652   0.1991071173   0.3146450736
	    H    -1.5206276398  -1.5792787965  -0.2221054212
	    H    -0.8951304817  -0.6958058961  -1.6098269465
	    C    -1.7916492761   1.0219785998   0.4203155832
	    H    -0.2164689975  -0.1371772248   1.3107303227
	    H     0.2953517522   0.8303791850  -0.0485485396
	    C    -1.6484659912   2.2501874421   1.3209299345
	    H    -2.5979559543   0.3938812615   0.7965276589
	    H    -2.0944505277   1.3423192578  -0.5752746867
	    C    -2.9328274480   3.0727777530   1.4181934341
	    H    -1.3472747689   1.9330071213   2.3172985561
	    H    -0.8446057749   2.8790657187   0.9451361235
	    H    -3.7484169644   2.4806420447   1.8240244723
	    H    -2.7994050974   3.9366018268   2.0621907752
	    H    -3.2419608107   3.4334835696   0.4411976990
	    H     3.0760686794  -3.0786628122  -0.3737741527
	    H     3.9925334267  -1.5608658022  -0.4274676039
	    H     2.9740104882  -1.9570810339   0.9641240918
	Saving final (previous) structure.
			--------------------------
			 OPTKING Finished Execution 
			--------------------------

    Final optimized geometry and variables:
    Molecular point group: c1
    Full point group: C1

    Geometry (in Angstrom), charge = 0, multiplicity = 1:

    O            2.043759059486    -0.333779749670    -1.420153904122
    C            1.894596302313    -1.323596432962    -0.770304495032
    C            0.531587535036    -1.981081580516    -0.611068368822
    C            3.066096849263    -2.023440496281    -0.116766639250
    C           -0.668165112030    -1.021031779447    -0.601410961074
    H            0.472122638806    -2.618511753372    -1.493490563457
    H            0.527929898323    -2.625311571979     0.261799343523
    C           -0.506100026578     0.199107102104     0.314645049575
    H           -1.520627523720    -1.579278675905    -0.222105404210
    H           -0.895130413387    -0.695805842974    -1.609826823589
    C           -1.791649139310     1.021978521753     0.420315551078
    H           -0.216468980951    -0.137177214308     1.310730222590
    H            0.295351729615     0.830379121556    -0.048548535899
    C           -1.648465865298     2.250187270274     1.320929833673
    H           -2.597955755882     0.393881231437     0.796527598104
    H           -2.094450367748     1.342319155280    -0.575274642778
    C           -2.932827224081     3.072777518376     1.418193325814
    H           -1.347274666035     1.933006973716     2.317298379178
    H           -0.844605710397     2.879065498809     0.945136051357
    H           -3.748416678171     2.480641855302     1.824024333020
    H           -2.799404883672     3.936601526225     2.062190617722
    H           -3.241960563173     3.433483307385     0.441197665334
    H            3.076068444477    -3.078662577067    -0.373774124168
    H            3.992533121784    -1.560865682997    -0.427467571240
    H            2.974010261140    -1.957080884430     0.964124018180

	Cleaning optimization helper files.


Properties will be evaluated at   0.000000,   0.000000,   0.000000 Bohr

Properties computed using the  density matrix

  Nuclear Dipole Moment: (a.u.)
     X:    -7.4602      Y:     2.7889      Z:     5.7797

  Electronic Dipole Moment: (a.u.)
     X:     7.3055      Y:    -3.7228      Z:    -5.1956

  Dipole Moment: (a.u.)
     X:    -0.1547      Y:    -0.9338      Z:     0.5842     Total:     1.1123

  Dipole Moment: (Debye)
     X:    -0.3932      Y:    -2.3735      Z:     1.4848     Total:     2.8271

  Quadrupole Moment: (Debye Ang)
    XX:   -59.7596     YY:   -53.9180     ZZ:   -60.9503
    XY:    -4.1525     XZ:     3.9258     YZ:     1.1062

  Traceless Quadrupole Moment: (Debye Ang)
    XX:    -1.5503     YY:     4.2913     ZZ:    -2.7410
    XY:    -4.1525     XZ:     3.9258     YZ:     1.1062

  Mulliken Charges: (a.u.)
   Center  Symbol    Alpha    Beta     Spin     Total
       1     O     4.26550  4.26550  0.00000 -0.53100
       2     C     2.73403  2.73403  0.00000  0.53193
       3     C     3.21084  3.21084  0.00000 -0.42167
       4     C     3.28872  3.28872  0.00000 -0.57744
       5     C     3.14608  3.14608  0.00000 -0.29216
       6     H     0.40206  0.40206  0.00000  0.19587
       7     H     0.41291  0.41291  0.00000  0.17418
       8     C     3.16340  3.16340  0.00000 -0.32680
       9     H     0.42055  0.42055  0.00000  0.15890
      10     H     0.41083  0.41083  0.00000  0.17833
      11     C     3.15142  3.15142  0.00000 -0.30284
      12     H     0.42992  0.42992  0.00000  0.14016
      13     H     0.40197  0.40197  0.00000  0.19605
      14     C     3.15141  3.15141  0.00000 -0.30281
      15     H     0.42637  0.42637  0.00000  0.14726
      16     H     0.42236  0.42236  0.00000  0.15528
      17     C     3.23929  3.23929  0.00000 -0.47859
      18     H     0.42441  0.42441  0.00000  0.15118
      19     H     0.42077  0.42077  0.00000  0.15846
      20     H     0.42270  0.42270  0.00000  0.15460
      21     H     0.41963  0.41963  0.00000  0.16074
      22     H     0.42140  0.42140  0.00000  0.15719
      23     H     0.40944  0.40944  0.00000  0.18111
      24     H     0.39704  0.39704  0.00000  0.20591
      25     H     0.40693  0.40693  0.00000  0.18615

   Total alpha = 36.00000, Total beta = 36.00000, Total charge =  0.00000


*** PSI4 exiting successfully. Buy a developer a beer!
