    -----------------------------------------------------------------------
          Psi4: An Open-Source Ab Initio Electronic Structure Package
                              Psi4 (no tag) Driver

                          Git: Rev {detached?}  

    J. M. Turney, A. C. Simmonett, R. M. Parrish, E. G. Hohenstein,
    F. A. Evangelista, J. T. Fermann, B. J. Mintz, L. A. Burns, J. J. Wilke,
    M. L. Abrams, N. J. Russ, M. L. Leininger, C. L. Janssen, E. T. Seidl,
    W. D. Allen, H. F. Schaefer, R. A. King, E. F. Valeev, C. D. Sherrill,
    and T. D. Crawford, WIREs Comput. Mol. Sci. 2, 556-565 (2012)
    (doi: 10.1002/wcms.93)

                         Additional Contributions by
    A. E. DePrince, M. Saitow, U. Bozkaya, A. Yu. Sokolov
    -----------------------------------------------------------------------


    Psi4 started on: Fri Sep  9 20:40:19 2016

    Process ID:  25102
    PSI4DATADIR: /export131/home/mjharvey/miniconda3/share
    Memory level set to 256.000 MB

  ==> Input File <==

--------------------------------------------------------------------------
set {
	reference rhf
	basis cc-pvtz
}


set_num_threads( 4 )
memory 2 gb

molecule MOL {
0 1

H	 -0.366580	 2.045936	 -0.305741
C	 0.351829	 1.335402	 0.083179
N	 -0.000018	 0.000080	 -0.334836
H	 1.327156	 1.599860	 -0.305475
H	 0.380566	 1.445403	 1.171445
C	 1.044499	 -0.612617	 -1.119672
C	 -0.394590	 -0.828088	 0.779027
H	 0.719830	 -1.582689	 -1.474131
H	 1.266585	 0.001372	 -1.983317
H	 1.972081	 -0.751674	 -0.556355
H	 -1.224646	 -0.371790	 1.303414
H	 -0.717501	 -1.798037	 0.422581
H	 0.414500	 -0.984610	 1.498738

	symmetry c1
}
set optking {
	frozen_dihedral = ("
		6 3 2 1
	")
}

ee = optimize('scf')
oeprop('DIPOLE', 'QUADRUPOLE', 'MULLIKEN_CHARGES')
f=open( 'psi4out.xyz', 'w' )
f.write( "13  " )
f.write( str(ee) + "\n" )
f.write( MOL.save_string_xyz() )
f.close()
--------------------------------------------------------------------------

  Memory set to   2.000 GiB by Python script.
gradient() will perform analytic gradient computation.

*** tstart() called on cx1-27-1-2
*** at Fri Sep  9 20:40:19 2016


         ---------------------------------------------------------
                                   SCF
            by Justin Turney, Rob Parrish, and Andy Simmonett
                              RHF Reference
                        4 Threads,   2000 MiB Core
         ---------------------------------------------------------

  ==> Geometry <==

    Molecular point group: c1
    Full point group: C1

    Geometry (in Angstrom), charge = 0, multiplicity = 1:

       Center              X                  Y                   Z               Mass       
    ------------   -----------------  -----------------  -----------------  -----------------
           H         -0.634417712078     2.074067823552    -0.170164860590     1.007825032070
           C          0.083991287922     1.363533823552     0.218755139410    12.000000000000
           N         -0.267855712078     0.028211823552    -0.199259860590    14.003074004780
           H          1.059318287922     1.627991823552    -0.169898860590     1.007825032070
           H          0.112728287922     1.473534823552     1.307021139410     1.007825032070
           C          0.776661287922    -0.584485176448    -0.984095860590    12.000000000000
           C         -0.662427712078    -0.799956176448     0.914603139410    12.000000000000
           H          0.451992287922    -1.554557176448    -1.338554860590     1.007825032070
           H          0.998747287922     0.029503823552    -1.847740860590     1.007825032070
           H          1.704243287922    -0.723542176448    -0.420778860590     1.007825032070
           H         -1.492483712078    -0.343658176448     1.438990139410     1.007825032070
           H         -0.985338712078    -1.769905176448     0.558157139410     1.007825032070
           H          0.146662287922    -0.956478176448     1.634314139410     1.007825032070

  Running in c1 symmetry.

  Rotational constants: A =      0.29431  B =      0.29419  C =      0.16599 [cm^-1]
  Rotational constants: A =   8823.04278  B =   8819.49061  C =   4976.15140 [MHz]
  Nuclear repulsion =  139.519156792779938

  Charge       = 0
  Multiplicity = 1
  Electrons    = 34
  Nalpha       = 17
  Nbeta        = 17

  ==> Algorithm <==

  SCF Algorithm Type is DF.
  DIIS enabled.
  MOM disabled.
  Fractional occupation disabled.
  Guess Type is CORE.
  Energy threshold   = 1.00e-08
  Density threshold  = 1.00e-08
  Integral threshold = 0.00e+00

  ==> Primary Basis <==

  Basis Set: CC-PVTZ
    Number of shells: 94
    Number of basis function: 246
    Number of Cartesian functions: 275
    Spherical Harmonics?: true
    Max angular momentum: 3

  ==> Pre-Iterations <==

   -------------------------------------------------------
    Irrep   Nso     Nmo     Nalpha   Nbeta   Ndocc  Nsocc
   -------------------------------------------------------
     A        246     246       0       0       0       0
   -------------------------------------------------------
    Total     246     246      17      17      17       0
   -------------------------------------------------------

 OEINTS: Overlap, kinetic, potential, dipole, and quadrupole integrals
         stored in file 35.

  ==> Integral Setup <==

  ==> DFJK: Density-Fitted J/K Matrices <==

    J tasked:                  Yes
    K tasked:                  Yes
    wK tasked:                  No
    OpenMP threads:              4
    Integrals threads:           4
    Memory (MB):              1430
    Algorithm:                Core
    Integral Cache:           NONE
    Schwarz Cutoff:          1E-12
    Fitting Condition:       1E-12

   => Auxiliary Basis Set <=

  Basis Set: 
    Number of shells: 190
    Number of basis function: 586
    Number of Cartesian functions: 699
    Spherical Harmonics?: true
    Max angular momentum: 4

  Minimum eigenvalue in the overlap matrix is 9.8867023510E-04.
  Using Symmetric Orthogonalization.
  SCF Guess: Core (One-Electron) Hamiltonian.

  ==> Iterations <==

                           Total Energy        Delta E     RMS |[F,P]|

   @DF-RHF iter   1:  -121.93841726551972   -1.21938e+02   4.45552e-02 
   @DF-RHF iter   2:  -137.91073416943931   -1.59723e+01   2.00801e-02 DIIS
   @DF-RHF iter   3:  -157.87304828026032   -1.99623e+01   2.41230e-02 DIIS
   @DF-RHF iter   4:  -169.26033742716777   -1.13873e+01   1.17020e-02 DIIS
   @DF-RHF iter   5:  -172.60481880352273   -3.34448e+00   4.89924e-03 DIIS
   @DF-RHF iter   6:  -173.29707150064621   -6.92253e-01   1.02090e-03 DIIS
   @DF-RHF iter   7:  -173.32570418124487   -2.86327e-02   1.56516e-04 DIIS
   @DF-RHF iter   8:  -173.32687984164863   -1.17566e-03   2.53266e-05 DIIS
   @DF-RHF iter   9:  -173.32692256854426   -4.27269e-05   7.48258e-06 DIIS
   @DF-RHF iter  10:  -173.32692601301278   -3.44447e-06   2.04975e-06 DIIS
   @DF-RHF iter  11:  -173.32692631190690   -2.98894e-07   5.75531e-07 DIIS
   @DF-RHF iter  12:  -173.32692633293362   -2.10267e-08   1.85903e-07 DIIS
   @DF-RHF iter  13:  -173.32692633527398   -2.34036e-09   4.43069e-08 DIIS
   @DF-RHF iter  14:  -173.32692633547532   -2.01339e-10   7.74285e-09 DIIS

  ==> Post-Iterations <==

    Orbital Energies (a.u.)
    -----------------------

    Doubly Occupied:                                                      

       1A    -15.535858     2A    -11.234090     3A    -11.233839  
       4A    -11.232316     5A     -1.226187     6A     -0.952555  
       7A     -0.951137     8A     -0.807113     9A     -0.641132  
      10A     -0.630401    11A     -0.628807    12A     -0.550762  
      13A     -0.549014    14A     -0.513874    15A     -0.499959  
      16A     -0.497956    17A     -0.345538  

    Virtual:                                                              

      18A      0.138213    19A      0.180070    20A      0.182436  
      21A      0.207725    22A      0.214746    23A      0.226006  
      24A      0.226515    25A      0.238100    26A      0.258196  
      27A      0.271816    28A      0.331141    29A      0.349329  
      30A      0.387272    31A      0.400463    32A      0.420816  
      33A      0.446725    34A      0.500595    35A      0.527300  
      36A      0.529962    37A      0.573600    38A      0.587248  
      39A      0.603808    40A      0.612154    41A      0.626312  
      42A      0.627226    43A      0.645411    44A      0.660356  
      45A      0.664320    46A      0.682037    47A      0.686111  
      48A      0.710900    49A      0.748683    50A      0.757193  
      51A      0.791848    52A      0.802056    53A      0.824061  
      54A      0.839536    55A      0.909772    56A      0.968719  
      57A      0.989127    58A      1.027147    59A      1.064139  
      60A      1.114210    61A      1.125326    62A      1.137603  
      63A      1.163044    64A      1.176967    65A      1.192693  
      66A      1.195669    67A      1.211516    68A      1.226359  
      69A      1.260807    70A      1.270233    71A      1.300572  
      72A      1.314376    73A      1.336499    74A      1.360096  
      75A      1.369780    76A      1.395477    77A      1.432994  
      78A      1.445958    79A      1.458319    80A      1.482437  
      81A      1.495864    82A      1.517675    83A      1.532649  
      84A      1.544663    85A      1.567796    86A      1.577309  
      87A      1.595902    88A      1.614454    89A      1.642177  
      90A      1.657325    91A      1.688985    92A      1.697039  
      93A      1.787361    94A      1.801301    95A      1.811441  
      96A      1.854380    97A      2.006037    98A      2.038663  
      99A      2.081933   100A      2.179046   101A      2.190289  
     102A      2.473025   103A      2.519589   104A      2.550263  
     105A      2.557107   106A      2.597729   107A      2.632093  
     108A      2.654194   109A      2.771132   110A      2.804835  
     111A      2.932434   112A      2.976771   113A      3.006178  
     114A      3.008748   115A      3.033310   116A      3.042413  
     117A      3.071363   118A      3.093603   119A      3.096662  
     120A      3.120149   121A      3.131611   122A      3.148401  
     123A      3.150632   124A      3.170908   125A      3.180835  
     126A      3.224782   127A      3.242445   128A      3.261950  
     129A      3.269659   130A      3.296769   131A      3.343604  
     132A      3.357673   133A      3.370318   134A      3.372242  
     135A      3.399461   136A      3.409477   137A      3.462270  
     138A      3.471936   139A      3.477055   140A      3.529457  
     141A      3.535279   142A      3.560555   143A      3.594554  
     144A      3.613331   145A      3.632018   146A      3.645551  
     147A      3.661001   148A      3.688601   149A      3.703710  
     150A      3.729380   151A      3.761068   152A      3.774495  
     153A      3.810590   154A      3.836110   155A      3.840099  
     156A      3.844058   157A      3.858070   158A      3.899201  
     159A      3.903043   160A      3.923587   161A      3.963069  
     162A      3.968602   163A      3.996078   164A      4.032507  
     165A      4.045904   166A      4.061147   167A      4.092441  
     168A      4.116306   169A      4.134548   170A      4.143488  
     171A      4.226623   172A      4.245588   173A      4.262317  
     174A      4.275662   175A      4.292014   176A      4.315472  
     177A      4.330909   178A      4.350336   179A      4.403059  
     180A      4.414085   181A      4.433207   182A      4.444471  
     183A      4.475160   184A      4.493542   185A      4.549486  
     186A      4.563899   187A      4.569105   188A      4.588609  
     189A      4.609249   190A      4.629508   191A      4.676362  
     192A      4.702619   193A      4.764632   194A      4.792489  
     195A      4.854149   196A      4.900990   197A      4.932306  
     198A      4.965492   199A      5.033633   200A      5.079213  
     201A      5.098326   202A      5.106793   203A      5.196676  
     204A      5.214464   205A      5.287835   206A      5.316689  
     207A      5.352581   208A      5.386556   209A      5.389623  
     210A      5.431591   211A      5.463615   212A      5.481969  
     213A      5.489247   214A      5.527731   215A      5.558492  
     216A      5.571980   217A      5.598985   218A      5.607408  
     219A      5.629942   220A      5.655360   221A      5.671121  
     222A      5.735652   223A      5.757440   224A      5.783908  
     225A      5.790247   226A      5.865376   227A      5.894020  
     228A      5.959697   229A      5.982695   230A      6.008063  
     231A      6.081396   232A      6.088541   233A      6.209693  
     234A      6.218697   235A      6.280960   236A      6.284954  
     237A      6.328360   238A      6.344859   239A      6.350125  
     240A      6.410113   241A      6.418272   242A      6.464412  
     243A     10.984890   244A     14.353083   245A     14.437343  
     246A     14.573783  

    Final Occupation by Irrep:
              A 
    DOCC [    17 ]

  Energy converged.

  @DF-RHF Final Energy:  -173.32692633547532

   => Energetics <=

    Nuclear Repulsion Energy =            139.5191567927799383
    One-Electron Energy =                -509.6310995900574881
    Two-Electron Energy =                 196.7850164618023996
    DFT Exchange-Correlation Energy =       0.0000000000000000
    Empirical Dispersion Energy =           0.0000000000000000
    PCM Polarization Energy =               0.0000000000000000
    EFP Energy =                            0.0000000000000000
    Total Energy =                       -173.3269263354751502

    Alert: EFP and PCM quantities not currently incorporated into SCF psivars.

Properties will be evaluated at   0.000000,   0.000000,   0.000000 Bohr
  ==> Properties <==


Properties computed using the SCF density matrix

  Nuclear Dipole Moment: (a.u.)
     X:     1.2771      Y:    -0.1342      Z:     0.9299

  Electronic Dipole Moment: (a.u.)
     X:    -1.0468      Y:     0.1164      Z:    -0.7664

  Dipole Moment: (a.u.)
     X:     0.2303      Y:    -0.0178      Z:     0.1635     Total:     0.2830

  Dipole Moment: (Debye)
     X:     0.5854      Y:    -0.0453      Z:     0.4155     Total:     0.7193


  Saving occupied orbitals to File 180.

*** tstop() called on cx1-27-1-2 at Fri Sep  9 20:40:26 2016
Module time:
	user time   =      18.60 seconds =       0.31 minutes
	system time =       0.32 seconds =       0.01 minutes
	total time  =          7 seconds =       0.12 minutes
Total time:
	user time   =      18.60 seconds =       0.31 minutes
	system time =       0.32 seconds =       0.01 minutes
	total time  =          7 seconds =       0.12 minutes

*** tstart() called on cx1-27-1-2
*** at Fri Sep  9 20:40:26 2016


         ------------------------------------------------------------
                                   SCF GRAD                          
                          Rob Parrish, Justin Turney,                
                       Andy Simmonett, and Alex Sokolov              
         ------------------------------------------------------------

  ==> Geometry <==

    Molecular point group: c1
    Full point group: C1

    Geometry (in Angstrom), charge = 0, multiplicity = 1:

       Center              X                  Y                   Z               Mass       
    ------------   -----------------  -----------------  -----------------  -----------------
           H         -0.634417712078     2.074067823552    -0.170164860590     1.007825032070
           C          0.083991287922     1.363533823552     0.218755139410    12.000000000000
           N         -0.267855712078     0.028211823552    -0.199259860590    14.003074004780
           H          1.059318287922     1.627991823552    -0.169898860590     1.007825032070
           H          0.112728287922     1.473534823552     1.307021139410     1.007825032070
           C          0.776661287922    -0.584485176448    -0.984095860590    12.000000000000
           C         -0.662427712078    -0.799956176448     0.914603139410    12.000000000000
           H          0.451992287922    -1.554557176448    -1.338554860590     1.007825032070
           H          0.998747287922     0.029503823552    -1.847740860590     1.007825032070
           H          1.704243287922    -0.723542176448    -0.420778860590     1.007825032070
           H         -1.492483712078    -0.343658176448     1.438990139410     1.007825032070
           H         -0.985338712078    -1.769905176448     0.558157139410     1.007825032070
           H          0.146662287922    -0.956478176448     1.634314139410     1.007825032070

  Nuclear repulsion =  139.519156792779938

  ==> Basis Set <==

  Basis Set: CC-PVTZ
    Number of shells: 94
    Number of basis function: 246
    Number of Cartesian functions: 275
    Spherical Harmonics?: true
    Max angular momentum: 3

  ==> DFJKGrad: Density-Fitted SCF Gradients <==

    Gradient:                    1
    J tasked:                  Yes
    K tasked:                  Yes
    wK tasked:                  No
    OpenMP threads:              4
    Integrals threads:           4
    Memory (MB):              1430
    Schwarz Cutoff:          0E+00
    Fitting Condition:       1E-12

   => Auxiliary Basis Set <=

  Basis Set: 
    Number of shells: 190
    Number of basis function: 586
    Number of Cartesian functions: 699
    Spherical Harmonics?: true
    Max angular momentum: 4


  -Total Gradient:
     Atom            X                  Y                   Z
    ------   -----------------  -----------------  -----------------
       1       -0.000055898849    -0.003622004102    -0.001508501580
       2        0.000689554253    -0.008819087609    -0.001486999435
       3       -0.002189544706     0.008891586363    -0.003387466705
       4       -0.000555186444    -0.003789374875    -0.002163905245
       5       -0.000947558549     0.001368653367     0.006040640705
       6        0.000699228748     0.002251532706     0.000756798414
       7        0.001715244422     0.002120342229     0.001263639818
       8       -0.000077408709     0.000127577519     0.000400629373
       9        0.000223543224     0.000568708431     0.000163218219
      10       -0.000208440953     0.000254619838     0.000174467556
      11        0.000184357720     0.000318416517     0.000073066658
      12        0.000487293543     0.000258000658    -0.000302223507
      13        0.000034816302     0.000071028959    -0.000023364271


*** tstop() called on cx1-27-1-2 at Fri Sep  9 20:40:36 2016
Module time:
	user time   =      37.87 seconds =       0.63 minutes
	system time =       0.39 seconds =       0.01 minutes
	total time  =         10 seconds =       0.17 minutes
Total time:
	user time   =      56.49 seconds =       0.94 minutes
	system time =       0.71 seconds =       0.01 minutes
	total time  =         17 seconds =       0.28 minutes
CURRENT ENERGY: -173.3269263355

			-----------------------------------------
			 OPTKING 2.0: for geometry optimizations 
			  - R.A. King,  Bethel University        
			-----------------------------------------

	Internal coordinates to be generated automatically.
	Detected frag with atoms:  1 2 3 4 5 6 7 8 9 10 11 12 13
	---Fragment 1 Bond Connectivity---
	 1 : 2
	 2 : 1 3 4 5
	 3 : 2 6 7
	 4 : 2
	 5 : 2
	 6 : 3 8 9 10
	 7 : 3 11 12 13
	 8 : 6
	 9 : 6
	 10 : 6
	 11 : 7
	 12 : 7
	 13 : 7

	Assuming in current code that numbering for constraints corresponds to unified fragment.
	Frozen dihedral atom list: 
	     6     3     2     1
	---Fragment 1 Geometry and Gradient---
	 H          -1.1988757297        3.9194201675       -0.3215649840
	 C           0.1587205317        2.5767054994        0.4133873036
	 N          -0.5061739390        0.0533126202       -0.3765465658
	 H           2.0018214517        3.0764586931       -0.3210623168
	 H           0.2130255916        2.7845772638        2.4699120034
	 C           1.4676771322       -1.1045169122       -1.8596716650
	 C          -1.2518069587       -1.5116980918        1.7283494538
	 H           0.8541416383       -2.9376873214       -2.5295021004
	 H           1.8873588501        0.0557541464       -3.4917241911
	 H           3.2205530780       -1.3672965591       -0.7951568090
	 H          -2.8203854736       -0.6494198368        2.7192972714
	 H          -1.8620203140       -3.3446360647        1.0547641326
	 H           0.2771515582       -1.8074818056        3.0884061386
	            -0.0000558988       -0.0036220041       -0.0015085016
	             0.0006895543       -0.0088190876       -0.0014869994
	            -0.0021895447        0.0088915864       -0.0033874667
	            -0.0005551864       -0.0037893749       -0.0021639052
	            -0.0009475585        0.0013686534        0.0060406407
	             0.0006992287        0.0022515327        0.0007567984
	             0.0017152444        0.0021203422        0.0012636398
	            -0.0000774087        0.0001275775        0.0004006294
	             0.0002235432        0.0005687084        0.0001632182
	            -0.0002084410        0.0002546198        0.0001744676
	             0.0001843577        0.0003184165        0.0000730667
	             0.0004872935        0.0002580007       -0.0003022235
	             0.0000348163        0.0000710290       -0.0000233643

	Previous optimization step data not found.  Starting new optimization.

	---Fragment 1 Intrafragment Coordinates---
	 - Coordinate -           - BOHR/RAD -       - ANG/DEG -
	 R(1,2)           =         2.045997	       1.082695
	 R(2,3)           =         2.726461	       1.442781
	 R(2,4)           =         2.046018	       1.082706
	 R(2,5)           =         2.067717	       1.094189
	 R(3,6)           =         2.726961	       1.443046
	 R(3,7)           =         2.726869	       1.442997
	 R(6,8)           =         2.045877	       1.082632
	 R(6,9)           =         2.045961	       1.082676
	 R(6,10)          =         2.067564	       1.094108
	 R(7,11)          =         2.045957	       1.082674
	 R(7,12)          =         2.045908	       1.082648
	 R(7,13)          =         2.067597	       1.094125
	 B(1,2,3)         =         1.919304	     109.968005
	 B(1,2,4)         =         1.884399	     107.968122
	 B(1,2,5)         =         1.884645	     107.982195
	 B(2,3,6)         =         1.954137	     111.963799
	 B(2,3,7)         =         1.954346	     111.975788
	 B(3,2,4)         =         1.919567	     109.983092
	 B(3,2,5)         =         1.968833	     112.805833
	 B(3,6,8)         =         1.919247	     109.964746
	 B(3,6,9)         =         1.919350	     109.970638
	 B(3,6,10)        =         1.968825	     112.805339
	 B(3,7,11)        =         1.919443	     109.975976
	 B(3,7,12)        =         1.919410	     109.974119
	 B(3,7,13)        =         1.968886	     112.808846
	 B(4,2,5)         =         1.884736	     107.987417
	 B(6,3,7)         =         1.954185	     111.966578
	 B(8,6,9)         =         1.884400	     107.968154
	 B(8,6,10)        =         1.884866	     107.994877
	 B(9,6,10)        =         1.884806	     107.991456
	 B(11,7,12)       =         1.884284	     107.961538
	 B(11,7,13)       =         1.884554	     107.977018
	 B(12,7,13)       =         1.884900	     107.996799
	*D(1,2,3,6)       =         2.094395	     120.000009
	 D(1,2,3,7)       =        -1.977384	    -113.295783
	 D(2,3,6,8)       =        -3.072080	    -176.017232
	 D(2,3,6,9)       =        -0.999236	     -57.251998
	 D(2,3,6,10)      =         1.105933	      63.365276
	 D(2,3,7,11)      =         0.999498	      57.267016
	 D(2,3,7,12)      =         3.072358	     176.033157
	 D(2,3,7,13)      =        -1.105456	     -63.337949
	 D(4,2,3,6)       =         0.021383	       1.225165
	 D(4,2,3,7)       =         2.232789	     127.929374
	 D(5,2,3,6)       =        -2.083854	    -119.396052
	 D(5,2,3,7)       =         0.127551	       7.308157
	 D(6,3,7,11)      =        -3.072308	    -176.030278
	 D(6,3,7,12)      =        -0.999448	     -57.264138
	 D(6,3,7,13)      =         1.105924	      63.364756
	 D(7,3,6,8)       =         0.999612	      57.273576
	 D(7,3,6,9)       =         3.072457	     176.038809
	 D(7,3,6,10)      =        -1.105560	     -63.343916

	Current energy   :      -173.3269263355

	Generating empirical Hessian (Schlegel '84) for each fragment.
	Taking RFO optimization step.
	Going to follow RFO solution 1.
	Using RFO vector 1.
	Norm of target step-size    0.19502
	Projected energy change by RFO approximation:        -0.0018269233

	Back-transformation to cartesian coordinates...
	Successfully converged to displaced geometry.

	Back-transformation to cartesian coordinates to adjust frozen coordinates...
	Successfully converged to displaced geometry.

	--- Internal Coordinate Step in ANG or DEG, aJ/ANG or AJ/DEG ---
	 ---------------------------------------------------------------------------
	   Coordinate                Previous        Force       Change         New 
	   ----------                --------       ------       ------       ------
	    1 R(1,2)          =      1.082695     0.014813     0.002652     1.085347
	    2 R(2,3)          =      1.442781     0.112965     0.018411     1.461192
	    3 R(2,4)          =      1.082706     0.005346     0.000957     1.083664
	    4 R(2,5)          =      1.094189    -0.050426    -0.009378     1.084811
	    5 R(3,6)          =      1.443046     0.014103     0.002301     1.445346
	    6 R(3,7)          =      1.442997     0.012113     0.001976     1.444973
	    7 R(6,8)          =      1.082632     0.001831     0.000328     1.082959
	    8 R(6,9)          =      1.082676    -0.001962    -0.000351     1.082325
	    9 R(6,10)         =      1.094108     0.000982     0.000183     1.094290
	   10 R(7,11)         =      1.082674    -0.000233    -0.000042     1.082632
	   11 R(7,12)         =      1.082648     0.002282     0.000408     1.083056
	   12 R(7,13)         =      1.094125    -0.000002    -0.000000     1.094125
	   13 B(1,2,3)        =    109.968005     0.000345     1.793094   111.761099
	   14 B(1,2,4)        =    107.968122    -0.000293    -0.790037   107.178085
	   15 B(1,2,5)        =    107.982195    -0.000066    -0.478706   107.503488
	   16 B(2,3,6)        =    111.963799     0.000189     2.010922   113.974721
	   17 B(2,3,7)        =    111.975788     0.000134     1.775652   113.751440
	   18 B(3,2,4)        =    109.983092     0.000410     1.972640   111.955731
	   19 B(3,2,5)        =    112.805833    -0.000214    -1.290897   111.514936
	   20 B(3,6,8)        =    109.964746     0.000010    -0.003098   109.961648
	   21 B(3,6,9)        =    109.970638     0.000017     0.069648   110.040286
	   22 B(3,6,10)       =    112.805339     0.000038     0.234285   113.039624
	   23 B(3,7,11)       =    109.975976     0.000009     0.014021   109.989997
	   24 B(3,7,12)       =    109.974119     0.000041     0.184455   110.158574
	   25 B(3,7,13)       =    112.808846     0.000004     0.052062   112.860908
	   26 B(4,2,5)        =    107.987417    -0.000207    -1.351984   106.635433
	   27 B(6,3,7)        =    111.966578    -0.000161     0.376861   112.343439
	   28 B(8,6,9)        =    107.968154    -0.000041    -0.309761   107.658393
	   29 B(8,6,10)       =    107.994877    -0.000020    -0.076818   107.918059
	   30 B(9,6,10)       =    107.991456    -0.000007     0.058392   108.049849
	   31 B(11,7,12)      =    107.961538    -0.000042    -0.266006   107.695532
	   32 B(11,7,13)      =    107.977018    -0.000002     0.006392   107.983409
	   33 B(12,7,13)      =    107.996799    -0.000013    -0.010542   107.986257
	   34 *D(1,2,3,6)     =    120.000009    -0.000000    -0.000000   120.000009
	   35 D(1,2,3,7)      =   -113.295783     0.000010     3.855383  -109.440400
	   36 D(2,3,6,8)      =   -176.017232     0.000025     2.029674  -173.987558
	   37 D(2,3,6,9)      =    -57.251998     0.000018     1.690110   -55.561888
	   38 D(2,3,6,10)     =     63.365276     0.000024     1.972362    65.337639
	   39 D(2,3,7,11)     =     57.267016    -0.000025    -2.391403    54.875613
	   40 D(2,3,7,12)     =    176.033157    -0.000030    -2.596438   173.436718
	   41 D(2,3,7,13)     =    -63.337949    -0.000026    -2.444424   -65.782373
	   42 D(4,2,3,6)      =      1.225165    -0.000024    -1.476485    -0.251320
	   43 D(4,2,3,7)      =    127.929374    -0.000014     2.378898   130.308272
	   44 D(5,2,3,6)      =   -119.396052     0.000003    -0.242099  -119.638152
	   45 D(5,2,3,7)      =      7.308157     0.000013     3.613283    10.921440
	   46 D(6,3,7,11)     =   -176.030278     0.000028     2.269329  -173.760950
	   47 D(6,3,7,12)     =    -57.264138     0.000024     2.064294   -55.199844
	   48 D(6,3,7,13)     =     63.364756     0.000027     2.216308    65.581064
	   49 D(7,3,6,8)      =     57.273576    -0.000021    -2.512170    54.761406
	   50 D(7,3,6,9)      =    176.038809    -0.000029    -2.851733   173.187077
	   51 D(7,3,6,10)     =    -63.343916    -0.000023    -2.569481   -65.913397
	 ---------------------------------------------------------------------------

  ==> Convergence Check <==

  Measures of convergence in internal coordinates in au.
  Criteria marked as inactive (o), active & met (*), and active & unmet ( ).
  --------------------------------------------------------------------------------------------- ~
   Step     Total Energy     Delta E     MAX Force     RMS Force      MAX Disp      RMS Disp    ~
  --------------------------------------------------------------------------------------------- ~
    Convergence Criteria    1.00e-06 *    3.00e-04 *             o    1.20e-03 *             o  ~
  --------------------------------------------------------------------------------------------- ~
      1    -173.32692634   -1.73e+02      1.37e-02      2.65e-03 o    6.73e-02      2.73e-02 o  ~
  ---------------------------------------------------------------------------------------------

	Writing optimization data to binary file.
	Structure for next step:
	Cartesian Geometry (in Angstrom)
	    H    -0.6531056339   2.1014264231  -0.1501635225
	    C     0.0843312635   1.3947493599   0.2169514007
	    N    -0.2338754591   0.0248044396  -0.1793783844
	    H     1.0485653380   1.7125592446  -0.1619630667
	    H     0.1255794936   1.4973093025   1.2961153059
	    C     0.7867261770  -0.6053753240  -0.9857728587
	    C    -0.6633323272  -0.8132659646   0.9165916919
	    H     0.4414113238  -1.5724659122  -1.3297122410
	    H     0.9946986940  -0.0012817045  -1.8594119881
	    H     1.7266865791  -0.7559414492  -0.4460734332
	    H    -1.5001349825  -0.3542649126   1.4276414684
	    H    -0.9927383837  -1.7753558024   0.5439175966
	    H     0.1270087590  -0.9886360045   1.6526049154
			--------------------------
			 OPTKING Finished Execution 
			--------------------------

    Structure for next step:
    Molecular point group: c1
    Full point group: C1

    Geometry (in Angstrom), charge = 0, multiplicity = 1:

    H           -0.662348481714     2.102731159919    -0.154259466777
    C            0.075088359388     1.396054150646     0.212855428450
    N           -0.243118338906     0.026109334921    -0.183474326359
    H            1.039322360242     1.713864011072    -0.166059010045
    H            0.116336586332     1.498614085376     1.292019251225
    C            0.777483219195    -0.604070380479    -0.989868739152
    C           -0.672575174274    -0.811961005203     0.912495666199
    H            0.432168392387    -1.571160894852    -1.333808095133
    H            0.985455720330     0.000023192858    -1.863507801820
    H            1.717443549537    -0.754636494241    -0.450169354831
    H           -1.509377765593    -0.352959988282     1.423545403707
    H           -1.001981205544    -1.774050769623     0.539821599317
    H            0.117765851638    -0.987331031752     1.648508833462

gradient() will perform analytic gradient computation.

*** tstart() called on cx1-27-1-2
*** at Fri Sep  9 20:40:36 2016


         ---------------------------------------------------------
                                   SCF
            by Justin Turney, Rob Parrish, and Andy Simmonett
                              RHF Reference
                        4 Threads,   2000 MiB Core
         ---------------------------------------------------------

  ==> Geometry <==

    Molecular point group: c1
    Full point group: C1

    Geometry (in Angstrom), charge = 0, multiplicity = 1:

       Center              X                  Y                   Z               Mass       
    ------------   -----------------  -----------------  -----------------  -----------------
           H         -0.662348481714     2.102731159919    -0.154259466777     1.007825032070
           C          0.075088359388     1.396054150646     0.212855428450    12.000000000000
           N         -0.243118338906     0.026109334921    -0.183474326359    14.003074004780
           H          1.039322360242     1.713864011072    -0.166059010045     1.007825032070
           H          0.116336586332     1.498614085376     1.292019251225     1.007825032070
           C          0.777483219195    -0.604070380479    -0.989868739152    12.000000000000
           C         -0.672575174274    -0.811961005203     0.912495666199    12.000000000000
           H          0.432168392387    -1.571160894852    -1.333808095133     1.007825032070
           H          0.985455720330     0.000023192858    -1.863507801820     1.007825032070
           H          1.717443549537    -0.754636494241    -0.450169354831     1.007825032070
           H         -1.509377765593    -0.352959988282     1.423545403707     1.007825032070
           H         -1.001981205544    -1.774050769623     0.539821599317     1.007825032070
           H          0.117765851638    -0.987331031752     1.648508833462     1.007825032070

  Running in c1 symmetry.

  Rotational constants: A =      0.29412  B =      0.28453  C =      0.16184 [cm^-1]
  Rotational constants: A =   8817.42542  B =   8529.96236  C =   4851.81873 [MHz]
  Nuclear repulsion =  138.584236805426031

  Charge       = 0
  Multiplicity = 1
  Electrons    = 34
  Nalpha       = 17
  Nbeta        = 17

  ==> Algorithm <==

  SCF Algorithm Type is DF.
  DIIS enabled.
  MOM disabled.
  Fractional occupation disabled.
  Guess Type is READ.
  Energy threshold   = 1.00e-08
  Density threshold  = 1.00e-08
  Integral threshold = 0.00e+00

  ==> Primary Basis <==

  Basis Set: CC-PVTZ
    Number of shells: 94
    Number of basis function: 246
    Number of Cartesian functions: 275
    Spherical Harmonics?: true
    Max angular momentum: 3

  ==> Pre-Iterations <==

   -------------------------------------------------------
    Irrep   Nso     Nmo     Nalpha   Nbeta   Ndocc  Nsocc
   -------------------------------------------------------
     A        246     246       0       0       0       0
   -------------------------------------------------------
    Total     246     246      17      17      17       0
   -------------------------------------------------------

 OEINTS: Overlap, kinetic, potential, dipole, and quadrupole integrals
         stored in file 35.

  ==> Integral Setup <==

  ==> DFJK: Density-Fitted J/K Matrices <==

    J tasked:                  Yes
    K tasked:                  Yes
    wK tasked:                  No
    OpenMP threads:              4
    Integrals threads:           4
    Memory (MB):              1430
    Algorithm:                Core
    Integral Cache:           NONE
    Schwarz Cutoff:          1E-12
    Fitting Condition:       1E-12

   => Auxiliary Basis Set <=

  Basis Set: 
    Number of shells: 190
    Number of basis function: 586
    Number of Cartesian functions: 699
    Spherical Harmonics?: true
    Max angular momentum: 4

  Minimum eigenvalue in the overlap matrix is 1.0293325432E-03.
  Using Symmetric Orthogonalization.
  SCF Guess: Reading in previously saved MOs, projecting if necessary.

  Using orbitals from previous SCF, no projection.
  Recomputing DOCC and SOCC from number of alpha and beta electrons from previous calculation.
              A 
    DOCC [    17 ]

  ==> Iterations <==

                           Total Energy        Delta E     RMS |[F,P]|

   @DF-RHF iter   0:  -173.32044981079190   -1.73320e+02   3.53595e-04 
   @DF-RHF iter   1:  -173.32741371044796   -6.96390e-03   5.04193e-05 
   @DF-RHF iter   2:  -173.32753958263629   -1.25872e-04   1.78146e-05 DIIS
   @DF-RHF iter   3:  -173.32755606829505   -1.64857e-05   8.98813e-06 DIIS
   @DF-RHF iter   4:  -173.32755890534150   -2.83705e-06   1.21678e-06 DIIS
   @DF-RHF iter   5:  -173.32755900597311   -1.00632e-07   3.35013e-07 DIIS
   @DF-RHF iter   6:  -173.32755901538172   -9.40861e-09   8.23861e-08 DIIS
   @DF-RHF iter   7:  -173.32755901601513   -6.33406e-10   2.62020e-08 DIIS
   @DF-RHF iter   8:  -173.32755901606896   -5.38307e-11   6.86941e-09 DIIS

  ==> Post-Iterations <==

    Orbital Energies (a.u.)
    -----------------------

    Doubly Occupied:                                                      

       1A    -15.535840     2A    -11.234541     3A    -11.234103  
       4A    -11.233976     5A     -1.217604     6A     -0.951673  
       7A     -0.950491     8A     -0.807039     9A     -0.637147  
      10A     -0.628463    11A     -0.626093    12A     -0.549576  
      13A     -0.546743    14A     -0.514446    15A     -0.502541  
      16A     -0.499816    17A     -0.341116  

    Virtual:                                                              

      18A      0.137265    19A      0.180341    20A      0.181552  
      21A      0.208524    22A      0.214750    23A      0.225678  
      24A      0.227458    25A      0.238455    26A      0.256810  
      27A      0.271034    28A      0.330984    29A      0.350247  
      30A      0.388698    31A      0.401541    32A      0.421197  
      33A      0.444385    34A      0.493955    35A      0.525687  
      36A      0.527240    37A      0.572408    38A      0.581272  
      39A      0.605844    40A      0.614300    41A      0.625541  
      42A      0.630185    43A      0.648655    44A      0.659282  
      45A      0.662394    46A      0.682182    47A      0.685970  
      48A      0.713041    49A      0.745734    50A      0.754023  
      51A      0.786810    52A      0.797315    53A      0.818760  
      54A      0.843465    55A      0.911518    56A      0.975501  
      57A      1.001437    58A      1.027428    59A      1.060298  
      60A      1.109072    61A      1.120204    62A      1.134617  
      63A      1.155926    64A      1.173685    65A      1.191264  
      66A      1.196948    67A      1.211112    68A      1.223040  
      69A      1.248948    70A      1.263706    71A      1.296229  
      72A      1.310452    73A      1.337954    74A      1.349042  
      75A      1.375345    76A      1.402361    77A      1.436177  
      78A      1.445406    79A      1.459811    80A      1.475124  
      81A      1.495071    82A      1.522659    83A      1.533042  
      84A      1.540262    85A      1.563665    86A      1.570652  
      87A      1.597029    88A      1.613041    89A      1.637195  
      90A      1.651711    91A      1.678507    92A      1.692242  
      93A      1.785669    94A      1.803195    95A      1.811272  
      96A      1.850234    97A      2.008244    98A      2.049145  
      99A      2.079944   100A      2.179871   101A      2.186408  
     102A      2.482571   103A      2.506441   104A      2.533037  
     105A      2.551150   106A      2.585834   107A      2.613832  
     108A      2.644177   109A      2.770061   110A      2.795427  
     111A      2.926094   112A      2.972310   113A      3.000657  
     114A      3.004322   115A      3.035520   116A      3.041704  
     117A      3.066694   118A      3.085439   119A      3.102539  
     120A      3.119882   121A      3.130729   122A      3.150703  
     123A      3.154943   124A      3.167776   125A      3.177072  
     126A      3.226800   127A      3.244138   128A      3.258196  
     129A      3.265028   130A      3.287976   131A      3.346005  
     132A      3.357270   133A      3.369027   134A      3.371519  
     135A      3.395421   136A      3.404555   137A      3.456955  
     138A      3.463928   139A      3.477978   140A      3.519066  
     141A      3.538691   142A      3.553917   143A      3.591386  
     144A      3.629061   145A      3.632303   146A      3.650023  
     147A      3.653086   148A      3.689087   149A      3.700923  
     150A      3.729688   151A      3.757185   152A      3.770738  
     153A      3.818503   154A      3.822810   155A      3.833211  
     156A      3.847245   157A      3.850577   158A      3.899736  
     159A      3.900632   160A      3.909627   161A      3.932183  
     162A      3.969679   163A      3.988278   164A      4.020188  
     165A      4.037595   166A      4.046024   167A      4.093183  
     168A      4.108543   169A      4.128233   170A      4.133135  
     171A      4.215396   172A      4.238777   173A      4.252197  
     174A      4.257816   175A      4.288378   176A      4.309997  
     177A      4.334165   178A      4.349682   179A      4.374148  
     180A      4.403981   181A      4.433883   182A      4.440845  
     183A      4.467166   184A      4.492652   185A      4.539988  
     186A      4.558425   187A      4.579137   188A      4.582827  
     189A      4.610382   190A      4.631447   191A      4.659530  
     192A      4.690883   193A      4.749861   194A      4.806028  
     195A      4.849440   196A      4.906280   197A      4.919014  
     198A      4.952627   199A      5.013966   200A      5.068849  
     201A      5.089780   202A      5.098194   203A      5.187357  
     204A      5.190129   205A      5.285679   206A      5.297059  
     207A      5.352960   208A      5.372189   209A      5.385905  
     210A      5.437221   211A      5.444884   212A      5.472179  
     213A      5.484089   214A      5.498290   215A      5.546206  
     216A      5.567197   217A      5.595099   218A      5.608336  
     219A      5.627815   220A      5.655479   221A      5.679985  
     222A      5.727078   223A      5.745619   224A      5.771212  
     225A      5.775870   226A      5.886212   227A      5.887620  
     228A      5.942789   229A      5.975959   230A      5.993934  
     231A      6.065454   232A      6.081961   233A      6.205026  
     234A      6.219709   235A      6.263330   236A      6.293950  
     237A      6.331588   238A      6.340245   239A      6.349622  
     240A      6.389947   241A      6.394277   242A      6.463524  
     243A     10.814067   244A     14.229289   245A     14.394152  
     246A     14.536066  

    Final Occupation by Irrep:
              A 
    DOCC [    17 ]

  Energy converged.

  @DF-RHF Final Energy:  -173.32755901606896

   => Energetics <=

    Nuclear Repulsion Energy =            138.5842368054260305
    One-Electron Energy =                -507.8011746894122780
    Two-Electron Energy =                 195.8893788679172587
    DFT Exchange-Correlation Energy =       0.0000000000000000
    Empirical Dispersion Energy =           0.0000000000000000
    PCM Polarization Energy =               0.0000000000000000
    EFP Energy =                            0.0000000000000000
    Total Energy =                       -173.3275590160689887

    Alert: EFP and PCM quantities not currently incorporated into SCF psivars.

Properties will be evaluated at   0.000000,   0.000000,   0.000000 Bohr
  ==> Properties <==


Properties computed using the SCF density matrix

  Nuclear Dipole Moment: (a.u.)
     X:     1.1583      Y:    -0.1172      Z:     0.8781

  Electronic Dipole Moment: (a.u.)
     X:    -0.9475      Y:     0.1179      Z:    -0.7244

  Dipole Moment: (a.u.)
     X:     0.2108      Y:     0.0008      Z:     0.1537     Total:     0.2609

  Dipole Moment: (Debye)
     X:     0.5359      Y:     0.0020      Z:     0.3907     Total:     0.6632


  Saving occupied orbitals to File 180.

*** tstop() called on cx1-27-1-2 at Fri Sep  9 20:40:42 2016
Module time:
	user time   =      17.92 seconds =       0.30 minutes
	system time =       0.28 seconds =       0.00 minutes
	total time  =          6 seconds =       0.10 minutes
Total time:
	user time   =      75.78 seconds =       1.26 minutes
	system time =       1.05 seconds =       0.02 minutes
	total time  =         23 seconds =       0.38 minutes

*** tstart() called on cx1-27-1-2
*** at Fri Sep  9 20:40:42 2016


         ------------------------------------------------------------
                                   SCF GRAD                          
                          Rob Parrish, Justin Turney,                
                       Andy Simmonett, and Alex Sokolov              
         ------------------------------------------------------------

  ==> Geometry <==

    Molecular point group: c1
    Full point group: C1

    Geometry (in Angstrom), charge = 0, multiplicity = 1:

       Center              X                  Y                   Z               Mass       
    ------------   -----------------  -----------------  -----------------  -----------------
           H         -0.662348481714     2.102731159919    -0.154259466777     1.007825032070
           C          0.075088359388     1.396054150646     0.212855428450    12.000000000000
           N         -0.243118338906     0.026109334921    -0.183474326359    14.003074004780
           H          1.039322360242     1.713864011072    -0.166059010045     1.007825032070
           H          0.116336586332     1.498614085376     1.292019251225     1.007825032070
           C          0.777483219195    -0.604070380479    -0.989868739152    12.000000000000
           C         -0.672575174274    -0.811961005203     0.912495666199    12.000000000000
           H          0.432168392387    -1.571160894852    -1.333808095133     1.007825032070
           H          0.985455720330     0.000023192858    -1.863507801820     1.007825032070
           H          1.717443549537    -0.754636494241    -0.450169354831     1.007825032070
           H         -1.509377765593    -0.352959988282     1.423545403707     1.007825032070
           H         -1.001981205544    -1.774050769623     0.539821599317     1.007825032070
           H          0.117765851638    -0.987331031752     1.648508833462     1.007825032070

  Nuclear repulsion =  138.584236805426031

  ==> Basis Set <==

  Basis Set: CC-PVTZ
    Number of shells: 94
    Number of basis function: 246
    Number of Cartesian functions: 275
    Spherical Harmonics?: true
    Max angular momentum: 3

  ==> DFJKGrad: Density-Fitted SCF Gradients <==

    Gradient:                    1
    J tasked:                  Yes
    K tasked:                  Yes
    wK tasked:                  No
    OpenMP threads:              4
    Integrals threads:           4
    Memory (MB):              1430
    Schwarz Cutoff:          0E+00
    Fitting Condition:       1E-12

   => Auxiliary Basis Set <=

  Basis Set: 
    Number of shells: 190
    Number of basis function: 586
    Number of Cartesian functions: 699
    Spherical Harmonics?: true
    Max angular momentum: 4


  -Total Gradient:
     Atom            X                  Y                   Z
    ------   -----------------  -----------------  -----------------
       1        0.001029392702     0.001638291522     0.000118414056
       2        0.000820522883     0.003320725468    -0.000545990519
       3       -0.000922679665    -0.001061532564     0.001312814170
       4       -0.000417386699     0.001743017217     0.001241914192
       5       -0.000257835405     0.000289792731    -0.000889130870
       6        0.000490231976    -0.002385396433    -0.001901167233
       7       -0.000731175008    -0.003299606179     0.000609613800
       8        0.000311395287    -0.000158335954    -0.000277763493
       9       -0.000186963696    -0.000135007317     0.000083111855
      10       -0.000163284786     0.000210658206     0.000230377200
      11        0.000083228475    -0.000001792563    -0.000211745673
      12       -0.000178840880    -0.000451444686     0.000503590438
      13        0.000123394816     0.000290630553    -0.000274037923


*** tstop() called on cx1-27-1-2 at Fri Sep  9 20:40:53 2016
Module time:
	user time   =      38.22 seconds =       0.64 minutes
	system time =       0.45 seconds =       0.01 minutes
	total time  =         11 seconds =       0.18 minutes
Total time:
	user time   =     114.02 seconds =       1.90 minutes
	system time =       1.50 seconds =       0.03 minutes
	total time  =         34 seconds =       0.57 minutes
CURRENT ENERGY: -173.3275590161

			-----------------------------------------
			 OPTKING 2.0: for geometry optimizations 
			  - R.A. King,  Bethel University        
			-----------------------------------------

	Previous internal coordinate definitions found.
	---Fragment 1 Geometry and Gradient---
	 H          -1.2516572350        3.9735860233       -0.2915081456
	 C           0.1418964350        2.6381600114        0.4022384657
	 N          -0.4594270784        0.0493394925       -0.3467162292
	 H           1.9640346246        3.2387336099       -0.3138060509
	 H           0.2198442874        2.8319702002        2.4415625432
	 C           1.4692303572       -1.1415275841       -1.8705808245
	 C          -1.2709828832       -1.5343839304        1.7243669066
	 H           0.8166799049       -2.9690638020       -2.5205320136
	 H           1.8622414275        0.0000438281       -3.5215193919
	 H           3.2454979573       -1.4260563040       -0.8506967940
	 H          -2.8523106080       -0.6669977137        2.6901109507
	 H          -1.8934700688       -3.3524701004        1.0201149833
	 H           0.2225452074       -1.8657852525        3.1152302229
	             0.0010293927        0.0016382915        0.0001184141
	             0.0008205229        0.0033207255       -0.0005459905
	            -0.0009226797       -0.0010615326        0.0013128142
	            -0.0004173867        0.0017430172        0.0012419142
	            -0.0002578354        0.0002897927       -0.0008891309
	             0.0004902320       -0.0023853964       -0.0019011672
	            -0.0007311750       -0.0032996062        0.0006096138
	             0.0003113953       -0.0001583360       -0.0002777635
	            -0.0001869637       -0.0001350073        0.0000831119
	            -0.0001632848        0.0002106582        0.0002303772
	             0.0000832285       -0.0000017926       -0.0002117457
	            -0.0001788409       -0.0004514447        0.0005035904
	             0.0001233948        0.0002906306       -0.0002740379

	---Fragment 1 Intrafragment Coordinates---
	 - Coordinate -           - BOHR/RAD -       - ANG/DEG -
	 R(1,2)           =         2.051009	       1.085347
	 R(2,3)           =         2.761252	       1.461192
	 R(2,4)           =         2.047827	       1.083664
	 R(2,5)           =         2.049995	       1.084811
	 R(3,6)           =         2.731309	       1.445346
	 R(3,7)           =         2.730602	       1.444973
	 R(6,8)           =         2.046496	       1.082959
	 R(6,9)           =         2.045297	       1.082325
	 R(6,10)          =         2.067909	       1.094290
	 R(7,11)          =         2.045878	       1.082632
	 R(7,12)          =         2.046680	       1.083056
	 R(7,13)          =         2.067596	       1.094125
	 B(1,2,3)         =         1.950599	     111.761099
	 B(1,2,4)         =         1.870610	     107.178085
	 B(1,2,5)         =         1.876290	     107.503488
	 B(2,3,6)         =         1.989234	     113.974721
	 B(2,3,7)         =         1.985337	     113.751440
	 B(3,2,4)         =         1.953996	     111.955731
	 B(3,2,5)         =         1.946303	     111.514936
	 B(3,6,8)         =         1.919193	     109.961648
	 B(3,6,9)         =         1.920565	     110.040286
	 B(3,6,10)        =         1.972914	     113.039624
	 B(3,7,11)        =         1.919688	     109.989997
	 B(3,7,12)        =         1.922630	     110.158574
	 B(3,7,13)        =         1.969794	     112.860908
	 B(4,2,5)         =         1.861139	     106.635433
	 B(6,3,7)         =         1.960763	     112.343439
	 B(8,6,9)         =         1.878993	     107.658393
	 B(8,6,10)        =         1.883525	     107.918059
	 B(9,6,10)        =         1.885826	     108.049849
	 B(11,7,12)       =         1.879642	     107.695532
	 B(11,7,13)       =         1.884666	     107.983409
	 B(12,7,13)       =         1.884716	     107.986257
	*D(1,2,3,6)       =         2.094395	     120.000009
	 D(1,2,3,7)       =        -1.910095	    -109.440400
	 D(2,3,6,8)       =        -3.036656	    -173.987558
	 D(2,3,6,9)       =        -0.969738	     -55.561888
	 D(2,3,6,10)      =         1.140357	      65.337639
	 D(2,3,7,11)      =         0.957760	      54.875613
	 D(2,3,7,12)      =         3.027042	     173.436718
	 D(2,3,7,13)      =        -1.148119	     -65.782373
	 D(4,2,3,6)       =        -0.004386	      -0.251320
	 D(4,2,3,7)       =         2.274308	     130.308272
	 D(5,2,3,6)       =        -2.088080	    -119.638152
	 D(5,2,3,7)       =         0.190615	      10.921440
	 D(6,3,7,11)      =        -3.032701	    -173.760950
	 D(6,3,7,12)      =        -0.963419	     -55.199844
	 D(6,3,7,13)      =         1.144605	      65.581064
	 D(7,3,6,8)       =         0.955767	      54.761406
	 D(7,3,6,9)       =         3.022685	     173.187077
	 D(7,3,6,10)      =        -1.150406	     -65.913397

	Current energy   :      -173.3275590161

	Energy change for the previous step:
		Projected    :        -0.0018269233
		Actual       :        -0.0006326806

	Performing BFGS update.
	Previous computed or guess Hessian on step 1.
	Steps to be used in Hessian update: 1
	Taking RFO optimization step.
	Going to follow RFO solution 1.
	Using RFO vector 1.
	Norm of target step-size    0.04232
	Projected energy change by RFO approximation:        -0.0001040303

	Back-transformation to cartesian coordinates...
	Successfully converged to displaced geometry.

	Back-transformation to cartesian coordinates to adjust frozen coordinates...
	Successfully converged to displaced geometry.

	--- Internal Coordinate Step in ANG or DEG, aJ/ANG or AJ/DEG ---
	 ---------------------------------------------------------------------------
	   Coordinate                Previous        Force       Change         New 
	   ----------                --------       ------       ------       ------
	    1 R(1,2)          =      1.085347    -0.002696    -0.000257     1.085090
	    2 R(2,3)          =      1.461192    -0.055947    -0.006112     1.455080
	    3 R(2,4)          =      1.083664     0.002426     0.000364     1.084027
	    4 R(2,5)          =      1.084811     0.007142     0.000624     1.085435
	    5 R(3,6)          =      1.445346    -0.020066    -0.002365     1.442982
	    6 R(3,7)          =      1.444973    -0.022187    -0.002636     1.442336
	    7 R(6,8)          =      1.082959    -0.001074    -0.000131     1.082828
	    8 R(6,9)          =      1.082325     0.001469     0.000184     1.082508
	    9 R(6,10)         =      1.094290     0.000458     0.000071     1.094361
	   10 R(7,11)         =      1.082632     0.001360     0.000181     1.082813
	   11 R(7,12)         =      1.083056    -0.002324    -0.000296     1.082760
	   12 R(7,13)         =      1.094125     0.001168     0.000163     1.094288
	   13 B(1,2,3)        =    111.761099    -0.000152    -0.462662   111.298437
	   14 B(1,2,4)        =    107.178085     0.000168     0.253292   107.431377
	   15 B(1,2,5)        =    107.503488     0.000069     0.492349   107.995837
	   16 B(2,3,6)        =    113.974721    -0.000073    -0.248002   113.726719
	   17 B(2,3,7)        =    113.751440    -0.000108    -0.368962   113.382478
	   18 B(3,2,4)        =    111.955731    -0.000193    -0.738559   111.217172
	   19 B(3,2,5)        =    111.514936     0.000039     0.234230   111.749166
	   20 B(3,6,8)        =    109.961648    -0.000056    -0.220089   109.741559
	   21 B(3,6,9)        =    110.040286     0.000009     0.047117   110.087402
	   22 B(3,6,10)       =    113.039624     0.000045     0.177293   113.216918
	   23 B(3,7,11)       =    109.989997     0.000020     0.084505   110.074503
	   24 B(3,7,12)       =    110.158574    -0.000085    -0.326264   109.832310
	   25 B(3,7,13)       =    112.860908     0.000056     0.220690   113.081598
	   26 B(4,2,5)        =    106.635433     0.000094     0.291061   106.926493
	   27 B(6,3,7)        =    112.343439     0.000148     0.505200   112.848640
	   28 B(8,6,9)        =    107.658393     0.000018     0.031718   107.690111
	   29 B(8,6,10)       =    107.918059     0.000001    -0.021269   107.896790
	   30 B(9,6,10)       =    108.049849    -0.000017    -0.018442   108.031407
	   31 B(11,7,12)      =    107.695532     0.000019     0.009520   107.705052
	   32 B(11,7,13)      =    107.983409    -0.000020    -0.000925   107.982484
	   33 B(12,7,13)      =    107.986257     0.000010     0.008352   107.994609
	   34 *D(1,2,3,6)     =    120.000009     0.000000     0.000000   120.000009
	   35 D(1,2,3,7)      =   -109.440400     0.000010     0.143458  -109.296942
	   36 D(2,3,6,8)      =   -173.987558    -0.000009     0.222921  -173.764637
	   37 D(2,3,6,9)      =    -55.561888    -0.000010     0.156118   -55.405770
	   38 D(2,3,6,10)     =     65.337639    -0.000007     0.287192    65.624831
	   39 D(2,3,7,11)     =     54.875613     0.000010    -0.190104    54.685509
	   40 D(2,3,7,12)     =    173.436718     0.000006    -0.326498   173.110220
	   41 D(2,3,7,13)     =    -65.782373     0.000004    -0.398267   -66.180641
	   42 D(4,2,3,6)      =     -0.251320     0.000006     0.499104     0.247784
	   43 D(4,2,3,7)      =    130.308272     0.000016     0.642562   130.950834
	   44 D(5,2,3,6)      =   -119.638152     0.000002     0.471188  -119.166964
	   45 D(5,2,3,7)      =     10.921440     0.000012     0.614646    11.536086
	   46 D(6,3,7,11)     =   -173.760950    -0.000005    -0.414507  -174.175456
	   47 D(6,3,7,12)     =    -55.199844    -0.000009    -0.550901   -55.750745
	   48 D(6,3,7,13)     =     65.581064    -0.000011    -0.622670    64.958394
	   49 D(7,3,6,8)      =     54.761406     0.000010     0.507238    55.268644
	   50 D(7,3,6,9)      =    173.187077     0.000009     0.440434   173.627511
	   51 D(7,3,6,10)     =    -65.913397     0.000012     0.571509   -65.341889
	 ---------------------------------------------------------------------------

  ==> Convergence Check <==

  Measures of convergence in internal coordinates in au.
  Criteria marked as inactive (o), active & met (*), and active & unmet ( ).
  ---------------------------------------------------------------------------------------------
   Step     Total Energy     Delta E     MAX Force     RMS Force      MAX Disp      RMS Disp   
  ---------------------------------------------------------------------------------------------
    Convergence Criteria    1.00e-06 *    3.00e-04 *             o    1.20e-03 *             o
  ---------------------------------------------------------------------------------------------
      2    -173.32755902   -6.33e-04      6.79e-03      1.35e-03 o    1.29e-02      5.93e-03 o  ~
  ---------------------------------------------------------------------------------------------

	Writing optimization data to binary file.
	Structure for next step:
	Cartesian Geometry (in Angstrom)
	    H    -0.6690517221   2.0876343167  -0.1559788486
	    C     0.0730484288   1.3876769872   0.2138430815
	    N    -0.2427024676   0.0238612307  -0.1831026009
	    H     1.0352255661   1.6974624998  -0.1777736714
	    H     0.1230235240   1.4910744524   1.2931861146
	    C     0.7803428117  -0.5980218650  -0.9886065137
	    C    -0.6731733505  -0.8067177725   0.9146983113
	    H     0.4347398438  -1.5629899045  -1.3377653696
	    H     0.9897982036   0.0109239957  -1.8587430706
	    H     1.7198506556  -0.7523634078  -0.4490411833
	    H    -1.5080112277  -0.3438457188   1.4258536077
	    H    -1.0072555222  -1.7662225895   0.5403861919
	    H     0.1158284191  -0.9872468630   1.6511434071
			--------------------------
			 OPTKING Finished Execution 
			--------------------------

    Structure for next step:
    Molecular point group: c1
    Full point group: C1

    Geometry (in Angstrom), charge = 0, multiplicity = 1:

    H           -0.669184370993     2.087586370362    -0.156889120493
    C            0.072915723270     1.387629094248     0.212932781391
    N           -0.242835148985     0.023813441980    -0.184012870637
    H            1.035092787049     1.697414583256    -0.178683941588
    H            0.122890814599     1.491026551621     1.292275732082
    C            0.780210052146    -0.598069606265    -0.989516722001
    C           -0.673305999026    -0.806765497862     0.913787957655
    H            0.434607110624    -1.563037572097    -1.338675551212
    H            0.989665428027     0.010876207878    -1.859653212385
    H            1.719717824262    -0.752411137339    -0.449951432780
    H           -1.508143812524    -0.343893479515     1.424943215089
    H           -1.007388145269    -1.766270241585     0.539475866875
    H            0.115695710281    -0.987294574585     1.650232997268

gradient() will perform analytic gradient computation.

*** tstart() called on cx1-27-1-2
*** at Fri Sep  9 20:40:53 2016


         ---------------------------------------------------------
                                   SCF
            by Justin Turney, Rob Parrish, and Andy Simmonett
                              RHF Reference
                        4 Threads,   2000 MiB Core
         ---------------------------------------------------------

  ==> Geometry <==

    Molecular point group: c1
    Full point group: C1

    Geometry (in Angstrom), charge = 0, multiplicity = 1:

       Center              X                  Y                   Z               Mass       
    ------------   -----------------  -----------------  -----------------  -----------------
           H         -0.669184370993     2.087586370362    -0.156889120493     1.007825032070
           C          0.072915723270     1.387629094248     0.212932781391    12.000000000000
           N         -0.242835148985     0.023813441980    -0.184012870637    14.003074004780
           H          1.035092787049     1.697414583256    -0.178683941588     1.007825032070
           H          0.122890814599     1.491026551621     1.292275732082     1.007825032070
           C          0.780210052146    -0.598069606265    -0.989516722001    12.000000000000
           C         -0.673305999026    -0.806765497862     0.913787957655    12.000000000000
           H          0.434607110624    -1.563037572097    -1.338675551212     1.007825032070
           H          0.989665428027     0.010876207878    -1.859653212385     1.007825032070
           H          1.719717824262    -0.752411137339    -0.449951432780     1.007825032070
           H         -1.508143812524    -0.343893479515     1.424943215089     1.007825032070
           H         -1.007388145269    -1.766270241585     0.539475866875     1.007825032070
           H          0.115695710281    -0.987294574585     1.650232997268     1.007825032070

  Running in c1 symmetry.

  Rotational constants: A =      0.29348  B =      0.28778  C =      0.16273 [cm^-1]
  Rotational constants: A =   8798.31263  B =   8627.50890  C =   4878.37476 [MHz]
  Nuclear repulsion =  138.858057053846579

  Charge       = 0
  Multiplicity = 1
  Electrons    = 34
  Nalpha       = 17
  Nbeta        = 17

  ==> Algorithm <==

  SCF Algorithm Type is DF.
  DIIS enabled.
  MOM disabled.
  Fractional occupation disabled.
  Guess Type is READ.
  Energy threshold   = 1.00e-08
  Density threshold  = 1.00e-08
  Integral threshold = 0.00e+00

  ==> Primary Basis <==

  Basis Set: CC-PVTZ
    Number of shells: 94
    Number of basis function: 246
    Number of Cartesian functions: 275
    Spherical Harmonics?: true
    Max angular momentum: 3

  ==> Pre-Iterations <==

   -------------------------------------------------------
    Irrep   Nso     Nmo     Nalpha   Nbeta   Ndocc  Nsocc
   -------------------------------------------------------
     A        246     246       0       0       0       0
   -------------------------------------------------------
    Total     246     246      17      17      17       0
   -------------------------------------------------------

 OEINTS: Overlap, kinetic, potential, dipole, and quadrupole integrals
         stored in file 35.

  ==> Integral Setup <==

  ==> DFJK: Density-Fitted J/K Matrices <==

    J tasked:                  Yes
    K tasked:                  Yes
    wK tasked:                  No
    OpenMP threads:              4
    Integrals threads:           4
    Memory (MB):              1430
    Algorithm:                Core
    Integral Cache:           NONE
    Schwarz Cutoff:          1E-12
    Fitting Condition:       1E-12

   => Auxiliary Basis Set <=

  Basis Set: 
    Number of shells: 190
    Number of basis function: 586
    Number of Cartesian functions: 699
    Spherical Harmonics?: true
    Max angular momentum: 4

  Minimum eigenvalue in the overlap matrix is 1.0237595947E-03.
  Using Symmetric Orthogonalization.
  SCF Guess: Reading in previously saved MOs, projecting if necessary.

  Using orbitals from previous SCF, no projection.
  Recomputing DOCC and SOCC from number of alpha and beta electrons from previous calculation.
              A 
    DOCC [    17 ]

  ==> Iterations <==

                           Total Energy        Delta E     RMS |[F,P]|

   @DF-RHF iter   0:  -173.33202901290755   -1.73332e+02   7.92350e-05 
   @DF-RHF iter   1:  -173.32769884120225    4.33017e-03   1.12116e-05 
   @DF-RHF iter   2:  -173.32770429342875   -5.45223e-06   4.81704e-06 DIIS
   @DF-RHF iter   3:  -173.32770510792861   -8.14500e-07   2.05927e-06 DIIS
   @DF-RHF iter   4:  -173.32770530711284   -1.99184e-07   3.41240e-07 DIIS
   @DF-RHF iter   5:  -173.32770531536821   -8.25537e-09   9.16542e-08 DIIS
   @DF-RHF iter   6:  -173.32770531600917   -6.40966e-10   2.68759e-08 DIIS
   @DF-RHF iter   7:  -173.32770531605834   -4.91696e-11   7.88583e-09 DIIS

  ==> Post-Iterations <==

    Orbital Energies (a.u.)
    -----------------------

    Doubly Occupied:                                                      

       1A    -15.535092     2A    -11.234004     3A    -11.233933  
       4A    -11.233707     5A     -1.220237     6A     -0.951742  
       7A     -0.951612     8A     -0.806534     9A     -0.638256  
      10A     -0.629037    11A     -0.627549    12A     -0.550086  
      13A     -0.547251    14A     -0.514339    15A     -0.501568  
      16A     -0.500461    17A     -0.341123  

    Virtual:                                                              

      18A      0.137341    19A      0.180224    20A      0.182052  
      21A      0.208556    22A      0.214791    23A      0.225723  
      24A      0.227325    25A      0.238415    26A      0.257321  
      27A      0.270726    28A      0.330895    29A      0.349775  
      30A      0.388625    31A      0.401377    32A      0.420016  
      33A      0.445990    34A      0.494448    35A      0.525870  
      36A      0.528459    37A      0.572828    38A      0.582907  
      39A      0.605604    40A      0.614562    41A      0.625913  
      42A      0.629670    43A      0.648021    44A      0.659428  
      45A      0.663099    46A      0.682449    47A      0.686965  
      48A      0.713528    49A      0.747112    50A      0.755274  
      51A      0.788315    52A      0.798915    53A      0.820430  
      54A      0.842174    55A      0.912576    56A      0.974766  
      57A      0.998186    58A      1.028524    59A      1.061494  
      60A      1.110159    61A      1.119178    62A      1.134489  
      63A      1.158909    64A      1.172878    65A      1.192217  
      66A      1.195726    67A      1.210446    68A      1.225137  
      69A      1.251544    70A      1.265749    71A      1.297144  
      72A      1.312146    73A      1.336793    74A      1.350746  
      75A      1.378368    76A      1.400815    77A      1.435989  
      78A      1.445801    79A      1.462576    80A      1.477115  
      81A      1.495017    82A      1.522306    83A      1.534426  
      84A      1.541583    85A      1.565000    86A      1.572355  
      87A      1.597428    88A      1.612988    89A      1.638071  
      90A      1.651701    91A      1.680059    92A      1.693896  
      93A      1.784513    94A      1.802600    95A      1.810707  
      96A      1.851050    97A      2.009754    98A      2.046580  
      99A      2.080307   100A      2.180897   101A      2.188842  
     102A      2.482272   103A      2.507114   104A      2.537539  
     105A      2.552920   106A      2.590942   107A      2.616805  
     108A      2.648332   109A      2.769355   110A      2.796311  
     111A      2.927675   112A      2.973513   113A      3.001458  
     114A      3.003985   115A      3.034782   116A      3.043723  
     117A      3.067803   118A      3.087934   119A      3.103356  
     120A      3.119854   121A      3.130887   122A      3.150765  
     123A      3.156984   124A      3.170418   125A      3.179112  
     126A      3.227917   127A      3.242619   128A      3.258160  
     129A      3.265100   130A      3.291211   131A      3.344791  
     132A      3.358472   133A      3.369174   134A      3.373056  
     135A      3.397699   136A      3.406614   137A      3.459356  
     138A      3.466906   139A      3.477716   140A      3.520238  
     141A      3.543020   142A      3.554430   143A      3.594753  
     144A      3.627247   145A      3.633625   146A      3.649158  
     147A      3.654092   148A      3.689348   149A      3.701145  
     150A      3.730506   151A      3.757677   152A      3.770685  
     153A      3.817427   154A      3.824363   155A      3.832209  
     156A      3.849112   157A      3.851853   158A      3.900319  
     159A      3.903151   160A      3.914275   161A      3.939118  
     162A      3.968543   163A      3.990356   164A      4.022830  
     165A      4.043684   166A      4.051361   167A      4.098120  
     168A      4.111447   169A      4.131619   170A      4.137413  
     171A      4.216465   172A      4.242460   173A      4.256611  
     174A      4.258894   175A      4.288400   176A      4.309047  
     177A      4.333478   178A      4.350835   179A      4.380241  
     180A      4.406397   181A      4.435693   182A      4.442358  
     183A      4.471163   184A      4.489851   185A      4.540998  
     186A      4.559189   187A      4.577248   188A      4.584025  
     189A      4.609265   190A      4.631465   191A      4.664825  
     192A      4.694156   193A      4.751558   194A      4.807724  
     195A      4.851115   196A      4.908188   197A      4.922719  
     198A      4.956135   199A      5.018279   200A      5.069627  
     201A      5.092587   202A      5.100899   203A      5.188290  
     204A      5.194911   205A      5.287729   206A      5.299437  
     207A      5.356443   208A      5.378965   209A      5.389059  
     210A      5.438900   211A      5.448865   212A      5.476422  
     213A      5.488141   214A      5.505130   215A      5.548733  
     216A      5.567101   217A      5.597642   218A      5.607718  
     219A      5.628171   220A      5.659233   221A      5.682878  
     222A      5.726273   223A      5.750366   224A      5.774169  
     225A      5.776649   226A      5.883646   227A      5.891872  
     228A      5.947274   229A      5.980218   230A      5.994948  
     231A      6.070698   232A      6.084938   233A      6.206200  
     234A      6.222937   235A      6.267022   236A      6.293437  
     237A      6.330258   238A      6.347037   239A      6.352782  
     240A      6.396565   241A      6.398640   242A      6.467949  
     243A     10.869347   244A     14.282049   245A     14.413870  
     246A     14.551932  

    Final Occupation by Irrep:
              A 
    DOCC [    17 ]

  Energy converged.

  @DF-RHF Final Energy:  -173.32770531605834

   => Energetics <=

    Nuclear Repulsion Energy =            138.8580570538465793
    One-Electron Energy =                -508.3384635776003506
    Two-Electron Energy =                 196.1527012076953724
    DFT Exchange-Correlation Energy =       0.0000000000000000
    Empirical Dispersion Energy =           0.0000000000000000
    PCM Polarization Energy =               0.0000000000000000
    EFP Energy =                            0.0000000000000000
    Total Energy =                       -173.3277053160584273

    Alert: EFP and PCM quantities not currently incorporated into SCF psivars.

Properties will be evaluated at   0.000000,   0.000000,   0.000000 Bohr
  ==> Properties <==


Properties computed using the SCF density matrix

  Nuclear Dipole Moment: (a.u.)
     X:     1.1566      Y:    -0.1182      Z:     0.8659

  Electronic Dipole Moment: (a.u.)
     X:    -0.9478      Y:     0.1171      Z:    -0.7151

  Dipole Moment: (a.u.)
     X:     0.2088      Y:    -0.0011      Z:     0.1508     Total:     0.2575

  Dipole Moment: (Debye)
     X:     0.5306      Y:    -0.0028      Z:     0.3832     Total:     0.6545


  Saving occupied orbitals to File 180.

*** tstop() called on cx1-27-1-2 at Fri Sep  9 20:40:58 2016
Module time:
	user time   =      16.40 seconds =       0.27 minutes
	system time =       0.26 seconds =       0.00 minutes
	total time  =          5 seconds =       0.08 minutes
Total time:
	user time   =     130.91 seconds =       2.18 minutes
	system time =       1.77 seconds =       0.03 minutes
	total time  =         39 seconds =       0.65 minutes

*** tstart() called on cx1-27-1-2
*** at Fri Sep  9 20:40:58 2016


         ------------------------------------------------------------
                                   SCF GRAD                          
                          Rob Parrish, Justin Turney,                
                       Andy Simmonett, and Alex Sokolov              
         ------------------------------------------------------------

  ==> Geometry <==

    Molecular point group: c1
    Full point group: C1

    Geometry (in Angstrom), charge = 0, multiplicity = 1:

       Center              X                  Y                   Z               Mass       
    ------------   -----------------  -----------------  -----------------  -----------------
           H         -0.669184370993     2.087586370362    -0.156889120493     1.007825032070
           C          0.072915723270     1.387629094248     0.212932781391    12.000000000000
           N         -0.242835148985     0.023813441980    -0.184012870637    14.003074004780
           H          1.035092787049     1.697414583256    -0.178683941588     1.007825032070
           H          0.122890814599     1.491026551621     1.292275732082     1.007825032070
           C          0.780210052146    -0.598069606265    -0.989516722001    12.000000000000
           C         -0.673305999026    -0.806765497862     0.913787957655    12.000000000000
           H          0.434607110624    -1.563037572097    -1.338675551212     1.007825032070
           H          0.989665428027     0.010876207878    -1.859653212385     1.007825032070
           H          1.719717824262    -0.752411137339    -0.449951432780     1.007825032070
           H         -1.508143812524    -0.343893479515     1.424943215089     1.007825032070
           H         -1.007388145269    -1.766270241585     0.539475866875     1.007825032070
           H          0.115695710281    -0.987294574585     1.650232997268     1.007825032070

  Nuclear repulsion =  138.858057053846579

  ==> Basis Set <==

  Basis Set: CC-PVTZ
    Number of shells: 94
    Number of basis function: 246
    Number of Cartesian functions: 275
    Spherical Harmonics?: true
    Max angular momentum: 3

  ==> DFJKGrad: Density-Fitted SCF Gradients <==

    Gradient:                    1
    J tasked:                  Yes
    K tasked:                  Yes
    wK tasked:                  No
    OpenMP threads:              4
    Integrals threads:           4
    Memory (MB):              1430
    Schwarz Cutoff:          0E+00
    Fitting Condition:       1E-12

   => Auxiliary Basis Set <=

  Basis Set: 
    Number of shells: 190
    Number of basis function: 586
    Number of Cartesian functions: 699
    Spherical Harmonics?: true
    Max angular momentum: 4


  -Total Gradient:
     Atom            X                  Y                   Z
    ------   -----------------  -----------------  -----------------
       1        0.000577089720     0.000300823564    -0.000891755745
       2       -0.000524166933     0.000616419598     0.000873985876
       3       -0.000209773274    -0.000694416617     0.000528902924
       4        0.000074568658     0.000046205751     0.000244090344
       5       -0.000171266687    -0.000092759163    -0.000271893411
       6        0.000521007629    -0.000046841358    -0.001323475810
       7       -0.000063930745    -0.000463722895     0.001087825071
       8       -0.000112470621     0.000167876212     0.000077743115
       9        0.000024372421    -0.000029271809    -0.000073616173
      10       -0.000112310444     0.000020845612     0.000014627806
      11       -0.000055303315    -0.000055288458     0.000021416295
      12        0.000075552136     0.000232745860    -0.000178386136
      13       -0.000023368545    -0.000002616296    -0.000109464154


*** tstop() called on cx1-27-1-2 at Fri Sep  9 20:41:08 2016
Module time:
	user time   =      37.63 seconds =       0.63 minutes
	system time =       0.43 seconds =       0.01 minutes
	total time  =         10 seconds =       0.17 minutes
Total time:
	user time   =     168.57 seconds =       2.81 minutes
	system time =       2.20 seconds =       0.04 minutes
	total time  =         49 seconds =       0.82 minutes
CURRENT ENERGY: -173.3277053161

			-----------------------------------------
			 OPTKING 2.0: for geometry optimizations 
			  - R.A. King,  Bethel University        
			-----------------------------------------

	Previous internal coordinate definitions found.
	---Fragment 1 Geometry and Gradient---
	 H          -1.2645751936        3.9449665187       -0.2964774710
	 C           0.1377907478        2.6222389622        0.4023846415
	 N          -0.4588919270        0.0450008836       -0.3477339304
	 H           1.9560418896        3.2076486963       -0.3376637139
	 H           0.2322299838        2.8176318394        2.4420472218
	 C           1.4743833247       -1.1301877642       -1.8699156085
	 C          -1.2723639418       -1.5245658444        1.7268089835
	 H           0.8212884145       -2.9537129467       -2.5297301726
	 H           1.8701966222        0.0205530543       -3.5142352735
	 H           3.2497957137       -1.4218509889       -0.8502849811
	 H          -2.8499787747       -0.6498644952        2.6927524314
	 H          -1.9036877041       -3.3377670333        1.0194616437
	 H           0.2186332072       -1.8657163584        3.1184884203
	             0.0005770897        0.0003008236       -0.0008917557
	            -0.0005241669        0.0006164196        0.0008739859
	            -0.0002097733       -0.0006944166        0.0005289029
	             0.0000745687        0.0000462058        0.0002440903
	            -0.0001712667       -0.0000927592       -0.0002718934
[...]
*** at Fri Sep  9 20:41:29 2016


         ------------------------------------------------------------
                                   SCF GRAD                          
                          Rob Parrish, Justin Turney,                
                       Andy Simmonett, and Alex Sokolov              
         ------------------------------------------------------------

  ==> Geometry <==

    Molecular point group: c1
    Full point group: C1

    Geometry (in Angstrom), charge = 0, multiplicity = 1:

       Center              X                  Y                   Z               Mass       
    ------------   -----------------  -----------------  -----------------  -----------------
           H         -0.674283884242     2.083262930445    -0.153800369162     1.007825032070
           C          0.072214902610     1.386949804119     0.213742465878    12.000000000000
           N         -0.238753767945     0.023302938439    -0.181652966970    14.003074004780
           H          1.029141036964     1.700395331557    -0.187874230554     1.007825032070
           H          0.132043725246     1.492287290208     1.292843725239     1.007825032070
           C          0.780411017457    -0.597353265537    -0.989796314402    12.000000000000
           C         -0.676213594841    -0.806446087038     0.911774198955    12.000000000000
           H          0.435447114041    -1.562912834353    -1.338677825536     1.007825032070
           H          0.986866933474     0.012005010895    -1.860345710836     1.007825032070
           H          1.722713411151    -0.751736291938    -0.454441315224     1.007825032070
           H         -1.512526810606    -0.341732003353     1.418984591392     1.007825032070
           H         -1.010576565838    -1.766284583479     0.537795782081     1.007825032070
           H          0.107992185373    -0.988439352080     1.653466341502     1.007825032070

  Nuclear repulsion =  138.909720414946605

  ==> Basis Set <==

  Basis Set: CC-PVTZ
    Number of shells: 94
    Number of basis function: 246
    Number of Cartesian functions: 275
    Spherical Harmonics?: true
    Max angular momentum: 3

  ==> DFJKGrad: Density-Fitted SCF Gradients <==

    Gradient:                    1
    J tasked:                  Yes
    K tasked:                  Yes
    wK tasked:                  No
    OpenMP threads:              4
    Integrals threads:           4
    Memory (MB):              1430
    Schwarz Cutoff:          0E+00
    Fitting Condition:       1E-12

   => Auxiliary Basis Set <=

  Basis Set: 
    Number of shells: 190
    Number of basis function: 586
    Number of Cartesian functions: 699
    Spherical Harmonics?: true
    Max angular momentum: 4


  -Total Gradient:
     Atom            X                  Y                   Z
    ------   -----------------  -----------------  -----------------
       1        0.000876875778     0.000163334214    -0.001371403956
       2       -0.001303082115     0.000016724244     0.001369530989
       3        0.000989238645    -0.000604962532     0.001034780934
       4       -0.000010626267    -0.000007696609    -0.000009812024
       5        0.000008448688    -0.000014523470    -0.000000474941
       6       -0.000554612618     0.000467622513    -0.001029820694
       7       -0.000002073232     0.000034693215    -0.000001004245
       8        0.000008738256    -0.000009003082    -0.000006469961
       9        0.000016933932    -0.000014625421    -0.000011378648
      10       -0.000010104926    -0.000002413192     0.000002062138
      11       -0.000009665857    -0.000015258809     0.000020740418
      12       -0.000006750841    -0.000014713495     0.000014624067
      13       -0.000003319445     0.000000822423    -0.000011374076


*** tstop() called on cx1-27-1-2 at Fri Sep  9 20:41:39 2016
Module time:
	user time   =      37.14 seconds =       0.62 minutes
	system time =       0.44 seconds =       0.01 minutes
	total time  =         10 seconds =       0.17 minutes
Total time:
	user time   =     275.12 seconds =       4.59 minutes
	system time =       3.57 seconds =       0.06 minutes
	total time  =         80 seconds =       1.33 minutes
CURRENT ENERGY: -173.3277170480

			-----------------------------------------
			 OPTKING 2.0: for geometry optimizations 
			  - R.A. King,  Bethel University        
			-----------------------------------------

	Previous internal coordinate definitions found.
	---Fragment 1 Geometry and Gradient---
	 H          -1.2742118770        3.9367964013       -0.2906405769
	 C           0.1364663886        2.6209552898        0.4039147235
	 N          -0.4511792346        0.0440361717       -0.3432743588
	 H           1.9447947120        3.2132814943       -0.3550308432
	 H           0.2495264783        2.8200142901        2.4431205733
	 C           1.4747630941       -1.1288340764       -1.8704439616
	 C          -1.2778585016       -1.5239622454        1.7230035311
	 H           0.8228757909       -2.9534772265       -2.5297344704
	 H           1.8649082339        0.0226861828       -3.5155439060
	 H           3.2554565525       -1.4205757159       -0.8587696292
	 H          -2.8582614407       -0.6457798972        2.6814922645
	 H          -1.9097129457       -3.3377941355        1.0162867436
	 H           0.2040756548       -1.8678796744        3.1245985554
	             0.0008768758        0.0001633342       -0.0013714040
	            -0.0013030821        0.0000167242        0.0013695310
	             0.0009892386       -0.0006049625        0.0010347809
	            -0.0000106263       -0.0000076966       -0.0000098120
	             0.0000084487       -0.0000145235       -0.0000004749
	            -0.0005546126        0.0004676225       -0.0010298207
	            -0.0000020732        0.0000346932       -0.0000010042
	             0.0000087383       -0.0000090031       -0.0000064700
	             0.0000169339       -0.0000146254       -0.0000113786
	            -0.0000101049       -0.0000024132        0.0000020621
	            -0.0000096659       -0.0000152588        0.0000207404
	            -0.0000067508       -0.0000147135        0.0000146241
	            -0.0000033194        0.0000008224       -0.0000113741

	---Fragment 1 Intrafragment Coordinates---
	 - Coordinate -           - BOHR/RAD -       - ANG/DEG -
	 R(1,2)           =         2.050331	       1.084989
	 R(2,3)           =         2.746658	       1.453469
	 R(2,4)           =         2.048634	       1.084090
	 R(2,5)           =         2.052015	       1.085880
	 R(3,6)           =         2.723440	       1.441182
	 R(3,7)           =         2.722411	       1.440638
	 R(6,8)           =         2.046691	       1.083062
	 R(6,9)           =         2.045621	       1.082496
	 R(6,10)          =         2.068687	       1.094702
	 R(7,11)          =         2.046357	       1.082886
	 R(7,12)          =         2.046625	       1.083028
	 R(7,13)          =         2.068545	       1.094627
	 B(1,2,3)         =         1.942018	     111.269453
	 B(1,2,4)         =         1.871578	     107.233519
	 B(1,2,5)         =         1.888399	     108.197310
	 B(2,3,6)         =         1.988091	     113.909218
	 B(2,3,7)         =         1.981071	     113.507020
	 B(3,2,4)         =         1.938355	     111.059539
	 B(3,2,5)         =         1.953185	     111.909230
	 B(3,6,8)         =         1.916997	     109.835860
	 B(3,6,9)         =         1.921338	     110.084539
	 B(3,6,10)        =         1.977112	     113.280156
	 B(3,7,11)        =         1.920741	     110.050341
	 B(3,7,12)        =         1.919958	     110.005480
	 B(3,7,13)        =         1.974130	     113.109337
	 B(4,2,5)         =         1.866559	     106.945967
	 B(6,3,7)         =         1.973926	     113.097652
	 B(8,6,9)         =         1.879202	     107.670320
	 B(8,6,10)        =         1.881756	     107.816652
	 B(9,6,10)        =         1.884419	     107.969253
	 B(11,7,12)       =         1.879304	     107.676188
	 B(11,7,13)       =         1.883118	     107.894701
	 B(12,7,13)       =         1.883678	     107.926795
	*D(1,2,3,6)       =         2.094395	     120.000009
	 D(1,2,3,7)       =        -1.896124	    -108.639925
	 D(2,3,6,8)       =        -3.030672	    -173.644695
	 D(2,3,6,9)       =        -0.964369	     -55.254297
	 D(2,3,6,10)      =         1.147338	      65.737626
	 D(2,3,7,11)      =         0.949321	      54.392075
	 D(2,3,7,12)      =         3.017195	     172.872564
	 D(2,3,7,13)      =        -1.158255	     -66.363123
	 D(4,2,3,6)       =         0.010858	       0.622103
	 D(4,2,3,7)       =         2.303523	     131.982169
	 D(5,2,3,6)       =        -2.073760	    -118.817694
	 D(5,2,3,7)       =         0.218906	      12.542372
	 D(6,3,7,11)      =        -3.034251	    -173.849760
	 D(6,3,7,12)      =        -0.966376	     -55.369271
	 D(6,3,7,13)      =         1.141359	      65.395042
	 D(7,3,6,8)       =         0.956365	      54.795661
	 D(7,3,6,9)       =         3.022667	     173.186060
	 D(7,3,6,10)      =        -1.148811	     -65.822018

	Current energy   :      -173.3277170480

	Energy change for the previous step:
		Projected    :        -0.0000038868
		Actual       :        -0.0000014882

	Performing BFGS update.
	Previous computed or guess Hessian on step 1.
	Steps to be used in Hessian update: 4 3
	Taking RFO optimization step.
	Going to follow RFO solution 1.
	Using RFO vector 1.
	Norm of target step-size    0.00142
	Projected energy change by RFO approximation:        -0.0000001565

	Back-transformation to cartesian coordinates...
	Successfully converged to displaced geometry.

	Back-transformation to cartesian coordinates to adjust frozen coordinates...
	Successfully converged to displaced geometry.

	--- Internal Coordinate Step in ANG or DEG, aJ/ANG or AJ/DEG ---
	 ---------------------------------------------------------------------------
	   Coordinate                Previous        Force       Change         New 
	   ----------                --------       ------       ------       ------
	    1 R(1,2)          =      1.084989     0.000279     0.000051     1.085040
	    2 R(2,3)          =      1.453469    -0.000438    -0.000106     1.453363
	    3 R(2,4)          =      1.084090     0.000066     0.000013     1.084103
	    4 R(2,5)          =      1.085880     0.000012     0.000009     1.085889
	    5 R(3,6)          =      1.441182    -0.000123    -0.000039     1.441144
	    6 R(3,7)          =      1.440638    -0.000172    -0.000048     1.440590
	    7 R(6,8)          =      1.083062    -0.000060    -0.000011     1.083051
	    8 R(6,9)          =      1.082496    -0.000034    -0.000003     1.082493
	    9 R(6,10)         =      1.094702     0.000061     0.000019     1.094721
	   10 R(7,11)         =      1.082886    -0.000088    -0.000011     1.082875
	   11 R(7,12)         =      1.083028    -0.000083    -0.000016     1.083011
	   12 R(7,13)         =      1.094627     0.000084     0.000023     1.094650
	   13 B(1,2,3)        =    111.269453     0.000002     0.010364   111.279817
	   14 B(1,2,4)        =    107.233519    -0.000001     0.000715   107.234234
	   15 B(1,2,5)        =    108.197310    -0.000002    -0.011485   108.185826
	   16 B(2,3,6)        =    113.909218     0.000001     0.011955   113.921173
	   17 B(2,3,7)        =    113.507020     0.000001     0.009705   113.516725
	   18 B(3,2,4)        =    111.059539     0.000001     0.004264   111.063803
	   19 B(3,2,5)        =    111.909230     0.000001    -0.000548   111.908682
	   20 B(3,6,8)        =    109.835860    -0.000001    -0.004492   109.831368
	   21 B(3,6,9)        =    110.084539    -0.000003    -0.012673   110.071866
	   22 B(3,6,10)       =    113.280156     0.000001     0.009347   113.289503
	   23 B(3,7,11)       =    110.050341    -0.000003    -0.011665   110.038675
	   24 B(3,7,12)       =    110.005480    -0.000002    -0.009191   109.996289
	   25 B(3,7,13)       =    113.109337     0.000001     0.009903   113.119240
	   26 B(4,2,5)        =    106.945967    -0.000001    -0.004173   106.941794
	   27 B(6,3,7)        =    113.097652    -0.000001     0.003748   113.101400
	   28 B(8,6,9)        =    107.670320     0.000001     0.002953   107.673274
	   29 B(8,6,10)       =    107.816652     0.000001     0.004098   107.820750
	   30 B(9,6,10)       =    107.969253     0.000001     0.000951   107.970204
	   31 B(11,7,12)      =    107.676188     0.000002     0.004409   107.680597
	   32 B(11,7,13)      =    107.894701     0.000001     0.002434   107.897135
	   33 B(12,7,13)      =    107.926795     0.000001     0.004438   107.931233
	   34 *D(1,2,3,6)     =    120.000009    -0.000000    -0.000000   120.000009
	   35 D(1,2,3,7)      =   -108.639925     0.000000     0.026536  -108.613389
	   36 D(2,3,6,8)      =   -173.644695     0.000000     0.009996  -173.634699
	   37 D(2,3,6,9)      =    -55.254297     0.000000     0.003176   -55.251121
	   38 D(2,3,6,10)     =     65.737626     0.000000     0.001656    65.739282
	   39 D(2,3,7,11)     =     54.392075    -0.000000    -0.004329    54.387746
	   40 D(2,3,7,12)     =    172.872564    -0.000000    -0.011683   172.860880
	   41 D(2,3,7,13)     =    -66.363123    -0.000000    -0.005842   -66.368965
	   42 D(4,2,3,6)      =      0.622103    -0.000000    -0.010584     0.611518
	   43 D(4,2,3,7)      =    131.982169    -0.000000     0.015951   131.998121
	   44 D(5,2,3,6)      =   -118.817694    -0.000000    -0.007819  -118.825514
	   45 D(5,2,3,7)      =     12.542372    -0.000000     0.018717    12.561089
	   46 D(6,3,7,11)     =   -173.849760     0.000000     0.025982  -173.823778
	   47 D(6,3,7,12)     =    -55.369271     0.000000     0.018627   -55.350644
	   48 D(6,3,7,13)     =     65.395042     0.000000     0.024469    65.419511
	   49 D(7,3,6,8)      =     54.795661    -0.000000    -0.019311    54.776351
	   50 D(7,3,6,9)      =    173.186060    -0.000000    -0.026131   173.159929
	   51 D(7,3,6,10)     =    -65.822018    -0.000000    -0.027650   -65.849668
	 ---------------------------------------------------------------------------

  ==> Convergence Check <==

  Measures of convergence in internal coordinates in au.
  Criteria marked as inactive (o), active & met (*), and active & unmet ( ).
  ---------------------------------------------------------------------------------------------
   Step     Total Energy     Delta E     MAX Force     RMS Force      MAX Disp      RMS Disp   
  ---------------------------------------------------------------------------------------------
    Convergence Criteria    1.00e-06 *    3.00e-04 *             o    1.20e-03 *             o
  ---------------------------------------------------------------------------------------------
      5    -173.32771705   -1.49e-06      5.31e-05 *    1.64e-05 o    4.83e-04 *    1.99e-04 o  ~
  ---------------------------------------------------------------------------------------------


  **** Optimization is complete! (in 5 steps) ****

  ==> Optimization Summary <==

  Measures of convergence in internal coordinates in au.
  --------------------------------------------------------------------------------------------------------------- ~
   Step         Total Energy             Delta E       MAX Force       RMS Force        MAX Disp        RMS Disp  ~
  --------------------------------------------------------------------------------------------------------------- ~
      1    -173.326926335475   -173.326926335475      0.01371152      0.00265119      0.06728912      0.02729843  ~
      2    -173.327559016069     -0.000632680594      0.00679074      0.00134921      0.01289029      0.00592642  ~
      3    -173.327705316058     -0.000146299989      0.00090708      0.00023971      0.01186667      0.00347244  ~
      4    -173.327715559786     -0.000010243727      0.00038788      0.00008269      0.00618090      0.00180128  ~
      5    -173.327717047961     -0.000001488176      0.00005313      0.00001644      0.00048259      0.00019911  ~
  --------------------------------------------------------------------------------------------------------------- ~

	Writing optimization data to binary file.
	Final energy is   -173.3277170479613
	Final (previous) structure:
	Cartesian Geometry (in Angstrom)
	    H    -0.6742839357   2.0832630895  -0.1538003809
	    C     0.0722149081   1.3869499100   0.2137424822
	    N    -0.2387537862   0.0233029402  -0.1816529808
	    H     1.0291411156   1.7003954614  -0.1878742449
	    H     0.1320437353   1.4922874042   1.2928438240
	    C     0.7804110771  -0.5973533112  -0.9897963900
	    C    -0.6762136465  -0.8064461486   0.9117742686
	    H     0.4354471473  -1.5629129537  -1.3386779278
	    H     0.9868670088   0.0120050118  -1.8603458529
	    H     1.7227135427  -0.7517363493  -0.4544413499
	    H    -1.5125269261  -0.3417320294   1.4189846998
	    H    -1.0105766430  -1.7662847184   0.5377958231
	    H     0.1079921936  -0.9884394276   1.6534664678
	Saving final (previous) structure.
			--------------------------
			 OPTKING Finished Execution 
			--------------------------

    Final optimized geometry and variables:
    Molecular point group: c1
    Full point group: C1

    Geometry (in Angstrom), charge = 0, multiplicity = 1:

    H           -0.674283884242     2.083262930445    -0.153800369162
    C            0.072214902610     1.386949804119     0.213742465878
    N           -0.238753767945     0.023302938439    -0.181652966970
    H            1.029141036964     1.700395331557    -0.187874230554
    H            0.132043725246     1.492287290208     1.292843725239
    C            0.780411017457    -0.597353265537    -0.989796314402
    C           -0.676213594841    -0.806446087038     0.911774198955
    H            0.435447114041    -1.562912834353    -1.338677825536
    H            0.986866933474     0.012005010895    -1.860345710836
    H            1.722713411151    -0.751736291938    -0.454441315224
    H           -1.512526810606    -0.341732003353     1.418984591392
    H           -1.010576565838    -1.766284583479     0.537795782081
    H            0.107992185373    -0.988439352080     1.653466341502

	Cleaning optimization helper files.


Properties will be evaluated at   0.000000,   0.000000,   0.000000 Bohr

Properties computed using the  density matrix

  Nuclear Dipole Moment: (a.u.)
     X:     1.1414      Y:    -0.1155      Z:     0.8517

  Electronic Dipole Moment: (a.u.)
     X:    -0.9377      Y:     0.1153      Z:    -0.7056

  Dipole Moment: (a.u.)
     X:     0.2038      Y:    -0.0002      Z:     0.1461     Total:     0.2507

  Dipole Moment: (Debye)
     X:     0.5179      Y:    -0.0006      Z:     0.3714     Total:     0.6373

  Quadrupole Moment: (Debye Ang)
    XX:   -28.2121     YY:   -26.5301     ZZ:   -27.4793
    XY:     0.4022     XZ:    -1.2530     YZ:     0.2403

  Traceless Quadrupole Moment: (Debye Ang)
    XX:    -0.8049     YY:     0.8771     ZZ:    -0.0721
    XY:     0.4022     XZ:    -1.2530     YZ:     0.2403

  Mulliken Charges: (a.u.)
   Center  Symbol    Alpha    Beta     Spin     Total
       1     H     0.45135  0.45135  0.00000  0.09730
       2     C     3.08493  3.08493  0.00000 -0.16987
       3     N     3.59896  3.59896  0.00000 -0.19792
       4     H     0.46112  0.46112  0.00000  0.07777
       5     H     0.46375  0.46375  0.00000  0.07250
       6     C     3.09005  3.09005  0.00000 -0.18011
       7     C     3.09043  3.09043  0.00000 -0.18086
       8     H     0.45375  0.45375  0.00000  0.09250
       9     H     0.45234  0.45234  0.00000  0.09532
      10     H     0.47365  0.47365  0.00000  0.05271
      11     H     0.45220  0.45220  0.00000  0.09561
      12     H     0.45383  0.45383  0.00000  0.09235
      13     H     0.47365  0.47365  0.00000  0.05270

   Total alpha = 17.00000, Total beta = 17.00000, Total charge = -0.00000


*** PSI4 exiting successfully. Buy a developer a beer!
