    -----------------------------------------------------------------------
          Psi4: An Open-Source Ab Initio Electronic Structure Package
                              Psi4 (no tag) Driver

                          Git: Rev {detached?}  

    J. M. Turney, A. C. Simmonett, R. M. Parrish, E. G. Hohenstein,
    F. A. Evangelista, J. T. Fermann, B. J. Mintz, L. A. Burns, J. J. Wilke,
    M. L. Abrams, N. J. Russ, M. L. Leininger, C. L. Janssen, E. T. Seidl,
    W. D. Allen, H. F. Schaefer, R. A. King, E. F. Valeev, C. D. Sherrill,
    and T. D. Crawford, WIREs Comput. Mol. Sci. 2, 556-565 (2012)
    (doi: 10.1002/wcms.93)

                         Additional Contributions by
    A. E. DePrince, M. Saitow, U. Bozkaya, A. Yu. Sokolov
    -----------------------------------------------------------------------


    Psi4 started on: Fri Sep  2 13:39:39 2016

    Process ID:  29544
    PSI4DATADIR: /export131/home/mjharvey/miniconda3/share
    Memory level set to 256.000 MB

  ==> Input File <==

--------------------------------------------------------------------------
set {
	reference rhf
	basis 6-31G*
}


set_num_threads( 4 )
memory 2 gb

molecule MOL {
0 1

O	 1.470187	 1.951638	 0.411430
C	 0.588604	 2.058877	 1.201639
C	 -0.712384	 1.294283	 1.175348
O	 0.639710	 2.884998	 2.238967
C	 -0.823008	 0.326187	 0.001381
H	 -0.802226	 0.773651	 2.124866
H	 -1.517508	 2.023870	 1.161285
C	 -2.149452	 -0.435131	 -0.000098
H	 0.004819	 -0.374975	 0.036894
H	 -0.712344	 0.876568	 -0.927674
C	 -3.368779	 0.488503	 -0.000883
H	 -2.193746	 -1.087250	 -0.871175
H	 -2.195311	 -1.087803	 0.870418
C	 -4.693822	 -0.272754	 -0.001129
H	 -3.325798	 1.139422	 -0.871284
H	 -3.326423	 1.139959	 0.869145
H	 -4.781274	 -0.907928	 -0.878124
H	 -5.538651	 0.408946	 -0.001420
H	 -4.781694	 -0.907783	 0.875984
C	 1.813231	 3.664181	 2.382769
H	 2.679360	 3.028776	 2.499429
H	 1.664715	 4.260514	 3.269451
H	 1.953970	 4.301799	 1.521873

	symmetry c1
}
set optking {
	frozen_dihedral = ("
		9 5 8 12
	")
}

ee = optimize('scf')
oeprop('DIPOLE', 'QUADRUPOLE', 'MULLIKEN_CHARGES')
f=open( 'psi4out.xyz', 'w' )
f.write( "23  " )
f.write( str(ee) + "\n" )
f.write( MOL.save_string_xyz() )
f.close()
--------------------------------------------------------------------------

  Memory set to   2.000 GiB by Python script.
gradient() will perform analytic gradient computation.

*** tstart() called on cx1-1-1-1.cx1.hpc.ic.ac.uk
*** at Fri Sep  2 13:39:40 2016


         ---------------------------------------------------------
                                   SCF
            by Justin Turney, Rob Parrish, and Andy Simmonett
                              RHF Reference
                        4 Threads,   2000 MiB Core
         ---------------------------------------------------------

  ==> Geometry <==

    Molecular point group: c1
    Full point group: C1

    Geometry (in Angstrom), charge = 0, multiplicity = 1:

       Center              X                  Y                   Z               Mass       
    ------------   -----------------  -----------------  -----------------  -----------------
           O          2.249981522266     0.594633662286    -0.428363469403    15.994914619560
           C          1.368398522266     0.701872662286     0.361845530597    12.000000000000
           C          0.067410522266    -0.062721337714     0.335554530597    12.000000000000
           O          1.419504522266     1.527993662286     1.399173530597    15.994914619560
           C         -0.043213477734    -1.030817337714    -0.838412469403    12.000000000000
           H         -0.022431477734    -0.583353337714     1.285072530597     1.007825032070
           H         -0.737713477734     0.666865662286     0.321491530597     1.007825032070
           C         -1.369657477734    -1.792135337714    -0.839891469403    12.000000000000
           H          0.784613522266    -1.731979337714    -0.802899469403     1.007825032070
           H          0.067450522266    -0.480436337714    -1.767467469403     1.007825032070
           C         -2.588984477734    -0.868501337714    -0.840676469403    12.000000000000
           H         -1.413951477734    -2.444254337714    -1.710968469403     1.007825032070
           H         -1.415516477734    -2.444807337714     0.030624530597     1.007825032070
           C         -3.914027477734    -1.629758337714    -0.840922469403    12.000000000000
           H         -2.546003477734    -0.217582337714    -1.711077469403     1.007825032070
           H         -2.546628477734    -0.217045337714     0.029351530597     1.007825032070
           H         -4.001479477734    -2.264932337714    -1.717917469403     1.007825032070
           H         -4.758856477734    -0.948058337714    -0.841213469403     1.007825032070
           H         -4.001899477734    -2.264787337714     0.036190530597     1.007825032070
           C          2.593025522266     2.307176662286     1.542975530597    12.000000000000
           H          3.459154522266     1.671771662286     1.659635530597     1.007825032070
           H          2.444509522266     2.903509662286     2.429657530597     1.007825032070
           H          2.733764522266     2.944794662286     0.682079530597     1.007825032070

  Running in c1 symmetry.

  Rotational constants: A =      0.15199  B =      0.01902  C =      0.01756 [cm^-1]
  Rotational constants: A =   4556.59007  B =    570.07606  C =    526.44363 [MHz]
  Nuclear repulsion =  459.754951865766031

  Charge       = 0
  Multiplicity = 1
  Electrons    = 72
  Nalpha       = 36
  Nbeta        = 36

  ==> Algorithm <==

  SCF Algorithm Type is DF.
  DIIS enabled.
  MOM disabled.
  Fractional occupation disabled.
  Guess Type is CORE.
  Energy threshold   = 1.00e-08
  Density threshold  = 1.00e-08
  Integral threshold = 0.00e+00

  ==> Primary Basis <==

  Basis Set: 6-31G*
    Number of shells: 82
    Number of basis function: 163
    Number of Cartesian functions: 163
    Spherical Harmonics?: false
    Max angular momentum: 2

  ==> Pre-Iterations <==

   -------------------------------------------------------
    Irrep   Nso     Nmo     Nalpha   Nbeta   Ndocc  Nsocc
   -------------------------------------------------------
     A        163     163       0       0       0       0
   -------------------------------------------------------
    Total     163     163      36      36      36       0
   -------------------------------------------------------

 OEINTS: Overlap, kinetic, potential, dipole, and quadrupole integrals
         stored in file 35.

  ==> Integral Setup <==

  ==> DFJK: Density-Fitted J/K Matrices <==

    J tasked:                  Yes
    K tasked:                  Yes
    wK tasked:                  No
    OpenMP threads:              4
    Integrals threads:           4
    Memory (MB):              1430
    Algorithm:                Core
    Integral Cache:           NONE
    Schwarz Cutoff:          1E-12
    Fitting Condition:       1E-12

   => Auxiliary Basis Set <=

  Basis Set: 
    Number of shells: 342
    Number of basis function: 1079
    Number of Cartesian functions: 1079
    Spherical Harmonics?: false
    Max angular momentum: 3

  Minimum eigenvalue in the overlap matrix is 2.4886915937E-03.
  Using Symmetric Orthogonalization.
  SCF Guess: Core (One-Electron) Hamiltonian.

  ==> Iterations <==

                           Total Energy        Delta E     RMS |[F,P]|

   @DF-RHF iter   1:  -278.36603642038898   -2.78366e+02   7.22758e-02 
   @DF-RHF iter   2:   -40.43297894824536    2.37933e+02   8.15991e-02 DIIS
   @DF-RHF iter   3:  -229.68666524246083   -1.89254e+02   6.31229e-02 DIIS
   @DF-RHF iter   4:  -272.78645313856811   -4.30998e+01   7.07250e-02 DIIS
   @DF-RHF iter   5:  -406.03431027118637   -1.33248e+02   2.30959e-02 DIIS
   @DF-RHF iter   6:  -401.24205988091381    4.79225e+00   2.90542e-02 DIIS
   @DF-RHF iter   7:  -422.66587374485022   -2.14238e+01   5.02410e-03 DIIS
   @DF-RHF iter   8:  -422.86278047737056   -1.96907e-01   3.31952e-03 DIIS
   @DF-RHF iter   9:  -422.96889041731055   -1.06110e-01   4.59549e-04 DIIS
   @DF-RHF iter  10:  -422.97236002768483   -3.46961e-03   1.71195e-04 DIIS
   @DF-RHF iter  11:  -422.97293052480444   -5.70497e-04   7.01996e-05 DIIS
   @DF-RHF iter  12:  -422.97302280529635   -9.22805e-05   2.43879e-05 DIIS
   @DF-RHF iter  13:  -422.97303505607471   -1.22508e-05   7.73566e-06 DIIS
   @DF-RHF iter  14:  -422.97303668040144   -1.62433e-06   2.64795e-06 DIIS
   @DF-RHF iter  15:  -422.97303683247179   -1.52070e-07   8.81043e-07 DIIS
   @DF-RHF iter  16:  -422.97303685727121   -2.47994e-08   2.32750e-07 DIIS
   @DF-RHF iter  17:  -422.97303685933520   -2.06398e-09   8.43116e-08 DIIS
   @DF-RHF iter  18:  -422.97303685954347   -2.08274e-10   2.96118e-08 DIIS
   @DF-RHF iter  19:  -422.97303685957166   -2.81943e-11   6.85119e-09 DIIS

  ==> Post-Iterations <==

    Orbital Energies (a.u.)
    -----------------------

    Doubly Occupied:                                                      

       1A    -20.603455     2A    -20.545057     3A    -11.371937  
       4A    -11.280724     5A    -11.234504     6A    -11.219223  
       7A    -11.218429     8A    -11.217709     9A    -11.211103  
      10A     -1.469078    11A     -1.362472    12A     -1.096474  
      13A     -1.040790    14A     -0.987117    15A     -0.932833  
      16A     -0.851509    17A     -0.793174    18A     -0.762888  
      19A     -0.702399    20A     -0.682271    21A     -0.671972  
      22A     -0.638080    23A     -0.621336    24A     -0.599669  
      25A     -0.577531    26A     -0.557852    27A     -0.555359  
      28A     -0.527471    29A     -0.520160    30A     -0.510975  
      31A     -0.490779    32A     -0.467587    33A     -0.465453  
      34A     -0.457187    35A     -0.452467    36A     -0.437184  

    Virtual:                                                              

      37A      0.199288    38A      0.227820    39A      0.251245  
      40A      0.265180    41A      0.267179    42A      0.277540  
      43A      0.307887    44A      0.312670    45A      0.316688  
      46A      0.322093    47A      0.328934    48A      0.336018  
      49A      0.338949    50A      0.352226    51A      0.352511  
      52A      0.367951    53A      0.411050    54A      0.430990  
      55A      0.432644    56A      0.440557    57A      0.487256  
      58A      0.539810    59A      0.575799    60A      0.709462  
      61A      0.726091    62A      0.730689    63A      0.734455  
      64A      0.751519    65A      0.760136    66A      0.780800  
      67A      0.787426    68A      0.801607    69A      0.836364  
      70A      0.874542    71A      0.885206    72A      0.946890  
      73A      0.955287    74A      0.961085    75A      0.982545  
      76A      1.005078    77A      1.023299    78A      1.039632  
      79A      1.095137    80A      1.118827    81A      1.127096  
      82A      1.130241    83A      1.141036    84A      1.144865  
      85A      1.155032    86A      1.165792    87A      1.186747  
      88A      1.189516    89A      1.197702    90A      1.201131  
      91A      1.213952    92A      1.220806    93A      1.239196  
      94A      1.241060    95A      1.261335    96A      1.284796  
      97A      1.302765    98A      1.313344    99A      1.346501  
     100A      1.382273   101A      1.417878   102A      1.520865  
     103A      1.556283   104A      1.631567   105A      1.664881  
     106A      1.679438   107A      1.711454   108A      1.733429  
     109A      1.798862   110A      1.832912   111A      1.867859  
     112A      1.881652   113A      1.939473   114A      1.954017  
     115A      2.004157   116A      2.029853   117A      2.099510  
     118A      2.131101   119A      2.166932   120A      2.196764  
     121A      2.210690   122A      2.217490   123A      2.249789  
     124A      2.284201   125A      2.292116   126A      2.307732  
     127A      2.328079   128A      2.372459   129A      2.389093  
     130A      2.400730   131A      2.445084   132A      2.450227  
     133A      2.500869   134A      2.518171   135A      2.597456  
     136A      2.621326   137A      2.663414   138A      2.673235  
     139A      2.698333   140A      2.718075   141A      2.746860  
     142A      2.770865   143A      2.827874   144A      2.851427  
     145A      2.899985   146A      2.923173   147A      3.016029  
     148A      3.057659   149A      3.069066   150A      3.157498  
     151A      3.165922   152A      3.349824   153A      3.451518  
     154A      3.581935   155A      4.417332   156A      4.547136  
     157A      4.604875   158A      4.649563   159A      4.715451  
     160A      4.780004   161A      4.833908   162A      4.913159  
     163A      5.031410  

    Final Occupation by Irrep:
              A 
    DOCC [    36 ]

  Energy converged.

  @DF-RHF Final Energy:  -422.97303685957166

   => Energetics <=

    Nuclear Repulsion Energy =            459.7549518657660315
    One-Electron Energy =               -1487.1875626462119726
    Two-Electron Energy =                 604.4595739208750729
    DFT Exchange-Correlation Energy =       0.0000000000000000
    Empirical Dispersion Energy =           0.0000000000000000
    PCM Polarization Energy =               0.0000000000000000
    EFP Energy =                            0.0000000000000000
    Total Energy =                       -422.9730368595708114

    Alert: EFP and PCM quantities not currently incorporated into SCF psivars.

Properties will be evaluated at   0.000000,   0.000000,   0.000000 Bohr
  ==> Properties <==


Properties computed using the SCF density matrix

  Nuclear Dipole Moment: (a.u.)
     X:   -11.1898      Y:    -5.0618      Z:    -1.9429

  Electronic Dipole Moment: (a.u.)
     X:    10.7772      Y:     5.2609      Z:     2.4808

  Dipole Moment: (a.u.)
     X:    -0.4127      Y:     0.1991      Z:     0.5379     Total:     0.7066

  Dipole Moment: (Debye)
     X:    -1.0489      Y:     0.5061      Z:     1.3672     Total:     1.7960


  Saving occupied orbitals to File 180.

*** tstop() called on cx1-1-1-1.cx1.hpc.ic.ac.uk at Fri Sep  2 13:39:49 2016
Module time:
	user time   =      28.55 seconds =       0.48 minutes
	system time =       0.36 seconds =       0.01 minutes
	total time  =          9 seconds =       0.15 minutes
Total time:
	user time   =      28.55 seconds =       0.48 minutes
	system time =       0.36 seconds =       0.01 minutes
	total time  =          9 seconds =       0.15 minutes

*** tstart() called on cx1-1-1-1.cx1.hpc.ic.ac.uk
*** at Fri Sep  2 13:39:49 2016


         ------------------------------------------------------------
                                   SCF GRAD                          
                          Rob Parrish, Justin Turney,                
                       Andy Simmonett, and Alex Sokolov              
         ------------------------------------------------------------

  ==> Geometry <==

    Molecular point group: c1
    Full point group: C1

    Geometry (in Angstrom), charge = 0, multiplicity = 1:

       Center              X                  Y                   Z               Mass       
    ------------   -----------------  -----------------  -----------------  -----------------
           O          2.249981522266     0.594633662286    -0.428363469403    15.994914619560
           C          1.368398522266     0.701872662286     0.361845530597    12.000000000000
           C          0.067410522266    -0.062721337714     0.335554530597    12.000000000000
           O          1.419504522266     1.527993662286     1.399173530597    15.994914619560
           C         -0.043213477734    -1.030817337714    -0.838412469403    12.000000000000
           H         -0.022431477734    -0.583353337714     1.285072530597     1.007825032070
           H         -0.737713477734     0.666865662286     0.321491530597     1.007825032070
           C         -1.369657477734    -1.792135337714    -0.839891469403    12.000000000000
           H          0.784613522266    -1.731979337714    -0.802899469403     1.007825032070
           H          0.067450522266    -0.480436337714    -1.767467469403     1.007825032070
           C         -2.588984477734    -0.868501337714    -0.840676469403    12.000000000000
           H         -1.413951477734    -2.444254337714    -1.710968469403     1.007825032070
           H         -1.415516477734    -2.444807337714     0.030624530597     1.007825032070
           C         -3.914027477734    -1.629758337714    -0.840922469403    12.000000000000
           H         -2.546003477734    -0.217582337714    -1.711077469403     1.007825032070
           H         -2.546628477734    -0.217045337714     0.029351530597     1.007825032070
           H         -4.001479477734    -2.264932337714    -1.717917469403     1.007825032070
           H         -4.758856477734    -0.948058337714    -0.841213469403     1.007825032070
           H         -4.001899477734    -2.264787337714     0.036190530597     1.007825032070
           C          2.593025522266     2.307176662286     1.542975530597    12.000000000000
           H          3.459154522266     1.671771662286     1.659635530597     1.007825032070
           H          2.444509522266     2.903509662286     2.429657530597     1.007825032070
           H          2.733764522266     2.944794662286     0.682079530597     1.007825032070

  Nuclear repulsion =  459.754951865766031

  ==> Basis Set <==

  Basis Set: 6-31G*
    Number of shells: 82
    Number of basis function: 163
    Number of Cartesian functions: 163
    Spherical Harmonics?: false
    Max angular momentum: 2

  ==> DFJKGrad: Density-Fitted SCF Gradients <==

    Gradient:                    1
    J tasked:                  Yes
    K tasked:                  Yes
    wK tasked:                  No
    OpenMP threads:              4
    Integrals threads:           4
    Memory (MB):              1430
    Schwarz Cutoff:          0E+00
    Fitting Condition:       1E-12

   => Auxiliary Basis Set <=

  Basis Set: 
    Number of shells: 342
    Number of basis function: 1079
    Number of Cartesian functions: 1079
    Spherical Harmonics?: false
    Max angular momentum: 3


  -Total Gradient:
     Atom            X                  Y                   Z
    ------   -----------------  -----------------  -----------------
       1       -0.000036385892    -0.000313414838     0.000171804175
       2       -0.000188958407     0.001132303656    -0.000198268883
       3       -0.001307047181    -0.002244044832    -0.000237560341
       4        0.000121023301    -0.000215352856     0.000024772056
       5       -0.001513501245     0.000739841789     0.000868307359
       6        0.000135494385     0.000244991761    -0.000288953407
       7       -0.004431686410    -0.000190591967    -0.000834147536
       8        0.001484247834    -0.000254966222    -0.000443674516
       9        0.000290154744    -0.000352705919     0.000224005421
      10        0.000141571084    -0.000366012285    -0.000087814198
      11        0.002482429734     0.001290786515    -0.000506831021
      12       -0.001110403118    -0.000884494277    -0.000853434054
      13        0.000066333559    -0.000129488656    -0.000237182955
      14        0.000123945676    -0.000234462064     0.000229901078
      15       -0.000165565460    -0.000360032811     0.000425027352
      16        0.003966500138     0.002135242243     0.001767214056
      17       -0.000041435065    -0.000021717679    -0.000069697678
      18        0.000084559285     0.000052652049    -0.000001272744
      19       -0.000098965469    -0.000032948612     0.000030559824
      20       -0.000000647759     0.000035497969     0.000053666474
      21        0.000001412240    -0.000002730805    -0.000005551986
      22        0.000001872418    -0.000021486957    -0.000031993654
      23       -0.000004948399    -0.000006865204     0.000001125179


*** tstop() called on cx1-1-1-1.cx1.hpc.ic.ac.uk at Fri Sep  2 13:39:58 2016
Module time:
	user time   =      33.75 seconds =       0.56 minutes
	system time =       0.30 seconds =       0.01 minutes
	total time  =          9 seconds =       0.15 minutes
Total time:
	user time   =      62.32 seconds =       1.04 minutes
	system time =       0.66 seconds =       0.01 minutes
	total time  =         18 seconds =       0.30 minutes
CURRENT ENERGY: -422.9730368596

			-----------------------------------------
			 OPTKING 2.0: for geometry optimizations 
			  - R.A. King,  Bethel University        
			-----------------------------------------

	Internal coordinates to be generated automatically.
	Detected frag with atoms:  1 2 3 4 5 6 7 8 9 10 11 12 13 14 15 16 17 18 19 20
	 21 22 23
	---Fragment 1 Bond Connectivity---
	 1 : 2
	 2 : 1 3 4
	 3 : 2 5 6 7
	 4 : 2 20
	 5 : 3 8 9 10
	 6 : 3
	 7 : 3
	 8 : 5 11 12 13
	 9 : 5
	 10 : 5
	 11 : 8 14 15 16
	 12 : 8
	 13 : 8
	 14 : 11 17 18 19
	 15 : 11
	 16 : 11
	 17 : 14
	 18 : 14
	 19 : 14
	 20 : 4 21 22 23
	 21 : 20
	 22 : 20
	 23 : 20

	Assuming in current code that numbering for constraints corresponds to unified fragment.
	Frozen dihedral atom list: 
	     9     5     8    12
	---Fragment 1 Geometry and Gradient---
	 O           4.2518488811        1.1236947711       -0.8094896425
	 C           2.5858984477        1.3263471119        0.6837889552
	 C           0.1273874256       -0.1185261510        0.6341061655
	 O           2.6824747915        2.8874895545        2.6440547852
	 C          -0.0816616382       -1.9479624613       -1.5843699536
	 H          -0.0423893497       -1.1023780470        2.4284351437
	 H          -1.3940764375        1.2601934691        0.6075309469
	 C          -2.5882775288       -3.3866449813       -1.5871648585
	 H           1.4827046772       -3.2729666161       -1.5172601094
	 H           0.1274630146       -0.9078931026       -3.3400294660
	 C          -4.8924716252       -1.6412296743       -1.5886482935
	 H          -2.6719810581       -4.6189712974       -3.2332618292
	 H          -2.6749384795       -4.6200163159        0.0578719758
	 C          -7.3964400095       -3.0797969211       -1.5891131662
	 H          -4.8112493063       -0.4111710296       -3.2334678093
	 H          -4.8124303851       -0.4101562467        0.0554663544
	 H          -7.5617003393       -4.2801018278       -3.2463935361
	 H          -8.9929354486       -1.7915706163       -1.5896630765
	 H          -7.5624940243       -4.2798278175        0.0683901914
	 C           4.9001080927        4.3599320319        2.9158011826
	 H           6.5368546984        3.1591905984        3.1362566332
	 H           4.6194535263        5.4868380859        4.5913873295
	 H           5.1660662589        5.5648554293        1.2889435137
	            -0.0000363859       -0.0003134148        0.0001718042
	            -0.0001889584        0.0011323037       -0.0001982689
	            -0.0013070472       -0.0022440448       -0.0002375603
	             0.0001210233       -0.0002153529        0.0000247721
	            -0.0015135012        0.0007398418        0.0008683074
	             0.0001354944        0.0002449918       -0.0002889534
	            -0.0044316864       -0.0001905920       -0.0008341475
	             0.0014842478       -0.0002549662       -0.0004436745
	             0.0002901547       -0.0003527059        0.0002240054
	             0.0001415711       -0.0003660123       -0.0000878142
	             0.0024824297        0.0012907865       -0.0005068310
	            -0.0011104031       -0.0008844943       -0.0008534341
	             0.0000663336       -0.0001294887       -0.0002371830
	             0.0001239457       -0.0002344621        0.0002299011
	            -0.0001655655       -0.0003600328        0.0004250274
	             0.0039665001        0.0021352422        0.0017672141
	            -0.0000414351       -0.0000217177       -0.0000696977
	             0.0000845593        0.0000526520       -0.0000012727
	            -0.0000989655       -0.0000329486        0.0000305598
	            -0.0000006478        0.0000354980        0.0000536665
	             0.0000014122       -0.0000027308       -0.0000055520
	             0.0000018724       -0.0000214870       -0.0000319937
	            -0.0000049484       -0.0000068652        0.0000011252

	Previous optimization step data not found.  Starting new optimization.

	---Fragment 1 Intrafragment Coordinates---
	 - Coordinate -           - BOHR/RAD -       - ANG/DEG -
	 R(1,2)           =         2.246406	       1.188747
	 R(2,3)           =         2.852088	       1.509260
	 R(2,4)           =         2.507815	       1.327079
	 R(3,5)           =         2.883084	       1.525663
	 R(3,6)           =         2.053389	       1.086607
	 R(3,7)           =         2.053394	       1.086609
	 R(4,20)          =         2.675786	       1.415965
	 R(5,8)           =         2.890145	       1.529399
	 R(5,9)           =         2.051190	       1.085443
	 R(5,10)          =         2.051297	       1.085499
	 R(8,11)          =         2.890638	       1.529660
	 R(8,12)          =         2.057977	       1.089035
	 R(8,13)          =         2.057878	       1.088982
	 R(11,14)         =         2.887790	       1.528153
	 R(11,15)         =         2.055498	       1.087723
	 R(11,16)         =         2.055495	       1.087721
	 R(14,17)         =         2.052954	       1.086377
	 R(14,18)         =         2.051420	       1.085565
	 R(14,19)         =         2.053038	       1.086421
	 R(20,21)         =         2.041891	       1.080522
	 R(20,22)         =         2.038694	       1.078830
	 R(20,23)         =         2.041872	       1.080512
	 B(1,2,3)         =         2.191966	     125.590427
	 B(1,2,4)         =         2.149814	     123.175269
	 B(2,3,5)         =         1.979442	     113.413681
	 B(2,3,6)         =         1.874211	     107.384379
	 B(2,3,7)         =         1.874208	     107.384219
	 B(2,4,20)        =         2.041887	     116.991489
	 B(3,2,4)         =         1.941399	     111.233995
	 B(3,5,8)         =         1.960051	     112.302628
	 B(3,5,9)         =         1.906484	     109.233481
	 B(3,5,10)        =         1.906525	     109.235841
	 B(4,20,21)       =         1.930186	     110.591536
	 B(4,20,22)       =         1.847879	     105.875676
	 B(4,20,23)       =         1.930248	     110.595062
	 B(5,3,6)         =         1.941610	     111.246087
	 B(5,3,7)         =         1.941605	     111.245748
	 B(5,8,11)        =         1.972264	     113.002426
	 B(5,8,12)        =         1.911475	     109.519476
	 B(5,8,13)        =         1.911442	     109.517575
	 B(6,3,7)         =         1.846012	     105.768716
	 B(8,5,9)         =         1.917640	     109.872681
	 B(8,5,10)        =         1.917698	     109.875977
	 B(8,11,14)       =         1.971842	     112.978247
	 B(8,11,15)       =         1.907366	     109.283996
	 B(8,11,16)       =         1.907297	     109.280077
	 B(9,5,10)        =         1.852275	     106.127521
	 B(11,8,12)       =         1.905762	     109.192110
	 B(11,8,13)       =         1.905759	     109.191968
	 B(11,14,17)      =         1.940337	     111.173098
	 B(11,14,18)      =         1.941184	     111.221623
	 B(11,14,19)      =         1.940330	     111.172733
	 B(12,8,13)       =         1.853337	     106.188375
	 B(14,11,15)      =         1.909476	     109.404888
	 B(14,11,16)      =         1.909482	     109.405236
	 B(15,11,16)      =         1.854704	     106.266695
	 B(17,14,18)      =         1.879991	     107.715552
	 B(17,14,19)      =         1.879138	     107.666701
	 B(18,14,19)      =         1.880029	     107.717699
	 B(21,20,22)      =         1.924809	     110.283422
	 B(21,20,23)      =         1.905648	     109.185563
	 B(22,20,23)      =         1.924724	     110.278578
	 D(1,2,3,5)       =        -0.001928	      -0.110468
	 D(1,2,3,6)       =         2.150469	     123.212799
	 D(1,2,3,7)       =        -2.154316	    -123.433187
	 D(1,2,4,20)      =         0.001780	       0.101964
	 D(2,3,5,8)       =         3.140938	     179.962516
	 D(2,3,5,9)       =         1.008890	      57.805140
	 D(2,3,5,10)      =        -1.010096	     -57.874254
	 D(2,4,20,21)     =        -1.056367	     -60.525371
	 D(2,4,20,22)     =        -3.141387	    -179.988235
	 D(2,4,20,23)     =         1.056846	      60.552797
	 D(3,2,4,20)      =         3.140019	     179.909834
	 D(3,5,8,11)      =         0.981592	      56.241061
	 D(3,5,8,12)      =         3.110286	     178.206260
	 D(3,5,8,13)      =        -1.147075	     -65.722584
	 D(4,2,3,5)       =        -3.140069	    -179.912713
	 D(4,2,3,6)       =        -0.987672	     -56.589446
	 D(4,2,3,7)       =         0.990729	      56.764567
	 D(5,8,11,14)     =        -3.140717	    -179.949839
	 D(5,8,11,15)     =         1.012262	      57.998328
	 D(5,8,11,16)     =        -1.010552	     -57.900380
	 D(6,3,5,8)       =         1.025991	      58.784949
	 D(6,3,5,9)       =        -1.106058	     -63.372427
	 D(6,3,5,10)      =        -3.125044	    -179.051821
	 D(7,3,5,8)       =        -1.027307	     -58.860376
	 D(7,3,5,9)       =         3.123830	     178.982247
	 D(7,3,5,10)      =         1.104843	      63.302853
	 D(8,11,14,17)    =        -1.046926	     -59.984421
	 D(8,11,14,18)    =         3.141329	     179.984868
	 D(8,11,14,19)    =         1.046354	      59.951684
	 D(9,5,8,11)      =         3.107293	     178.034783
	*D(9,5,8,12)      =        -1.047198	     -60.000017
	 D(9,5,8,13)      =         0.978626	      56.071139
	 D(10,5,8,11)     =        -1.144203	     -65.558004
	 D(10,5,8,12)     =         0.984491	      56.407195
	 D(10,5,8,13)     =         3.010315	     172.478351
	 D(12,8,11,14)    =         1.010569	      57.901330
	 D(12,8,11,15)    =        -1.119638	     -64.150503
	 D(12,8,11,16)    =         3.140734	     179.950789
	 D(13,8,11,14)    =        -1.008862	     -57.803545
	 D(13,8,11,15)    =        -3.139069	    -179.855378
	 D(13,8,11,16)    =         1.121303	      64.245914
	 D(15,11,14,17)   =         1.082096	      61.999540
	 D(15,11,14,18)   =        -1.012835	     -58.031171
	 D(15,11,14,19)   =        -3.107809	    -178.064355
	 D(16,11,14,17)   =         3.107321	     178.036391
	 D(16,11,14,18)   =         1.012390	      58.005680
	 D(16,11,14,19)   =        -1.082584	     -62.027504

	Current energy   :      -422.9730368596

	Generating empirical Hessian (Schlegel '84) for each fragment.
	Taking RFO optimization step.
	Going to follow RFO solution 1.
	Using RFO vector 1.
	Norm of target step-size    0.43958
	Projected energy change by RFO approximation:        -0.0117339871

	Back-transformation to cartesian coordinates...
	Successfully converged to displaced geometry.

	Back-transformation to cartesian coordinates to adjust frozen coordinates...
	Successfully converged to displaced geometry.

	--- Internal Coordinate Step in ANG or DEG, aJ/ANG or AJ/DEG ---
	 ---------------------------------------------------------------------------
	   Coordinate                Previous        Force       Change         New 
	   ----------                --------       ------       ------       ------
	    1 R(1,2)          =      1.188747     0.000930     0.000054     1.188801
	    2 R(2,3)          =      1.509260    -0.001782    -0.000358     1.508902
	    3 R(2,4)          =      1.327079     0.000774     0.000082     1.327160
	    4 R(3,5)          =      1.525663     0.020207     0.004274     1.529937
	    5 R(3,6)          =      1.086607     0.003140     0.000564     1.087171
	    6 R(3,7)          =      1.086609    -0.026088    -0.004687     1.081922
	    7 R(4,20)         =      1.415965    -0.000019    -0.000003     1.415962
	    8 R(5,8)          =      1.529399     0.054932     0.011754     1.541153
	    9 R(5,9)          =      1.085443    -0.003761    -0.000673     1.084770
	   10 R(5,10)         =      1.085499     0.000791     0.000142     1.085641
	   11 R(8,11)         =      1.529660     0.027644     0.005920     1.535579
	   12 R(8,12)         =      1.089035    -0.010360    -0.001876     1.087158
	   13 R(8,13)         =      1.088982     0.000946     0.000171     1.089153
	   14 R(11,14)        =      1.528153    -0.000484    -0.000103     1.528050
	   15 R(11,15)        =      1.087723     0.004631     0.000835     1.088558
	   16 R(11,16)        =      1.087721    -0.023454    -0.004230     1.083492
	   17 R(14,17)        =      1.086377    -0.000596    -0.000107     1.086270
	   18 R(14,18)        =      1.085565     0.000270     0.000048     1.085613
	   19 R(14,19)        =      1.086421    -0.000428    -0.000077     1.086344
	   20 R(20,21)        =      1.080522    -0.000018    -0.000003     1.080519
	   21 R(20,22)        =      1.078830     0.000317     0.000055     1.078886
	   22 R(20,23)        =      1.080512     0.000046     0.000008     1.080520
	   23 B(1,2,3)        =    125.590427     0.000018     0.049778   125.640205
	   24 B(1,2,4)        =    123.175269    -0.000007    -0.025231   123.150038
	   25 B(2,3,5)        =    113.413681    -0.000114    -0.507269   112.906412
	   26 B(2,3,6)        =    107.384379     0.000033    -0.281013   107.103366
	   27 B(2,3,7)        =    107.384219    -0.000109    -0.775815   106.608404
	   28 B(2,4,20)       =    116.991489    -0.000003    -0.008764   116.982725
	   29 B(3,2,4)        =    111.233995    -0.000011    -0.034816   111.199179
	   30 B(3,5,8)        =    112.302628     0.000977     3.372119   115.674748
	   31 B(3,5,9)        =    109.233481    -0.000443    -2.862258   106.371223
	   32 B(3,5,10)       =    109.235841    -0.000251     0.185824   109.421665
	   33 B(4,20,21)      =    110.591536     0.000000     0.000106   110.591643
	   34 B(4,20,22)      =    105.875676     0.000000    -0.000098   105.875578
	   35 B(4,20,23)      =    110.595062     0.000001     0.004024   110.599087
	   36 B(5,3,6)        =    111.246087    -0.000004    -0.082015   111.164072
	   37 B(5,3,7)        =    111.245748     0.000208     1.360922   112.606670
	   38 B(5,8,11)       =    113.002426     0.001150     3.968636   116.971062
	   39 B(5,8,12)       =    109.519476    -0.000442    -2.665700   106.853776
	   40 B(5,8,13)       =    109.517575    -0.000258     0.600167   110.117742
	   41 B(6,3,7)        =    105.768716    -0.000017     0.252746   106.021462
	   42 B(8,5,9)        =    109.872681    -0.000315    -1.828833   108.043847
	   43 B(8,5,10)       =    109.875977    -0.000221     0.570687   110.446664
	   44 B(8,11,14)      =    112.978247    -0.000094    -0.396026   112.582221
	   45 B(8,11,15)      =    109.283996    -0.000008    -0.121955   109.162042
	   46 B(8,11,16)      =    109.280077     0.000225     1.622866   110.902943
	   47 B(9,5,10)       =    106.127521     0.000206     0.269124   106.396645
	   48 B(11,8,12)      =    109.192110    -0.000447    -2.828296   106.363815
	   49 B(11,8,13)      =    109.191968    -0.000298     0.277644   109.469611
	   50 B(11,14,17)     =    111.173098    -0.000003    -0.017757   111.155341
	   51 B(11,14,18)     =    111.221623     0.000014     0.077436   111.299060
	   52 B(11,14,19)     =    111.172733    -0.000012    -0.065643   111.107090
	   53 B(12,8,13)      =    106.188375     0.000239     0.280438   106.468813
	   54 B(14,11,15)     =    109.404888     0.000031    -0.324085   109.080803
	   55 B(14,11,16)     =    109.405236    -0.000150    -1.025735   108.379501
	   56 B(15,11,16)     =    106.266695     0.000002     0.272451   106.539146
	   57 B(17,14,18)     =    107.715552    -0.000002     0.009942   107.725494
	   58 B(17,14,19)     =    107.666701     0.000003    -0.013765   107.652935
	   59 B(18,14,19)     =    107.717699     0.000000     0.009991   107.727690
	   60 B(21,20,22)     =    110.283422    -0.000000    -0.003199   110.280223
	   61 B(21,20,23)     =    109.185563    -0.000000     0.000571   109.186134
	   62 B(22,20,23)     =    110.278578    -0.000000    -0.001461   110.277116
	   63 D(1,2,3,5)      =     -0.110468     0.000015     1.199018     1.088550
	   64 D(1,2,3,6)      =    123.212799     0.000002     0.566461   123.779260
	   65 D(1,2,3,7)      =   -123.433187    -0.000010     0.361191  -123.071997
	   66 D(1,2,4,20)     =      0.101964    -0.000002    -0.655044    -0.553079
	   67 D(2,3,5,8)      =    179.962516    -0.000027    -6.523181   173.439336
	   68 D(2,3,5,9)      =     57.805140    -0.000014    -4.327587    53.477553
	   69 D(2,3,5,10)     =    -57.874254     0.000018    -3.201743   -61.075996
	   70 D(2,4,20,21)    =    -60.525371    -0.000000    -0.013129   -60.538500
	   71 D(2,4,20,22)    =   -179.988235     0.000000    -0.009301  -179.997536
	   72 D(2,4,20,23)    =     60.552797     0.000000    -0.009663    60.543134
	   73 D(3,2,4,20)     =    179.909834     0.000002     0.660458   180.570292
	   74 D(3,5,8,11)     =     56.241061     0.000053     5.734895    61.975956
	   75 D(3,5,8,12)     =    178.206260     0.000029     2.747405   180.953665
	   76 D(3,5,8,13)     =    -65.722584     0.000003     1.917535   -63.805049
	   77 D(4,2,3,5)      =   -179.912713     0.000010    -0.156047  -180.068760
	   78 D(4,2,3,6)      =    -56.589446    -0.000002    -0.788604   -57.378050
	   79 D(4,2,3,7)      =     56.764567    -0.000015    -0.993874    55.770693
	   80 D(5,8,11,14)    =   -179.949839    -0.000032    -7.866781  -187.816620
	   81 D(5,8,11,15)    =     57.998328    -0.000025    -7.102566    50.895762
	   82 D(5,8,11,16)    =    -57.900380    -0.000054    -8.289064   -66.189444
	   83 D(6,3,5,8)      =     58.784949    -0.000018    -5.740532    53.044417
	   84 D(6,3,5,9)      =    -63.372427    -0.000004    -3.544938   -66.917365
	   85 D(6,3,5,10)     =   -179.051821     0.000028    -2.419094  -181.470915
	   86 D(7,3,5,8)      =    -58.860376    -0.000043    -6.898338   -65.758714
	   87 D(7,3,5,9)      =    178.982247    -0.000029    -4.702743   174.279504
	   88 D(7,3,5,10)     =     63.302853     0.000002    -3.576899    59.725954
	   89 D(8,11,14,17)   =    -59.984421     0.000014     0.619062   -59.365358
	   90 D(8,11,14,18)   =    179.984868     0.000013     0.566360   180.551228
	   91 D(8,11,14,19)   =     59.951684     0.000012     0.545882    60.497567
	   92 D(9,5,8,11)     =    178.034783     0.000025     2.987490   181.022274
	   93 *D(9,5,8,12)    =    -60.000017     0.000000    -0.000000   -60.000017
	   94 D(9,5,8,13)     =     56.071139    -0.000025    -0.829870    55.241269
	   95 D(10,5,8,11)    =    -65.558004     0.000010     2.575854   -62.982150
	   96 D(10,5,8,12)    =     56.407195    -0.000015    -0.411636    55.995559
	   97 D(10,5,8,13)    =    172.478351    -0.000040    -1.241506   171.236846
	   98 D(12,8,11,14)   =     57.901330    -0.000007    -4.958135    52.943195
	   99 D(12,8,11,15)   =    -64.150503    -0.000000    -4.193920   -68.344424
	  100 D(12,8,11,16)   =    179.950789    -0.000029    -5.380419   174.570370
	  101 D(13,8,11,14)   =    -57.803545     0.000022    -3.910326   -61.713871
	  102 D(13,8,11,15)   =   -179.855378     0.000029    -3.146111  -183.001489
	  103 D(13,8,11,16)   =     64.245914     0.000000    -4.332609    59.913305
	  104 D(15,11,14,17)  =     61.999540     0.000002    -0.030976    61.968564
	  105 D(15,11,14,18)  =    -58.031171     0.000001    -0.083678   -58.114849
	  106 D(15,11,14,19)  =   -178.064355     0.000000    -0.104156  -178.168511
	  107 D(16,11,14,17)  =    178.036391    -0.000013    -0.451579   177.584812
	  108 D(16,11,14,18)  =     58.005680    -0.000014    -0.504281    57.501399
	  109 D(16,11,14,19)  =    -62.027504    -0.000014    -0.524759   -62.552263
	 ---------------------------------------------------------------------------

  ==> Convergence Check <==

  Measures of convergence in internal coordinates in au.
  Criteria marked as inactive (o), active & met (*), and active & unmet ( ).
  --------------------------------------------------------------------------------------------- ~
   Step     Total Energy     Delta E     MAX Force     RMS Force      MAX Disp      RMS Disp    ~
  --------------------------------------------------------------------------------------------- ~
    Convergence Criteria    1.00e-06 *    3.00e-04 *             o    1.20e-03 *             o  ~
  --------------------------------------------------------------------------------------------- ~
      1    -422.97303686   -4.23e+02      1.51e-02      2.63e-03 o    1.45e-01      4.21e-02 o  ~
  ---------------------------------------------------------------------------------------------

	Writing optimization data to binary file.
	Structure for next step:
	Cartesian Geometry (in Angstrom)
	    O     2.2836818293   0.5597497019  -0.4138051502
	    C     1.4288397768   0.7393718917   0.3925619670
	    C     0.0676276552   0.0883091722   0.3907633123
	    O     1.5583603915   1.5780095660   1.4129862747
	    C    -0.1245951793  -0.8866993250  -0.7724714472
	    H    -0.0474637714  -0.4147192719   1.3476627454
	    H    -0.6586921315   0.8901748023   0.3856745558
	    C    -1.4302436102  -1.7051606994  -0.7489090481
	    H     0.7079203029  -1.5808672703  -0.7303401299
	    H    -0.0296963566  -0.3510048036  -1.7119617982
	    C    -2.7468100671  -0.9185142421  -0.8253584610
	    H    -1.4106721916  -2.3549848820  -1.6202636262
	    H    -1.4474889998  -2.3579507707   0.1227691030
	    C    -3.9647359200  -1.8271267659  -0.9866543030
	    H    -2.7029699056  -0.2294383766  -1.6669111974
	    H    -2.8874359373  -0.3130111350   0.0620786779
	    H    -3.8899841057  -2.4263283687  -1.8896224796
	    H    -4.8820525476  -1.2497948282  -1.0480880957
	    H    -4.0584857058  -2.5086237019  -0.1458709341
	    C     2.7897210171   2.2680191034   1.5251783840
	    H     3.6067936484   1.5707242194   1.6422003730
	    H     2.7005600529   2.8901822468   2.4020809939
	    H     2.9652708381   2.8771315380   0.6501423174
			--------------------------
			 OPTKING Finished Execution 
			--------------------------

    Structure for next step:
    Molecular point group: c1
    Full point group: C1

    Geometry (in Angstrom), charge = 0, multiplicity = 1:

    O            2.271673796817     0.546762200373    -0.425069380064
    C            1.416831809657     0.726384376509     0.381297675574
    C            0.055619791964     0.075321706647     0.379499020951
    O            1.546352414402     1.565021986699     1.401721905333
    C           -0.136603027890    -0.899686716026    -0.783735649715
    H           -0.059471625824    -0.427706699029     1.336398380972
    H           -0.670699939271     0.877187275545     0.374410264892
    C           -1.442251359036    -1.718148027992    -0.760173252348
    H            0.695912390758    -1.593854608344    -0.741604335605
    H           -0.041704212418    -0.363992235545    -1.723225928986
    C           -2.758817715357    -0.931501630767    -0.836622659454
    H           -1.422679941932    -2.367972160887    -1.631527763974
    H           -1.459496747344    -2.370938049393     0.111504832160
    C           -3.976743475322    -1.840114085164    -0.997918489087
    H           -2.714977557240    -0.242425817805    -1.678175331629
    H           -2.899443574862    -0.325998569846     0.050814411716
    H           -3.901991666682    -2.439315642228    -1.900886596756
    H           -4.894060032796    -1.262782191559    -1.059352277158
    H           -4.070493253911    -2.521610969107    -0.157135184484
    C            2.777712946051     2.255031471450     1.513914006104
    H            3.594785514872     1.557736640711     1.630935986152
    H            2.688551988582     2.877194567282     2.390816548972
    H            2.953262753616     2.864143859527     0.638878006228

gradient() will perform analytic gradient computation.

*** tstart() called on cx1-1-1-1.cx1.hpc.ic.ac.uk
*** at Fri Sep  2 13:39:59 2016


         ---------------------------------------------------------
                                   SCF
            by Justin Turney, Rob Parrish, and Andy Simmonett
                              RHF Reference
                        4 Threads,   2000 MiB Core
         ---------------------------------------------------------

  ==> Geometry <==

    Molecular point group: c1
    Full point group: C1

    Geometry (in Angstrom), charge = 0, multiplicity = 1:

       Center              X                  Y                   Z               Mass       
    ------------   -----------------  -----------------  -----------------  -----------------
           O          2.271673796817     0.546762200373    -0.425069380064    15.994914619560
           C          1.416831809657     0.726384376509     0.381297675574    12.000000000000
           C          0.055619791964     0.075321706647     0.379499020951    12.000000000000
           O          1.546352414402     1.565021986699     1.401721905333    15.994914619560
           C         -0.136603027890    -0.899686716026    -0.783735649715    12.000000000000
           H         -0.059471625824    -0.427706699029     1.336398380972     1.007825032070
           H         -0.670699939271     0.877187275545     0.374410264892     1.007825032070
           C         -1.442251359036    -1.718148027992    -0.760173252348    12.000000000000
           H          0.695912390758    -1.593854608344    -0.741604335605     1.007825032070
           H         -0.041704212418    -0.363992235545    -1.723225928986     1.007825032070
           C         -2.758817715357    -0.931501630767    -0.836622659454    12.000000000000
           H         -1.422679941932    -2.367972160887    -1.631527763974     1.007825032070
           H         -1.459496747344    -2.370938049393     0.111504832160     1.007825032070
           C         -3.976743475322    -1.840114085164    -0.997918489087    12.000000000000
           H         -2.714977557240    -0.242425817805    -1.678175331629     1.007825032070
           H         -2.899443574862    -0.325998569846     0.050814411716     1.007825032070
           H         -3.901991666682    -2.439315642228    -1.900886596756     1.007825032070
           H         -4.894060032796    -1.262782191559    -1.059352277158     1.007825032070
           H         -4.070493253911    -2.521610969107    -0.157135184484     1.007825032070
           C          2.777712946051     2.255031471450     1.513914006104    12.000000000000
           H          3.594785514872     1.557736640711     1.630935986152     1.007825032070
           H          2.688551988582     2.877194567282     2.390816548972     1.007825032070
           H          2.953262753616     2.864143859527     0.638878006228     1.007825032070

  Running in c1 symmetry.

  Rotational constants: A =      0.17333  B =      0.01774  C =      0.01664 [cm^-1]
  Rotational constants: A =   5196.20862  B =    531.71780  C =    498.75743 [MHz]
  Nuclear repulsion =  455.743772791809249

  Charge       = 0
  Multiplicity = 1
  Electrons    = 72
  Nalpha       = 36
  Nbeta        = 36

  ==> Algorithm <==

  SCF Algorithm Type is DF.
  DIIS enabled.
  MOM disabled.
  Fractional occupation disabled.
  Guess Type is READ.
  Energy threshold   = 1.00e-08
  Density threshold  = 1.00e-08
  Integral threshold = 0.00e+00

  ==> Primary Basis <==

  Basis Set: 6-31G*
    Number of shells: 82
    Number of basis function: 163
    Number of Cartesian functions: 163
    Spherical Harmonics?: false
    Max angular momentum: 2

  ==> Pre-Iterations <==

   -------------------------------------------------------
    Irrep   Nso     Nmo     Nalpha   Nbeta   Ndocc  Nsocc
   -------------------------------------------------------
     A        163     163       0       0       0       0
   -------------------------------------------------------
    Total     163     163      36      36      36       0
   -------------------------------------------------------

 OEINTS: Overlap, kinetic, potential, dipole, and quadrupole integrals
         stored in file 35.

  ==> Integral Setup <==

  ==> DFJK: Density-Fitted J/K Matrices <==

    J tasked:                  Yes
    K tasked:                  Yes
    wK tasked:                  No
    OpenMP threads:              4
    Integrals threads:           4
    Memory (MB):              1430
    Algorithm:                Core
    Integral Cache:           NONE
    Schwarz Cutoff:          1E-12
    Fitting Condition:       1E-12

   => Auxiliary Basis Set <=

  Basis Set: 
    Number of shells: 342
    Number of basis function: 1079
    Number of Cartesian functions: 1079
    Spherical Harmonics?: false
    Max angular momentum: 3

  Minimum eigenvalue in the overlap matrix is 2.6336412724E-03.
  Using Symmetric Orthogonalization.
  SCF Guess: Reading in previously saved MOs, projecting if necessary.

  Using orbitals from previous SCF, no projection.
  Recomputing DOCC and SOCC from number of alpha and beta electrons from previous calculation.
              A 
    DOCC [    36 ]

  ==> Iterations <==

                           Total Energy        Delta E     RMS |[F,P]|

   @DF-RHF iter   0:  -422.92261223779241   -4.22923e+02   1.90044e-03 
   @DF-RHF iter   1:  -422.97092538668568   -4.83131e-02   3.23305e-04 
   @DF-RHF iter   2:  -422.97330856190678   -2.38318e-03   1.09201e-04 DIIS
   @DF-RHF iter   3:  -422.97359447759828   -2.85916e-04   4.41138e-05 DIIS
   @DF-RHF iter   4:  -422.97363141333886   -3.69357e-05   7.74179e-06 DIIS
   @DF-RHF iter   5:  -422.97363371655780   -2.30322e-06   4.11328e-06 DIIS
   @DF-RHF iter   6:  -422.97363436328823   -6.46730e-07   1.61209e-06 DIIS
   @DF-RHF iter   7:  -422.97363451975690   -1.56469e-07   6.52362e-07 DIIS
   @DF-RHF iter   8:  -422.97363453948157   -1.97247e-08   2.43471e-07 DIIS
   @DF-RHF iter   9:  -422.97363454181396   -2.33240e-09   9.56676e-08 DIIS
   @DF-RHF iter  10:  -422.97363454214752   -3.33557e-10   3.45336e-08 DIIS
   @DF-RHF iter  11:  -422.97363454219800   -5.04770e-11   1.03547e-08 DIIS
   @DF-RHF iter  12:  -422.97363454220255   -4.54747e-12   3.04084e-09 DIIS

  ==> Post-Iterations <==

    Orbital Energies (a.u.)
    -----------------------

    Doubly Occupied:                                                      

       1A    -20.603719     2A    -20.545473     3A    -11.372295  
       4A    -11.280918     5A    -11.234834     6A    -11.220729  
       7A    -11.219368     8A    -11.218209     9A    -11.211005  
      10A     -1.469453    11A     -1.362853    12A     -1.090610  
      13A     -1.043077    14A     -0.986980    15A     -0.933384  
      16A     -0.850762    17A     -0.791782    18A     -0.762881  
      19A     -0.700006    20A     -0.682991    21A     -0.671946  
      22A     -0.641226    23A     -0.618096    24A     -0.599916  
      25A     -0.576097    26A     -0.557640    27A     -0.553688  
      28A     -0.527927    29A     -0.520904    30A     -0.507581  
      31A     -0.491948    32A     -0.466886    33A     -0.465333  
      34A     -0.457972    35A     -0.452102    36A     -0.437499  

    Virtual:                                                              

      37A      0.199530    38A      0.224436    39A      0.250761  
      40A      0.265276    41A      0.271937    42A      0.279650  
      43A      0.306784    44A      0.311844    45A      0.316882  
      46A      0.320044    47A      0.327043    48A      0.332476  
      49A      0.336910    50A      0.345835    51A      0.352646  
      52A      0.361446    53A      0.410741    54A      0.424786  
      55A      0.433739    56A      0.440329    57A      0.488579  
      58A      0.531037    59A      0.576624    60A      0.700246  
      61A      0.726656    62A      0.733879    63A      0.735457  
      64A      0.755457    65A      0.759851    66A      0.779550  
      67A      0.781769    68A      0.796236    69A      0.832603  
      70A      0.869676    71A      0.877789    72A      0.938865  
      73A      0.945877    74A      0.960619    75A      0.987157  
      76A      1.005584    77A      1.015347    78A      1.048005  
      79A      1.095185    80A      1.119900    81A      1.125520  
      82A      1.132376    83A      1.137273    84A      1.141991  
      85A      1.155400    86A      1.165896    87A      1.185422  
      88A      1.190441    89A      1.193068    90A      1.203286  
      91A      1.212546    92A      1.222448    93A      1.237214  
      94A      1.241279    95A      1.253979    96A      1.279199  
      97A      1.297819    98A      1.305336    99A      1.343411  
     100A      1.379473   101A      1.414993   102A      1.483504  
     103A      1.561782   104A      1.638656   105A      1.664577  
     106A      1.672720   107A      1.704084   108A      1.730285  
     109A      1.799207   110A      1.833852   111A      1.856475  
     112A      1.882733   113A      1.944302   114A      1.965974  
     115A      2.010846   116A      2.023252   117A      2.098144  
     118A      2.120897   119A      2.144839   120A      2.191290  
     121A      2.210673   122A      2.221281   123A      2.241277  
     124A      2.284849   125A      2.293326   126A      2.300925  
     127A      2.335317   128A      2.365653   129A      2.388397  
     130A      2.398602   131A      2.445473   132A      2.447779  
     133A      2.504189   134A      2.516207   135A      2.595245  
     136A      2.624375   137A      2.660739   138A      2.670775  
     139A      2.696622   140A      2.722316   141A      2.737951  
     142A      2.768269   143A      2.817276   144A      2.849166  
     145A      2.900897   146A      2.927887   147A      3.015683  
     148A      3.062110   149A      3.071627   150A      3.139841  
     151A      3.162432   152A      3.349558   153A      3.450244  
     154A      3.580458   155A      4.416298   156A      4.539233  
     157A      4.604614   158A      4.642495   159A      4.710437  
     160A      4.769453   161A      4.839265   162A      4.920464  
     163A      5.015882  

    Final Occupation by Irrep:
              A 
    DOCC [    36 ]

  Energy converged.

  @DF-RHF Final Energy:  -422.97363454220255

   => Energetics <=

    Nuclear Repulsion Energy =            455.7437727918092492
    One-Electron Energy =               -1479.1786245921703085
    Two-Electron Energy =                 600.4612172581581717
    DFT Exchange-Correlation Energy =       0.0000000000000000
    Empirical Dispersion Energy =           0.0000000000000000
    PCM Polarization Energy =               0.0000000000000000
    EFP Energy =                            0.0000000000000000
    Total Energy =                       -422.9736345422028307

    Alert: EFP and PCM quantities not currently incorporated into SCF psivars.

Properties will be evaluated at   0.000000,   0.000000,   0.000000 Bohr
  ==> Properties <==


Properties computed using the SCF density matrix

  Nuclear Dipole Moment: (a.u.)
     X:   -11.4211      Y:    -5.3712      Z:    -2.2060

  Electronic Dipole Moment: (a.u.)
     X:    11.0438      Y:     5.6034      Z:     2.7502

  Dipole Moment: (a.u.)
     X:    -0.3774      Y:     0.2322      Z:     0.5442     Total:     0.7018

  Dipole Moment: (Debye)
     X:    -0.9591      Y:     0.5902      Z:     1.3833     Total:     1.7838


  Saving occupied orbitals to File 180.

*** tstop() called on cx1-1-1-1.cx1.hpc.ic.ac.uk at Fri Sep  2 13:40:08 2016
Module time:
	user time   =      25.72 seconds =       0.43 minutes
	system time =       0.39 seconds =       0.01 minutes
	total time  =          9 seconds =       0.15 minutes
Total time:
	user time   =      89.72 seconds =       1.50 minutes
	system time =       1.12 seconds =       0.02 minutes
	total time  =         28 seconds =       0.47 minutes

*** tstart() called on cx1-1-1-1.cx1.hpc.ic.ac.uk
*** at Fri Sep  2 13:40:08 2016


         ------------------------------------------------------------
                                   SCF GRAD                          
                          Rob Parrish, Justin Turney,                
                       Andy Simmonett, and Alex Sokolov              
         ------------------------------------------------------------

  ==> Geometry <==

    Molecular point group: c1
    Full point group: C1

    Geometry (in Angstrom), charge = 0, multiplicity = 1:

       Center              X                  Y                   Z               Mass       
    ------------   -----------------  -----------------  -----------------  -----------------
           O          2.271673796817     0.546762200373    -0.425069380064    15.994914619560
           C          1.416831809657     0.726384376509     0.381297675574    12.000000000000
           C          0.055619791964     0.075321706647     0.379499020951    12.000000000000
           O          1.546352414402     1.565021986699     1.401721905333    15.994914619560
           C         -0.136603027890    -0.899686716026    -0.783735649715    12.000000000000
           H         -0.059471625824    -0.427706699029     1.336398380972     1.007825032070
           H         -0.670699939271     0.877187275545     0.374410264892     1.007825032070
           C         -1.442251359036    -1.718148027992    -0.760173252348    12.000000000000
           H          0.695912390758    -1.593854608344    -0.741604335605     1.007825032070
           H         -0.041704212418    -0.363992235545    -1.723225928986     1.007825032070
           C         -2.758817715357    -0.931501630767    -0.836622659454    12.000000000000
           H         -1.422679941932    -2.367972160887    -1.631527763974     1.007825032070
           H         -1.459496747344    -2.370938049393     0.111504832160     1.007825032070
           C         -3.976743475322    -1.840114085164    -0.997918489087    12.000000000000
           H         -2.714977557240    -0.242425817805    -1.678175331629     1.007825032070
           H         -2.899443574862    -0.325998569846     0.050814411716     1.007825032070
           H         -3.901991666682    -2.439315642228    -1.900886596756     1.007825032070
           H         -4.894060032796    -1.262782191559    -1.059352277158     1.007825032070
           H         -4.070493253911    -2.521610969107    -0.157135184484     1.007825032070
           C          2.777712946051     2.255031471450     1.513914006104    12.000000000000
           H          3.594785514872     1.557736640711     1.630935986152     1.007825032070
           H          2.688551988582     2.877194567282     2.390816548972     1.007825032070
           H          2.953262753616     2.864143859527     0.638878006228     1.007825032070

  Nuclear repulsion =  455.743772791809249

  ==> Basis Set <==

  Basis Set: 6-31G*
    Number of shells: 82
    Number of basis function: 163
    Number of Cartesian functions: 163
    Spherical Harmonics?: false
    Max angular momentum: 2

  ==> DFJKGrad: Density-Fitted SCF Gradients <==

    Gradient:                    1
    J tasked:                  Yes
    K tasked:                  Yes
    wK tasked:                  No
    OpenMP threads:              4
    Integrals threads:           4
    Memory (MB):              1430
    Schwarz Cutoff:          0E+00
    Fitting Condition:       1E-12

   => Auxiliary Basis Set <=

  Basis Set: 
    Number of shells: 342
    Number of basis function: 1079
    Number of Cartesian functions: 1079
    Spherical Harmonics?: false
    Max angular momentum: 3


  -Total Gradient:
     Atom            X                  Y                   Z
    ------   -----------------  -----------------  -----------------
       1       -0.000645394577     0.000741281501    -0.000759384873
       2        0.000373563111    -0.002217531345     0.002428573548
       3        0.001948954390     0.002356940500    -0.000577574853
       4       -0.000193976704     0.000757858457    -0.000473432967
       5       -0.000098304432     0.002138384672    -0.004942540191
       6        0.000754279017     0.000091981741     0.000161385262
       7        0.002767178205    -0.001251523896     0.000089300908
       8        0.001135297654    -0.002754500895     0.003917470322
       9        0.000448219183     0.001081959891     0.003849370355
      10        0.001234504816     0.000209627378    -0.000323502982
      11       -0.002575749115    -0.001690191691     0.000530355289
      12       -0.002297991877     0.002725990695    -0.001256984068
      13       -0.000681288355    -0.001168345156    -0.000095087962
      14       -0.000452308326     0.001351370346     0.000267561573
      15       -0.000323713778    -0.000226367568    -0.000365027733
      16       -0.001351522437    -0.002205290636    -0.002265593038
      17        0.000150317488     0.000082510780     0.000017037800
      18       -0.000260499203    -0.000197424476    -0.000153024171
      19        0.000104902557     0.000151495641    -0.000033360329
      20       -0.000049104157    -0.000011225005     0.000002718400
      21       -0.000023865576    -0.000019303001    -0.000013936585
      22        0.000001582404     0.000027828223    -0.000004394913
      23        0.000034919705     0.000024473844     0.000000071213


*** tstop() called on cx1-1-1-1.cx1.hpc.ic.ac.uk at Fri Sep  2 13:40:17 2016
Module time:
	user time   =      33.90 seconds =       0.57 minutes
	system time =       0.28 seconds =       0.00 minutes
	total time  =          9 seconds =       0.15 minutes
Total time:
	user time   =     123.63 seconds =       2.06 minutes
	system time =       1.40 seconds =       0.02 minutes
	total time  =         37 seconds =       0.62 minutes
CURRENT ENERGY: -422.9736345422

			-----------------------------------------
			 OPTKING 2.0: for geometry optimizations 
			  - R.A. King,  Bethel University        
			-----------------------------------------

	Previous internal coordinate definitions found.
	---Fragment 1 Geometry and Gradient---
	 O           4.2928413392        1.0332308185       -0.8032647158
	 C           2.6774240966        1.3726675388        0.7205481819
	 C           0.1051061744        0.1423373974        0.7171492173
	 O           2.9221825681        2.9574629468        2.6488705155
	 C          -0.2581423116       -1.7001614987       -1.4810457385
	 H          -0.1123850855       -0.8082485264        2.5254269445
	 H          -1.2674392026        1.6576437180        0.7075328620
	 C          -2.7254600834       -3.2468292287       -1.4365192605
	 H           1.3150838310       -3.0119487054       -1.4014290933
	 H          -0.0788095401       -0.6878456397       -3.2564250709
	 C          -5.2134099326       -1.7602829745       -1.5809877029
	 H          -2.6884754650       -4.4748188744       -3.0831406521
	 H          -2.7580491443       -4.4804235914        0.2107135953
	 C          -7.5149560691       -3.4773116742       -1.8857926473
	 H          -5.1305640401       -0.4581184032       -3.1712917797
	 H          -5.4791542942       -0.6160480167        0.0960253217
	 H          -7.3736956228       -4.6096385155       -3.5921550775
	 H          -9.2484331399       -2.3863125075       -2.0018856821
	 H          -7.6921174756       -4.7651541453       -0.2969424645
	 C           5.2491167438        4.2613919021        2.8608828603
	 H           6.7931601296        2.9436956381        3.0820223541
	 H           5.0806269524        5.4371097632        4.5179885115
	 H           5.5808578028        5.4124474997        1.2073044641
	            -0.0006453946        0.0007412815       -0.0007593849
	             0.0003735631       -0.0022175313        0.0024285735
	             0.0019489544        0.0023569405       -0.0005775749
	            -0.0001939767        0.0007578585       -0.0004734330
	            -0.0000983044        0.0021383847       -0.0049425402
	             0.0007542790        0.0000919817        0.0001613853
	             0.0027671782       -0.0012515239        0.0000893009
	             0.0011352977       -0.0027545009        0.0039174703
	             0.0004482192        0.0010819599        0.0038493704
	             0.0012345048        0.0002096274       -0.0003235030
	            -0.0025757491       -0.0016901917        0.0005303553
	            -0.0022979919        0.0027259907       -0.0012569841
	            -0.0006812884       -0.0011683452       -0.0000950880
	            -0.0004523083        0.0013513703        0.0002675616
	            -0.0003237138       -0.0002263676       -0.0003650277
	            -0.0013515224       -0.0022052906       -0.0022655930
	             0.0001503175        0.0000825108        0.0000170378
	            -0.0002604992       -0.0001974245       -0.0001530242
	             0.0001049026        0.0001514956       -0.0000333603
	            -0.0000491042       -0.0000112250        0.0000027184
	            -0.0000238656       -0.0000193030       -0.0000139366
	             0.0000015824        0.0000278282       -0.0000043949
	             0.0000349197        0.0000244738        0.0000000712

	---Fragment 1 Intrafragment Coordinates---
	 - Coordinate -           - BOHR/RAD -       - ANG/DEG -
	 R(1,2)           =         2.246507	       1.188801
	 R(2,3)           =         2.851411	       1.508902
	 R(2,4)           =         2.507969	       1.327160
	 R(3,5)           =         2.891161	       1.529937
	 R(3,6)           =         2.054455	       1.087171
	 R(3,7)           =         2.044536	       1.081922
	 R(4,20)          =         2.675781	       1.415962
	 R(5,8)           =         2.912357	       1.541153
	 R(5,9)           =         2.049918	       1.084770
	 R(5,10)          =         2.051564	       1.085641
	 R(8,11)          =         2.901824	       1.535579
	 R(8,12)          =         2.054431	       1.087158
	 R(8,13)          =         2.058201	       1.089153
	 R(11,14)         =         2.887596	       1.528050
	 R(11,15)         =         2.057076	       1.088558
	 R(11,16)         =         2.047502	       1.083492
	 R(14,17)         =         2.052752	       1.086270
	 R(14,18)         =         2.051512	       1.085613
	 R(14,19)         =         2.052893	       1.086344
	 R(20,21)         =         2.041885	       1.080519
	 R(20,22)         =         2.038799	       1.078886
	 R(20,23)         =         2.041887	       1.080520
	 B(1,2,3)         =         2.192835	     125.640205
	 B(1,2,4)         =         2.149374	     123.150038
	 B(2,3,5)         =         1.970589	     112.906412
	 B(2,3,6)         =         1.869306	     107.103366
	 B(2,3,7)         =         1.860668	     106.608404
	 B(2,4,20)        =         2.041734	     116.982725
	 B(3,2,4)         =         1.940792	     111.199179
	 B(3,5,8)         =         2.018905	     115.674748
	 B(3,5,9)         =         1.856528	     106.371223
	 B(3,5,10)        =         1.909768	     109.421665
	 B(4,20,21)       =         1.930188	     110.591643
	 B(4,20,22)       =         1.847877	     105.875578
	 B(4,20,23)       =         1.930318	     110.599087
	 B(5,3,6)         =         1.940179	     111.164072
	 B(5,3,7)         =         1.965357	     112.606670
	 B(5,8,11)        =         2.041530	     116.971062
	 B(5,8,12)        =         1.864950	     106.853776
	 B(5,8,13)        =         1.921917	     110.117742
	 B(6,3,7)         =         1.850424	     106.021462
	 B(8,5,9)         =         1.885721	     108.043847
	 B(8,5,10)        =         1.927658	     110.446664
	 B(8,11,14)       =         1.964930	     112.582221
	 B(8,11,15)       =         1.905237	     109.162042
	 B(8,11,16)       =         1.935622	     110.902943
	 B(9,5,10)        =         1.856972	     106.396645
	 B(11,8,12)       =         1.856399	     106.363815
	 B(11,8,13)       =         1.910605	     109.469611
	 B(11,14,17)      =         1.940027	     111.155341
	 B(11,14,18)      =         1.942535	     111.299060
	 B(11,14,19)      =         1.939185	     111.107090
	 B(12,8,13)       =         1.858231	     106.468813
	 B(14,11,15)      =         1.903819	     109.080803
	 B(14,11,16)      =         1.891579	     108.379501
	 B(15,11,16)      =         1.859459	     106.539146
	 B(17,14,18)      =         1.880165	     107.725494
	 B(17,14,19)      =         1.878898	     107.652935
	 B(18,14,19)      =         1.880203	     107.727690
	 B(21,20,22)      =         1.924753	     110.280223
	 B(21,20,23)      =         1.905658	     109.186134
	 B(22,20,23)      =         1.924699	     110.277116
	 D(1,2,3,5)       =         0.018999	       1.088550
	 D(1,2,3,6)       =         2.160356	     123.779260
	 D(1,2,3,7)       =        -2.148012	    -123.071997
	 D(1,2,4,20)      =        -0.009653	      -0.553079
	 D(2,3,5,8)       =         3.027087	     173.439336
	 D(2,3,5,9)       =         0.933359	      53.477553
	 D(2,3,5,10)      =        -1.065977	     -61.075996
	 D(2,4,20,21)     =        -1.056596	     -60.538500
	 D(2,4,20,22)     =        -3.141550	    -179.997536
	 D(2,4,20,23)     =         1.056677	      60.543134
	 D(3,2,4,20)      =        -3.131639	    -179.429708
	 D(3,5,8,11)      =         1.081684	      61.975956
	 D(3,5,8,12)      =        -3.124948	    -179.046335
	 D(3,5,8,13)      =        -1.113608	     -63.805049
	 D(4,2,3,5)       =         3.140393	     179.931240
	 D(4,2,3,6)       =        -1.001436	     -57.378050
	 D(4,2,3,7)       =         0.973382	      55.770693
	 D(5,8,11,14)     =         3.005167	     172.183380
	 D(5,8,11,15)     =         0.888299	      50.895762
	 D(5,8,11,16)     =        -1.155224	     -66.189444
	 D(6,3,5,8)       =         0.925800	      53.044417
	 D(6,3,5,9)       =        -1.167928	     -66.917365
	 D(6,3,5,10)      =         3.115920	     178.529085
	 D(7,3,5,8)       =        -1.147706	     -65.758714
	 D(7,3,5,9)       =         3.041751	     174.279504
	 D(7,3,5,10)      =         1.042415	      59.725954
	 D(8,11,14,17)    =        -1.036121	     -59.365358
	 D(8,11,14,18)    =        -3.131972	    -179.448772
	 D(8,11,14,19)    =         1.055882	      60.497567
	 D(9,5,8,11)      =        -3.123751	    -178.977726
	*D(9,5,8,12)      =        -1.047198	     -60.000017
	 D(9,5,8,13)      =         0.964142	      55.241269
	 D(10,5,8,11)     =        -1.099246	     -62.982150
	 D(10,5,8,12)     =         0.977307	      55.995559
	 D(10,5,8,13)     =         2.988647	     171.236846
	 D(12,8,11,14)    =         0.924033	      52.943195
	 D(12,8,11,15)    =        -1.192835	     -68.344424
	 D(12,8,11,16)    =         3.046828	     174.570370
	 D(13,8,11,14)    =        -1.077110	     -61.713871
	 D(13,8,11,15)    =         3.089207	     176.998511
	 D(13,8,11,16)    =         1.045684	      59.913305
	 D(15,11,14,17)   =         1.081555	      61.968564
	 D(15,11,14,18)   =        -1.014295	     -58.114849
	 D(15,11,14,19)   =        -3.109627	    -178.168511
	 D(16,11,14,17)   =         3.099440	     177.584812
	 D(16,11,14,18)   =         1.003589	      57.501399
	 D(16,11,14,19)   =        -1.091743	     -62.552263

	Current energy   :      -422.9736345422

	Energy change for the previous step:
		Projected    :        -0.0117339871
		Actual       :        -0.0005976826
	Energy ratio indicates iffy step: Trust radius decreased to 1.250e-01.


	Performing BFGS update.
	Previous computed or guess Hessian on step 1.
	Steps to be used in Hessian update: 1
	Taking RFO optimization step.
	Going to follow RFO solution 1.
	Using RFO vector 1.

	Determining step-restricting scale parameter for RS-RFO.
	Maximum step size allowed    0.12500

	 Iter      |step|        alpha        rfo_root  
	------------------------------------------------
	    0     0.21475       1.00000           1
	    1     0.16190       2.45461           1
	    2     0.13597       4.13933           1
	    3     0.12653       5.14094           1
	    4     0.12504       5.32988           1
	    5     0.12500       5.33482           1
	------------------------------------------------
	Norm of target step-size    0.12500
	Projected energy change by RFO approximation:        -0.0016280326

	Back-transformation to cartesian coordinates...
	Successfully converged to displaced geometry.

	Back-transformation to cartesian coordinates to adjust frozen coordinates...
	Successfully converged to displaced geometry.

	--- Internal Coordinate Step in ANG or DEG, aJ/ANG or AJ/DEG ---
	 ---------------------------------------------------------------------------
	   Coordinate                Previous        Force       Change         New 
	   ----------                --------       ------       ------       ------
	    1 R(1,2)          =      1.188801     0.000503     0.000018     1.188818
	    2 R(2,3)          =      1.508902     0.006198     0.000811     1.509713
	    3 R(2,4)          =      1.327160    -0.000776    -0.000055     1.327106
	    4 R(3,5)          =      1.529937    -0.013117    -0.001858     1.528078
	    5 R(3,6)          =      1.087171    -0.000162    -0.000028     1.087143
	    6 R(3,7)          =      1.081922     0.022950     0.002744     1.084665
	    7 R(4,20)         =      1.415962     0.000184     0.000018     1.415980
	    8 R(5,8)          =      1.541153    -0.063005    -0.008893     1.532260
	    9 R(5,9)          =      1.084770     0.001638     0.000201     1.084971
	   10 R(5,10)         =      1.085641    -0.004048    -0.000471     1.085170
	   11 R(8,11)         =      1.535579    -0.022542    -0.003210     1.532370
	   12 R(8,12)         =      1.087158     0.005465     0.000670     1.087829
	   13 R(8,13)         =      1.089153    -0.005231    -0.000616     1.088538
	   14 R(11,14)        =      1.528050     0.003880     0.000536     1.528586
	   15 R(11,15)        =      1.088558    -0.001037    -0.000134     1.088424
	   16 R(11,16)        =      1.083492     0.023996     0.002868     1.086360
	   17 R(14,17)        =      1.086270     0.000406     0.000049     1.086319
	   18 R(14,18)        =      1.085613    -0.001020    -0.000119     1.085494
	   19 R(14,19)        =      1.086344     0.001070     0.000126     1.086470
	   20 R(20,21)        =      1.080519     0.000058     0.000007     1.080526
	   21 R(20,22)        =      1.078886    -0.000102    -0.000012     1.078874
	   22 R(20,23)        =      1.080520    -0.000160    -0.000018     1.080502
	   23 B(1,2,3)        =    125.640205     0.000038     0.065846   125.706051
	   24 B(1,2,4)        =    123.150038    -0.000009    -0.022420   123.127618
	   25 B(2,3,5)        =    112.906412    -0.000022     0.002354   112.908766
	   26 B(2,3,6)        =    107.103366     0.000044     0.253553   107.356918
	   27 B(2,3,7)        =    106.608404     0.000060     0.253544   106.861948
	   28 B(2,4,20)       =    116.982725    -0.000000    -0.000264   116.982460
	   29 B(3,2,4)        =    111.199179    -0.000028    -0.059409   111.139770
	   30 B(3,5,8)        =    115.674748    -0.000609    -1.434796   114.239952
	   31 B(3,5,9)        =    106.371223     0.000308     1.364979   107.736203
	   32 B(3,5,10)       =    109.421665     0.000169     0.028656   109.450321
	   33 B(4,20,21)      =    110.591643     0.000004     0.013512   110.605155
	   34 B(4,20,22)      =    105.875578    -0.000001    -0.004752   105.870826
	   35 B(4,20,23)      =    110.599087    -0.000005    -0.013128   110.585959
	   36 B(5,3,6)        =    111.164072    -0.000011    -0.067960   111.096112
	   37 B(5,3,7)        =    112.606670    -0.000050    -0.273097   112.333573
	   38 B(5,8,11)       =    116.971062    -0.000622    -1.464814   115.506249
	   39 B(5,8,12)       =    106.853776     0.000151     0.527940   107.381716
	   40 B(5,8,13)       =    110.117742     0.000133    -0.322742   109.795000
	   41 B(6,3,7)        =    106.021462    -0.000014    -0.144842   105.876621
	   42 B(8,5,9)        =    108.043847     0.000122     0.393488   108.437336
	   43 B(8,5,10)       =    110.446664     0.000133    -0.310910   110.135754
	   44 B(8,11,14)      =    112.582221    -0.000100    -0.199351   112.382870
	   45 B(8,11,15)      =    109.162042     0.000032     0.036370   109.198412
	   46 B(8,11,16)      =    110.902943    -0.000059    -0.393254   110.509689
	   47 B(9,5,10)       =    106.396645    -0.000081     0.128097   106.524742
	   48 B(11,8,12)      =    106.363815     0.000284     1.278424   107.642239
	   49 B(11,8,13)      =    109.469611     0.000179     0.039076   109.508688
	   50 B(11,14,17)     =    111.155341     0.000023     0.083382   111.238723
	   51 B(11,14,18)     =    111.299060    -0.000042    -0.140663   111.158396
	   52 B(11,14,19)     =    111.107090     0.000017     0.052862   111.159952
	   53 B(12,8,13)      =    106.468813    -0.000081     0.130453   106.599266
	   54 B(14,11,15)     =    109.080803     0.000048     0.244525   109.325328
	   55 B(14,11,16)     =    108.379501     0.000118     0.438755   108.818257
	   56 B(15,11,16)     =    106.539146    -0.000033    -0.114692   106.424454
	   57 B(17,14,18)     =    107.725494     0.000009     0.020675   107.746169
	   58 B(17,14,19)     =    107.652935    -0.000013    -0.005530   107.647405
	   59 B(18,14,19)     =    107.727690     0.000006    -0.010279   107.717411
	   60 B(21,20,22)     =    110.280223    -0.000001    -0.004596   110.275627
	   61 B(21,20,23)     =    109.186134     0.000001     0.003007   109.189141
	   62 B(22,20,23)     =    110.277116     0.000002     0.005751   110.282867
	   63 D(1,2,3,5)      =      1.088550    -0.000013    -1.573172    -0.484622
	   64 D(1,2,3,6)      =    123.779260    -0.000012    -1.479390   122.299870
	   65 D(1,2,3,7)      =   -123.071997    -0.000005    -1.410225  -124.482222
	   66 D(1,2,4,20)     =     -0.553079     0.000010     1.459622     0.906543
	   67 D(2,3,5,8)      =    173.439336     0.000014     0.130971   173.570306
	   68 D(2,3,5,9)      =     53.477553     0.000013    -0.448904    53.028650
	   69 D(2,3,5,10)     =    -61.075996    -0.000021    -1.340395   -62.416391
	   70 D(2,4,20,21)    =    -60.538500     0.000000     0.018004   -60.520497
	   71 D(2,4,20,22)    =   -179.997536     0.000000     0.019036  -179.978500
	   72 D(2,4,20,23)    =     60.543134     0.000000     0.022043    60.565177
	   73 D(3,2,4,20)     =   -179.429708    -0.000009    -1.442489  -180.872197
	   74 D(3,5,8,11)     =     61.975956    -0.000042    -2.207087    59.768869
	   75 D(3,5,8,12)     =   -179.046335    -0.000021    -1.104195  -180.150530
	   76 D(3,5,8,13)     =    -63.805049    -0.000009    -0.826402   -64.631451
	   77 D(4,2,3,5)      =    179.931240     0.000007     1.418609   181.349849
	   78 D(4,2,3,6)      =    -57.378050     0.000007     1.512391   -55.865659
	   79 D(4,2,3,7)      =     55.770693     0.000015     1.581556    57.352249
	   80 D(5,8,11,14)    =    172.183380     0.000015     0.191351   172.374731
	   81 D(5,8,11,15)    =     50.895762     0.000011    -0.012395    50.883367
	   82 D(5,8,11,16)    =    -66.189444     0.000024     0.334229   -65.855215
	   83 D(6,3,5,8)      =     53.044417     0.000006    -0.149079    52.895338
	   84 D(6,3,5,9)      =    -66.917365     0.000006    -0.728953   -67.646319
	   85 D(6,3,5,10)     =    178.529085    -0.000028    -1.620444   176.908640
	   86 D(7,3,5,8)      =    -65.758714     0.000020     0.263060   -65.495653
	   87 D(7,3,5,9)      =    174.279504     0.000019    -0.316814   173.962690
	   88 D(7,3,5,10)     =     59.725954    -0.000015    -1.208305    58.517649
	   89 D(8,11,14,17)   =    -59.365358    -0.000007    -0.328305   -59.693664
	   90 D(8,11,14,18)   =   -179.448772    -0.000006    -0.315963  -179.764735
	   91 D(8,11,14,19)   =     60.497567    -0.000004    -0.244114    60.253453
	   92 D(9,5,8,11)     =   -178.977726    -0.000020    -1.102892  -180.080618
[...]
	 D(2,4,20,23)     =         1.057052	      60.564629
	 D(3,2,4,20)      =        -3.141532	    -179.996529
	 D(3,5,8,11)      =         1.025279	      58.744136
	 D(3,5,8,12)      =         3.130818	     179.382659
	 D(3,5,8,13)      =        -1.133977	     -64.972090
	 D(4,2,3,5)       =         3.137521	     179.766732
	 D(4,2,3,6)       =        -1.000303	     -57.313153
	 D(4,2,3,7)       =         0.975878	      55.913666
	 D(5,8,11,14)     =         3.035164	     173.902109
	 D(5,8,11,15)     =         0.911450	      52.222248
	 D(5,8,11,16)     =        -1.123482	     -64.370791
	 D(6,3,5,8)       =         0.929195	      53.238930
	 D(6,3,5,9)       =        -1.184182	     -67.848623
	 D(6,3,5,10)      =         3.082832	     176.633267
	 D(7,3,5,8)       =        -1.134183	     -64.983880
	 D(7,3,5,9)       =         3.035626	     173.928566
	 D(7,3,5,10)      =         1.019455	      58.410456
	 D(8,11,14,17)    =        -1.055934	     -60.500557
	 D(8,11,14,18)    =         3.131100	     179.398788
	 D(8,11,14,19)    =         1.036542	      59.389471
	 D(9,5,8,11)      =         3.130448	     179.361459
	*D(9,5,8,12)      =        -1.047198	     -60.000017
	 D(9,5,8,13)      =         0.971193	      55.645234
	 D(10,5,8,11)     =        -1.121943	     -64.282614
	 D(10,5,8,12)     =         0.983596	      56.355909
	 D(10,5,8,13)     =         3.001987	     172.001160
	 D(12,8,11,14)    =         0.931250	      53.356718
	 D(12,8,11,15)    =        -1.192464	     -68.323142
	 D(12,8,11,16)    =         3.055789	     175.083819
	 D(13,8,11,14)    =        -1.085810	     -62.212358
	 D(13,8,11,15)    =         3.073661	     176.107782
	 D(13,8,11,16)    =         1.038728	      59.514743
	 D(15,11,14,17)   =         1.067109	      61.140818
	 D(15,11,14,18)   =        -1.029043	     -58.959837
	 D(15,11,14,19)   =        -3.123601	    -178.969154
	 D(16,11,14,17)   =         3.089061	     176.990162
	 D(16,11,14,18)   =         0.992909	      56.889507
	 D(16,11,14,19)   =        -1.101649	     -63.119810

	Current energy   :      -422.9744410488

	Energy change for the previous step:
		Projected    :        -0.0000015946
		Actual       :        -0.0000001930
	Energy ratio indicates iffy step: Trust radius decreased to 7.812e-03.


	Performing BFGS update.
	Previous computed or guess Hessian on step 1.
	Steps to be used in Hessian update: 6 5
	Taking RFO optimization step.
	Going to follow RFO solution 1.
	Using RFO vector 1.

	Determining step-restricting scale parameter for RS-RFO.
	Maximum step size allowed    0.00781

	 Iter      |step|        alpha        rfo_root  
	------------------------------------------------
	    0     0.01054       1.00000           1
	    1     0.00861    1504.41030           1
	    2     0.00791    2365.52742           1
	    3     0.00781    2506.47294           1
	------------------------------------------------
	Norm of target step-size    0.00781
	Projected energy change by RFO approximation:         0.0000000242

	Back-transformation to cartesian coordinates...
	Successfully converged to displaced geometry.

	Back-transformation to cartesian coordinates to adjust frozen coordinates...
	Successfully converged to displaced geometry.

	--- Internal Coordinate Step in ANG or DEG, aJ/ANG or AJ/DEG ---
	 ---------------------------------------------------------------------------
	   Coordinate                Previous        Force       Change         New 
	   ----------                --------       ------       ------       ------
	    1 R(1,2)          =      1.188735     0.000005    -0.000001     1.188734
	    2 R(2,3)          =      1.509683    -0.000021     0.000003     1.509687
	    3 R(2,4)          =      1.327235     0.000095     0.000006     1.327241
	    4 R(3,5)          =      1.527872    -0.000194    -0.000018     1.527854
	    5 R(3,6)          =      1.087140     0.000065     0.000007     1.087148
	    6 R(3,7)          =      1.084879    -0.000063    -0.000010     1.084869
	    7 R(4,20)         =      1.415963    -0.000081    -0.000004     1.415959
	    8 R(5,8)          =      1.532561     0.000417     0.000069     1.532629
	    9 R(5,9)          =      1.084578    -0.000077    -0.000009     1.084569
	   10 R(5,10)         =      1.085509     0.000121     0.000011     1.085520
	   11 R(8,11)         =      1.532046    -0.000254    -0.000024     1.532022
	   12 R(8,12)         =      1.087673     0.000111     0.000014     1.087687
	   13 R(8,13)         =      1.088674    -0.000014    -0.000005     1.088669
	   14 R(11,14)        =      1.528607     0.000015     0.000006     1.528613
	   15 R(11,15)        =      1.088465    -0.000094    -0.000011     1.088455
	   16 R(11,16)        =      1.086676     0.000047     0.000000     1.086676
	   17 R(14,17)        =      1.086208     0.000002    -0.000001     1.086206
	   18 R(14,18)        =      1.085553     0.000055     0.000008     1.085561
	   19 R(14,19)        =      1.086453    -0.000054    -0.000006     1.086447
	   20 R(20,21)        =      1.080524    -0.000010    -0.000001     1.080524
	   21 R(20,22)        =      1.078884    -0.000008    -0.000000     1.078884
	   22 R(20,23)        =      1.080515     0.000009     0.000000     1.080515
	   23 B(1,2,3)        =    125.687799    -0.000001    -0.002315   125.685484
	   24 B(1,2,4)        =    123.140706     0.000002     0.002144   123.142850
	   25 B(2,3,5)        =    113.061491     0.000002     0.007203   113.068694
	   26 B(2,3,6)        =    107.313843    -0.000002    -0.007095   107.306749
	   27 B(2,3,7)        =    106.984359     0.000001     0.009417   106.993777
	   28 B(2,4,20)       =    116.988764    -0.000000     0.000825   116.989589
	   29 B(3,2,4)        =    111.171485    -0.000001     0.000168   111.171653
	   30 B(3,5,8)        =    113.846272    -0.000003    -0.006765   113.839507
	   31 B(3,5,9)        =    108.049701     0.000000     0.001061   108.050762
	   32 B(3,5,10)       =    109.296033     0.000001    -0.004725   109.291308
	   33 B(4,20,21)      =    110.597087     0.000000     0.000553   110.597640
	   34 B(4,20,22)      =    105.877266    -0.000001    -0.001303   105.875963
	   35 B(4,20,23)      =    110.595655    -0.000000    -0.000437   110.595219
	   36 B(5,3,6)        =    111.149513     0.000000    -0.002313   111.147200
	   37 B(5,3,7)        =    112.071722    -0.000002    -0.007296   112.064427
	   38 B(5,8,11)       =    115.129019    -0.000004    -0.008563   115.120456
	   39 B(5,8,12)       =    107.836772     0.000003     0.021029   107.857801
	   40 B(5,8,13)       =    109.630233     0.000002    -0.002258   109.627975
	   41 B(6,3,7)        =    105.851652     0.000000    -0.000033   105.851619
	   42 B(8,5,9)        =    108.890658     0.000003     0.016285   108.906943
	   43 B(8,5,10)       =    109.970578     0.000001    -0.002325   109.968253
	   44 B(8,11,14)      =    112.518534     0.000002     0.006849   112.525383
	   45 B(8,11,15)      =    109.286582    -0.000000    -0.003990   109.282592
	   46 B(8,11,16)      =    110.242896    -0.000002    -0.005541   110.237355
	   47 B(9,5,10)       =    106.511008    -0.000001    -0.003141   106.507867
	   48 B(11,8,12)      =    108.007022     0.000001     0.005461   108.012484
	   49 B(11,8,13)      =    109.309620    -0.000000    -0.010245   109.299376
	   50 B(11,14,17)     =    111.173015    -0.000000    -0.001720   111.171295
	   51 B(11,14,18)     =    111.244700     0.000001     0.005937   111.250637
	   52 B(11,14,19)     =    111.121761    -0.000002    -0.003882   111.117879
	   53 B(12,8,13)      =    106.567600    -0.000001    -0.004625   106.562974
	   54 B(14,11,15)     =    109.354274    -0.000001    -0.003802   109.350472
	   55 B(14,11,16)     =    108.860341     0.000001     0.006838   108.867178
	   56 B(15,11,16)     =    106.388451     0.000000    -0.000769   106.387682
	   57 B(17,14,18)     =    107.758580    -0.000000     0.000143   107.758723
	   58 B(17,14,19)     =    107.657285     0.000000    -0.000377   107.656909
	   59 B(18,14,19)     =    107.713677     0.000000    -0.000133   107.713543
	   60 B(21,20,22)     =    110.275285     0.000000     0.000640   110.275925
	   61 B(21,20,23)     =    109.186733     0.000000     0.000411   109.187144
	   62 B(22,20,23)     =    110.277728     0.000000     0.000100   110.277828
	   63 D(1,2,3,5)      =     -0.195880    -0.000000    -0.071171    -0.267051
	   64 D(1,2,3,6)      =    122.724235     0.000000    -0.074467   122.649768
	   65 D(1,2,3,7)      =   -124.048946     0.000000    -0.073384  -124.122331
	   66 D(1,2,4,20)     =     -0.032796    -0.000000    -0.013922    -0.046717
	   67 D(2,3,5,8)      =    174.003936     0.000000     0.020890   174.024826
	   68 D(2,3,5,9)      =     52.916382    -0.000000     0.003822    52.920204
	   69 D(2,3,5,10)     =    -62.601727    -0.000000     0.009460   -62.592267
	   70 D(2,4,20,21)    =    -60.519099    -0.000000    -0.004385   -60.523484
	   71 D(2,4,20,22)    =   -179.976159    -0.000000    -0.004678  -179.980837
	   72 D(2,4,20,23)    =     60.564629     0.000000    -0.003791    60.560838
	   73 D(3,2,4,20)     =   -179.996529     0.000000    -0.009885  -180.006414
	   74 D(3,5,8,11)     =     58.744136    -0.000000    -0.025453    58.718683
	   75 D(3,5,8,12)     =    179.382659    -0.000000    -0.008557   179.374103
	   76 D(3,5,8,13)     =    -64.972090     0.000000    -0.003664   -64.975754
	   77 D(4,2,3,5)      =    179.766732    -0.000000    -0.075331   179.691401
	   78 D(4,2,3,6)      =    -57.313153    -0.000000    -0.078627   -57.391780
	   79 D(4,2,3,7)      =     55.913666    -0.000000    -0.077544    55.836122
	   80 D(5,8,11,14)    =    173.902109     0.000000    -0.050447   173.851662
	   81 D(5,8,11,15)    =     52.222248     0.000000    -0.047374    52.174874
	   82 D(5,8,11,16)    =    -64.370791     0.000000    -0.040908   -64.411698
	   83 D(6,3,5,8)      =     53.238930     0.000000     0.026687    53.265617
	   84 D(6,3,5,9)      =    -67.848623    -0.000000     0.009619   -67.839005
	   85 D(6,3,5,10)     =    176.633267     0.000000     0.015257   176.648524
	   86 D(7,3,5,8)      =    -64.983880     0.000000     0.033063   -64.950818
	   87 D(7,3,5,9)      =    173.928566     0.000000     0.015995   173.944561
	   88 D(7,3,5,10)     =     58.410456     0.000000     0.021633    58.432090
	   89 D(8,11,14,17)   =    -60.500557     0.000000     0.122484   -60.378073
	   90 D(8,11,14,18)   =    179.398788     0.000000     0.119465   179.518254
	   91 D(8,11,14,19)   =     59.389471     0.000000     0.118262    59.507733
	   92 D(9,5,8,11)     =    179.361459    -0.000000    -0.016896   179.344563
	   93 *D(9,5,8,12)    =    -60.000017     0.000000    -0.000000   -60.000017
	   94 D(9,5,8,13)     =     55.645234     0.000000     0.004893    55.650126
	   95 D(10,5,8,11)    =    -64.282614    -0.000000    -0.012617   -64.295231
	   96 D(10,5,8,12)    =     56.355909     0.000000     0.004279    56.360188
	   97 D(10,5,8,13)    =    172.001160     0.000000     0.009172   172.010332
	   98 D(12,8,11,14)   =     53.356718    -0.000000    -0.075863    53.280855
	   99 D(12,8,11,15)   =    -68.323142    -0.000000    -0.072791   -68.395933
	  100 D(12,8,11,16)   =    175.083819    -0.000000    -0.066325   175.017495
	  101 D(13,8,11,14)   =    -62.212358    -0.000000    -0.067949   -62.280307
	  102 D(13,8,11,15)   =    176.107782    -0.000000    -0.064877   176.042905
	  103 D(13,8,11,16)   =     59.514743     0.000000    -0.058410    59.456333
	  104 D(15,11,14,17)  =     61.140818     0.000000     0.119309    61.260126
	  105 D(15,11,14,18)  =    -58.959837     0.000000     0.116290   -58.843547
	  106 D(15,11,14,19)  =   -178.969154     0.000000     0.115087  -178.854067
	  107 D(16,11,14,17)  =    176.990162     0.000000     0.120100   177.110262
	  108 D(16,11,14,18)  =     56.889507     0.000000     0.117082    57.006589
	  109 D(16,11,14,19)  =    -63.119810     0.000000     0.115878   -63.003932
	 ---------------------------------------------------------------------------

  ==> Convergence Check <==

  Measures of convergence in internal coordinates in au.
  Criteria marked as inactive (o), active & met (*), and active & unmet ( ).
  ---------------------------------------------------------------------------------------------
   Step     Total Energy     Delta E     MAX Force     RMS Force      MAX Disp      RMS Disp   
  ---------------------------------------------------------------------------------------------
    Convergence Criteria    1.00e-06 *    3.00e-04 *             o    1.20e-03 *             o
  ---------------------------------------------------------------------------------------------
      7    -422.97444105   -1.93e-07 *    5.06e-05 *    1.50e-05 o    2.14e-03      7.48e-04 o  ~
  ---------------------------------------------------------------------------------------------


  **** Optimization is complete! (in 7 steps) ****

  ==> Optimization Summary <==

  Measures of convergence in internal coordinates in au.
  --------------------------------------------------------------------------------------------------------------- ~
   Step         Total Energy             Delta E       MAX Force       RMS Force        MAX Disp        RMS Disp  ~
  --------------------------------------------------------------------------------------------------------------- ~
      1    -422.973036859572   -422.973036859572      0.01511924      0.00262598      0.14467146      0.04209747  ~
      2    -422.973634542203     -0.000597682631      0.00816838      0.00169787      0.03852093      0.01197160  ~
      3    -422.974304676324     -0.000670134121      0.00196542      0.00049344      0.04580318      0.01196943  ~
      4    -422.974246796687      0.000057879637      0.00205104      0.00053958      0.03583909      0.01197285  ~
      5    -422.974430611026     -0.000183814338      0.00056078      0.00014721      0.01252614      0.00421019  ~
      6    -422.974440855811     -0.000010244786      0.00009601      0.00002475      0.00619990      0.00188756  ~
      7    -422.974441048816     -0.000000193004      0.00005061      0.00001503      0.00213775      0.00074849  ~
  --------------------------------------------------------------------------------------------------------------- ~

	Writing optimization data to binary file.
	Final energy is   -422.9744410488156
	Final (previous) structure:
	Cartesian Geometry (in Angstrom)
	    O     2.2831315680   0.5311105520  -0.4007672121
	    C     1.3965437789   0.7165343636   0.3690833288
	    C     0.0465419707   0.0415537570   0.3368462326
	    O     1.4833251672   1.5665793673   1.3846845027
	    C    -0.1023689352  -0.9439231502  -0.8211925853
	    H    -0.0899284158  -0.4548654319   1.2943524156
	    H    -0.7001250192   0.8278164245   0.3016124486
	    C    -1.4080589616  -1.7456985110  -0.7884574184
	    H     0.7340749437  -1.6334067809  -0.7853761334
	    H    -0.0200818646  -0.4076558466  -1.7613931257
	    C    -2.6885909171  -0.9051333701  -0.8176674055
	    H    -1.4173404696  -2.4027935429  -1.6551599672
	    H    -1.4199940008  -2.3895163507   0.0893619159
	    C    -3.9490109676  -1.7622629045  -0.9330396618
	    H    -2.6451329314  -0.2128150142  -1.6564543768
	    H    -2.7589802823  -0.2958971695   0.0794063392
	    H    -3.9419973218  -2.3492276009  -1.8469710796
	    H    -4.8435144677  -1.1472682593  -0.9413656319
	    H    -4.0305025850  -2.4529851877  -0.0983891625
	    C     2.7033301702   2.2701719139   1.5313012330
	    H     3.5229185370   1.5824877203   1.6826232305
	    H     2.5785854894   2.8997635381   2.3985061901
	    H     2.9021474602   2.8726236048   0.6566376902
	Saving final (previous) structure.
			--------------------------
			 OPTKING Finished Execution 
			--------------------------

    Final optimized geometry and variables:
    Molecular point group: c1
    Full point group: C1

    Geometry (in Angstrom), charge = 0, multiplicity = 1:

    O            2.283131393636     0.531110511437    -0.400767181497
    C            1.396543672261     0.716534308876     0.369083300585
    C            0.046541967109     0.041553753803     0.336846206878
    O            1.483325053890     1.566579247640     1.384684396944
    C           -0.102368927342    -0.943923078081    -0.821192522546
    H           -0.089928408930    -0.454865397134     1.294352316742
    H           -0.700124965757     0.827816361315     0.301612425596
    C           -1.408058854113    -1.745698377689    -0.788457358194
    H            0.734074887611    -1.633406656195    -0.785376073390
    H           -0.020081863106    -0.407655815502    -1.761392991164
    C           -2.688590711790    -0.905133301016    -0.817667343027
    H           -1.417340361335    -2.402793359456    -1.655159840819
    H           -1.419993892373    -2.389516168244     0.089361909062
    C           -3.949010666028    -1.762262769960    -0.933039590597
    H           -2.645132729410    -0.212814997948    -1.656454250275
    H           -2.758980071581    -0.295897146937     0.079406333120
    H           -3.941997020735    -2.349227421550    -1.846970938517
    H           -4.843514097809    -1.147268171706    -0.941365560044
    H           -4.030502277190    -2.452985000365    -0.098389154990
    C            2.703329963805     2.270171740499     1.531301116057
    H            3.522918268020     1.582487599500     1.682623101960
    H            2.578585292473     2.899763316643     2.398506006967
    H            2.902147238596     2.872623385425     0.656637640023

	Cleaning optimization helper files.


Properties will be evaluated at   0.000000,   0.000000,   0.000000 Bohr

Properties computed using the  density matrix

  Nuclear Dipole Moment: (a.u.)
     X:   -11.3533      Y:    -5.2058      Z:    -2.0976

  Electronic Dipole Moment: (a.u.)
     X:    10.9493      Y:     5.4415      Z:     2.6248

  Dipole Moment: (a.u.)
     X:    -0.4040      Y:     0.2358      Z:     0.5272     Total:     0.7048

  Dipole Moment: (Debye)
     X:    -1.0269      Y:     0.5992      Z:     1.3400     Total:     1.7914

  Quadrupole Moment: (Debye Ang)
    XX:   -58.7146     YY:   -53.1161     ZZ:   -56.4709
    XY:     3.2405     XZ:     5.7758     YZ:     1.3902

  Traceless Quadrupole Moment: (Debye Ang)
    XX:    -2.6141     YY:     2.9844     ZZ:    -0.3703
    XY:     3.2405     XZ:     5.7758     YZ:     1.3902

  Mulliken Charges: (a.u.)
   Center  Symbol    Alpha    Beta     Spin     Total
       1     O     4.28594  4.28594  0.00000 -0.57187
       2     C     2.60485  2.60485  0.00000  0.79029
       3     C     3.21059  3.21059  0.00000 -0.42118
       4     O     4.30741  4.30741  0.00000 -0.61481
       5     C     3.15341  3.15341  0.00000 -0.30683
       6     H     0.40137  0.40137  0.00000  0.19727
       7     H     0.39859  0.39859  0.00000  0.20283
       8     C     3.15469  3.15469  0.00000 -0.30938
       9     H     0.40849  0.40849  0.00000  0.18302
      10     H     0.41314  0.41314  0.00000  0.17372
      11     C     3.15580  3.15580  0.00000 -0.31161
      12     H     0.41870  0.41870  0.00000  0.16260
      13     H     0.42337  0.42337  0.00000  0.15325
      14     C     3.23902  3.23902  0.00000 -0.47805
      15     H     0.42222  0.42222  0.00000  0.15557
      16     H     0.42224  0.42224  0.00000  0.15552
      17     H     0.42087  0.42087  0.00000  0.15826
      18     H     0.41873  0.41873  0.00000  0.16253
      19     H     0.42147  0.42147  0.00000  0.15707
      20     C     3.09240  3.09240  0.00000 -0.18481
      21     H     0.40911  0.40911  0.00000  0.18178
      22     H     0.40849  0.40849  0.00000  0.18301
      23     H     0.40909  0.40909  0.00000  0.18183

   Total alpha = 36.00000, Total beta = 36.00000, Total charge =  0.00000


*** PSI4 exiting successfully. Buy a developer a beer!
