    -----------------------------------------------------------------------
          Psi4: An Open-Source Ab Initio Electronic Structure Package
                              Psi4 1.0.54 Driver

                          Git: Rev {master} 8d4cec3 dirty

    J. M. Turney, A. C. Simmonett, R. M. Parrish, E. G. Hohenstein,
    F. A. Evangelista, J. T. Fermann, B. J. Mintz, L. A. Burns, J. J. Wilke,
    M. L. Abrams, N. J. Russ, M. L. Leininger, C. L. Janssen, E. T. Seidl,
    W. D. Allen, H. F. Schaefer, R. A. King, E. F. Valeev, C. D. Sherrill,
    and T. D. Crawford, WIREs Comput. Mol. Sci. 2, 556-565 (2012)
    (doi: 10.1002/wcms.93)

                         Additional Contributions by
    A. E. DePrince, U. Bozkaya, A. Yu. Sokolov, D. G. A. Smith, R. Di Remigio,
    R. M. Richard, J. F. Gonthier, H. R. McAlexander, M. Saitow, and
    B. P. Pritchard
    -----------------------------------------------------------------------


    Psi4 started on: Sat Sep 10 15:42:15 2016

    Process ID:  46549
    PSI4DATADIR: /export131/home/mjharvey/miniconda3/share/psi4
    Memory level set to 256.000 MB

  ==> Input File <==

--------------------------------------------------------------------------
set {
	reference rhf
	basis cc-pvtz
}


set_num_threads( 4 )
memory 2 gb

molecule MOL {
0 1

H	 -2.071271	 -0.355711	 0.996010
O	 -2.041679	 -0.058866	 0.103463
C	 -0.959304	 0.780994	 -0.094939
C	 0.354905	 0.037902	 -0.006215
H	 -0.985899	 1.279578	 -1.057596
H	 -0.969809	 1.529522	 0.682889
F	 0.412060	 -0.931028	 -0.902708
F	 1.359641	 0.856111	 -0.239961
F	 0.545380	 -0.506387	 1.171682

	symmetry c1
}
set optking {
	frozen_dihedral = ("
		1 2 3 5
	")
}

ee,wfn = optimize('scf', return_wfn=True)
oeprop( wfn, 'DIPOLE', 'QUADRUPOLE', 'MULLIKEN_CHARGES')
f=open( 'psi4out.xyz', 'w' )
f.write( "9  " )
f.write( str(ee) + "\n" )
f.write( MOL.save_string_xyz() )
f.close()
--------------------------------------------------------------------------

  Memory set to   2.000 GiB by Python script.
gradient() will perform analytic gradient computation.

*** tstart() called on cx1-27-3-4
*** at Sat Sep 10 15:42:15 2016


         ---------------------------------------------------------
                                   SCF
            by Justin Turney, Rob Parrish, and Andy Simmonett
                              RHF Reference
                        4 Threads,   2000 MiB Core
         ---------------------------------------------------------

  ==> Geometry <==

    Molecular point group: c1
    Full point group: C1

    Geometry (in Angstrom), charge = 0, multiplicity = 1:

       Center              X                  Y                   Z               Mass       
    ------------   -----------------  -----------------  -----------------  -----------------
           H         -2.071801723978    -0.358849917285     0.979828208225     1.007825032070
           O         -2.042209723978    -0.062004917285     0.087281208225    15.994914619560
           C         -0.959834723978     0.777855082715    -0.111120791775    12.000000000000
           C          0.354374276022     0.034763082715    -0.022396791775    12.000000000000
           H         -0.986429723978     1.276439082715    -1.073777791775     1.007825032070
           H         -0.970339723978     1.526383082715     0.666707208225     1.007825032070
           F          0.411529276022    -0.934166917285    -0.918889791775    18.998403224000
           F          1.359110276022     0.852972082715    -0.256142791775    18.998403224000
           F          0.544849276022    -0.509525917285     1.155500208225    18.998403224000

  Running in c1 symmetry.

  Rotational constants: A =      0.18328  B =      0.09653  C =      0.09528 [cm^-1]
  Rotational constants: A =   5494.44934  B =   2893.88829  C =   2856.28963 [MHz]
  Nuclear repulsion =  277.683460910444865

  Charge       = 0
  Multiplicity = 1
  Electrons    = 50
  Nalpha       = 25
  Nbeta        = 25

  ==> Algorithm <==

  SCF Algorithm Type is DF.
  DIIS enabled.
  MOM disabled.
  Fractional occupation disabled.
  Guess Type is SAD.
  Energy threshold   = 1.00e-08
  Density threshold  = 1.00e-08
  Integral threshold = 0.00e+00

  ==> Primary Basis <==

  Basis Set: CC-PVTZ
    Number of shells: 78
    Number of basis function: 222
    Number of Cartesian functions: 255
    Spherical Harmonics?: true
    Max angular momentum: 3

  ==> Pre-Iterations <==

   -------------------------------------------------------
    Irrep   Nso     Nmo     Nalpha   Nbeta   Ndocc  Nsocc
   -------------------------------------------------------
     A        222     222       0       0       0       0
   -------------------------------------------------------
    Total     222     222      25      25      25       0
   -------------------------------------------------------

  ==> Integral Setup <==

  ==> DFJK: Density-Fitted J/K Matrices <==

    J tasked:                  Yes
    K tasked:                  Yes
    wK tasked:                  No
    OpenMP threads:              4
    Integrals threads:           4
    Memory (MB):              1430
    Algorithm:                Core
    Integral Cache:           NONE
    Schwarz Cutoff:          1E-12
    Fitting Condition:       1E-12

   => Auxiliary Basis Set <=

  Basis Set: 
    Number of shells: 180
    Number of basis function: 564
    Number of Cartesian functions: 681
    Spherical Harmonics?: true
    Max angular momentum: 4

  Minimum eigenvalue in the overlap matrix is 1.0156805713E-03.
  Using Symmetric Orthogonalization.
  SCF Guess: Superposition of Atomic Densities via on-the-fly atomic UHF.

  ==> Iterations <==

                           Total Energy        Delta E     RMS |[F,P]|

   @DF-RHF iter   0:  -452.97394285460450   -4.52974e+02   1.95658e-02 
   @DF-RHF iter   1:  -450.61552424809156    2.35842e+00   3.19406e-03 
   @DF-RHF iter   2:  -450.79331631871423   -1.77792e-01   1.73278e-03 DIIS
   @DF-RHF iter   3:  -450.84014752659186   -4.68312e-02   3.65717e-04 DIIS
   @DF-RHF iter   4:  -450.84474516630348   -4.59764e-03   1.16389e-04 DIIS
   @DF-RHF iter   5:  -450.84522210304556   -4.76937e-04   2.86549e-05 DIIS
   @DF-RHF iter   6:  -450.84525960666906   -3.75036e-05   7.34688e-06 DIIS
   @DF-RHF iter   7:  -450.84526158949211   -1.98282e-06   2.70340e-06 DIIS
   @DF-RHF iter   8:  -450.84526181870888   -2.29217e-07   7.65684e-07 DIIS
   @DF-RHF iter   9:  -450.84526184400033   -2.52915e-08   1.89326e-07 DIIS
   @DF-RHF iter  10:  -450.84526184602873   -2.02840e-09   5.01816e-08 DIIS
   @DF-RHF iter  11:  -450.84526184614788   -1.19144e-10   1.68208e-08 DIIS
   @DF-RHF iter  12:  -450.84526184616152   -1.36424e-11   5.41214e-09 DIIS

  ==> Post-Iterations <==

    Orbital Energies (a.u.)
    -----------------------

    Doubly Occupied:                                                      

       1A    -26.343436     2A    -26.339303     3A    -26.330928  
       4A    -20.582681     5A    -11.493355     6A    -11.310631  
       7A     -1.747813     8A     -1.647902     9A     -1.638631  
      10A     -1.407137    11A     -1.050388    12A     -0.929610  
      13A     -0.837835    14A     -0.835556    15A     -0.809978  
      16A     -0.732395    17A     -0.719368    18A     -0.703193  
      19A     -0.673916    20A     -0.663991    21A     -0.648392  
      22A     -0.637401    23A     -0.618126    24A     -0.531560  
      25A     -0.483194  

    Virtual:                                                              

      26A      0.137768    27A      0.168853    28A      0.203279  
      29A      0.273117    30A      0.319070    31A      0.343079  
      32A      0.360819    33A      0.402643    34A      0.477921  
      35A      0.493987    36A      0.509919    37A      0.516961  
      38A      0.546246    39A      0.556779    40A      0.574040  
      41A      0.607886    42A      0.620917    43A      0.642895  
      44A      0.703241    45A      0.735857    46A      0.761983  
      47A      0.787766    48A      0.815789    49A      0.875044  
      50A      0.898491    51A      0.916737    52A      0.944774  
      53A      0.985016    54A      1.031179    55A      1.053027  
      56A      1.069207    57A      1.115125    58A      1.122285  
      59A      1.137790    60A      1.147418    61A      1.159901  
      62A      1.175903    63A      1.233720    64A      1.287964  
      65A      1.320251    66A      1.343233    67A      1.362651  
      68A      1.412681    69A      1.445940    70A      1.474852  
      71A      1.481122    72A      1.531084    73A      1.542519  
      74A      1.616361    75A      1.727259    76A      1.742400  
      77A      1.944296    78A      1.983706    79A      2.070069  
      80A      2.098853    81A      2.179968    82A      2.182998  
      83A      2.195587    84A      2.244812    85A      2.249966  
      86A      2.278340    87A      2.318892    88A      2.348713  
      89A      2.358973    90A      2.394562    91A      2.463976  
      92A      2.481488    93A      2.506502    94A      2.614121  
      95A      2.648035    96A      2.694096    97A      2.736699  
      98A      2.772631    99A      2.826848   100A      2.853036  
     101A      2.879587   102A      2.927894   103A      2.985580  
     104A      3.050289   105A      3.136791   106A      3.195448  
     107A      3.231826   108A      3.241798   109A      3.252566  
     110A      3.281437   111A      3.320401   112A      3.324290  
     113A      3.352698   114A      3.373322   115A      3.435751  
     116A      3.454142   117A      3.495343   118A      3.554138  
     119A      3.586026   120A      3.628164   121A      3.648550  
     122A      3.691182   123A      3.721367   124A      3.739376  
     125A      3.786182   126A      3.812969   127A      3.829933  
     128A      3.890451   129A      3.935011   130A      3.952693  
     131A      3.977866   132A      4.014205   133A      4.074910  
     134A      4.127400   135A      4.162598   136A      4.188320  
     137A      4.201750   138A      4.248280   139A      4.319800  
     140A      4.336288   141A      4.359925   142A      4.427678  
     143A      4.493354   144A      4.538830   145A      4.557280  
     146A      4.597259   147A      4.673451   148A      4.749805  
     149A      4.947209   150A      5.060570   151A      5.148716  
     152A      5.178776   153A      5.240721   154A      5.284044  
     155A      5.318809   156A      5.374172   157A      5.383550  
     158A      5.436239   159A      5.480982   160A      5.508015  
     161A      5.555893   162A      5.580289   163A      5.668143  
     164A      5.788113   165A      6.023419   166A      6.043515  
     167A      6.231738   168A      6.256911   169A      6.405732  
     170A      6.552148   171A      6.581379   172A      6.706991  
     173A      7.029842   174A      7.133004   175A      7.210738  
     176A      7.239830   177A      7.313594   178A      7.336907  
     179A      7.351616   180A      7.356386   181A      7.360792  
     182A      7.362208   183A      7.367545   184A      7.372824  
     185A      7.380882   186A      7.382010   187A      7.466887  
     188A      7.512964   189A      7.521712   190A      7.531051  
     191A      7.598655   192A      7.631226   193A      7.632372  
     194A      7.678735   195A      7.876092   196A      7.935319  
     197A      7.960039   198A      7.983223   199A      8.099631  
     200A      8.166825   201A      8.175387   202A      8.899841  
     203A      8.905279   204A      8.931136   205A      9.025118  
     206A      9.033029   207A      9.086882   208A      9.200695  
     209A      9.322069   210A      9.402857   211A      9.403117  
     212A      9.522283   213A      9.675723   214A      9.683906  
     215A      9.729642   216A      9.734735   217A     11.153840  
     218A     12.192992   219A     12.410966   220A     12.634805  
     221A     13.169774   222A     13.797283  

    Final Occupation by Irrep:
              A 
    DOCC [    25 ]

  Energy converged.

  @DF-RHF Final Energy:  -450.84526184616152

   => Energetics <=

    Nuclear Repulsion Energy =            277.6834609104448646
    One-Electron Energy =               -1177.6240063980424111
    Two-Electron Energy =                 449.0952836414357421
    DFT Exchange-Correlation Energy =       0.0000000000000000
    Empirical Dispersion Energy =           0.0000000000000000
    PCM Polarization Energy =               0.0000000000000000
    EFP Energy =                            0.0000000000000000
    Total Energy =                       -450.8452618461618044


  Saving occupied orbitals to File 180.

*** tstop() called on cx1-27-3-4 at Sat Sep 10 15:42:18 2016
Module time:
	user time   =       9.41 seconds =       0.16 minutes
	system time =       0.28 seconds =       0.00 minutes
	total time  =          3 seconds =       0.05 minutes
Total time:
	user time   =       9.41 seconds =       0.16 minutes
	system time =       0.28 seconds =       0.00 minutes
	total time  =          3 seconds =       0.05 minutes


Properties will be evaluated at   0.000000,   0.000000,   0.000000 Bohr

Properties computed using the SCF density matrix

  Nuclear Dipole Moment: (a.u.)
     X:    -5.9708      Y:     2.8481      Z:     0.5558

  Electronic Dipole Moment: (a.u.)
     X:     5.6041      Y:    -2.3002      Z:    -0.0861

  Dipole Moment: (a.u.)
     X:    -0.3667      Y:     0.5479      Z:     0.4697     Total:     0.8095

  Dipole Moment: (Debye)
     X:    -0.9320      Y:     1.3927      Z:     1.1938     Total:     2.0575


*** tstart() called on cx1-27-3-4
*** at Sat Sep 10 15:42:18 2016


         ------------------------------------------------------------
                                   SCF GRAD                          
                          Rob Parrish, Justin Turney,                
                       Andy Simmonett, and Alex Sokolov              
         ------------------------------------------------------------

  ==> Geometry <==

    Molecular point group: c1
    Full point group: C1

    Geometry (in Angstrom), charge = 0, multiplicity = 1:

       Center              X                  Y                   Z               Mass       
    ------------   -----------------  -----------------  -----------------  -----------------
           H         -2.071801723978    -0.358849917285     0.979828208225     1.007825032070
           O         -2.042209723978    -0.062004917285     0.087281208225    15.994914619560
           C         -0.959834723978     0.777855082715    -0.111120791775    12.000000000000
           C          0.354374276022     0.034763082715    -0.022396791775    12.000000000000
           H         -0.986429723978     1.276439082715    -1.073777791775     1.007825032070
           H         -0.970339723978     1.526383082715     0.666707208225     1.007825032070
           F          0.411529276022    -0.934166917285    -0.918889791775    18.998403224000
           F          1.359110276022     0.852972082715    -0.256142791775    18.998403224000
           F          0.544849276022    -0.509525917285     1.155500208225    18.998403224000

  Nuclear repulsion =  277.683460910444865

  ==> Basis Set <==

  Basis Set: CC-PVTZ
    Number of shells: 78
    Number of basis function: 222
    Number of Cartesian functions: 255
    Spherical Harmonics?: true
    Max angular momentum: 3

  ==> DFJKGrad: Density-Fitted SCF Gradients <==

    Gradient:                    1
    J tasked:                  Yes
    K tasked:                  Yes
    wK tasked:                  No
    OpenMP threads:              4
    Integrals threads:           4
    Memory (MB):              1430
    Schwarz Cutoff:          0E+00
    Fitting Condition:       1E-12

   => Auxiliary Basis Set <=

  Basis Set: 
    Number of shells: 180
    Number of basis function: 564
    Number of Cartesian functions: 681
    Spherical Harmonics?: true
    Max angular momentum: 4


  -Total Gradient:
     Atom            X                  Y                   Z
    ------   -----------------  -----------------  -----------------
       1       -0.000954570946    -0.000979319032     0.000605519923
       2        0.002553404202     0.003672033633     0.011767091458
       3       -0.001099512434    -0.002656906294    -0.016155458615
       4        0.000725590301     0.003340264563     0.015285018933
       5        0.006935581269     0.006741192276    -0.001665137870
       6       -0.007432392947    -0.007564762227     0.001192281855
       7       -0.001530801633    -0.003512524480    -0.004376438207
       8       -0.000147847461    -0.000429985910    -0.001429144297
       9        0.000950549648     0.001390007467    -0.005223733177


*** tstop() called on cx1-27-3-4 at Sat Sep 10 15:42:21 2016
Module time:
	user time   =      10.44 seconds =       0.17 minutes
	system time =       0.27 seconds =       0.00 minutes
	total time  =          3 seconds =       0.05 minutes
Total time:
	user time   =      19.90 seconds =       0.33 minutes
	system time =       0.55 seconds =       0.01 minutes
	total time  =          6 seconds =       0.10 minutes

			-----------------------------------------
			 OPTKING 2.0: for geometry optimizations 
			  - R.A. King,  Bethel University        
			-----------------------------------------

	Internal coordinates to be generated automatically.
	Detected frag 1 with atoms:  1 2 3 4 5 6 7 8 9
	---Fragment 1 Bond Connectivity---
	 1 : 2
	 2 : 1 3
	 3 : 2 4 5 6
	 4 : 3 7 8 9
	 5 : 3
	 6 : 3
	 7 : 4
	 8 : 4
	 9 : 4

	Assuming in current code that numbering for constraints corresponds to unified fragment.
	Frozen dihedral atom list: 
	     1     2     3     5
	---Fragment 1 Geometry and Gradient---
	 H          -3.9151378600       -0.6781280665        1.8516069708
	 O          -3.8592170842       -0.1171723126        0.1649375801
	 C          -1.8138247612        1.4699330774       -0.2099878641
	 C           0.6696703302        0.0656927059       -0.0423238027
	 H          -1.8640820277        2.4121202916       -2.0291459540
	 H          -1.8336763342        2.8844460002        1.2598940344
	 F           0.7776776273       -1.7653196361       -1.7364500528
	 F           2.5683462061        1.6118836353       -0.4840397274
	 F           1.0296159154       -0.9628644413        2.1835789400
	            -0.0009545709       -0.0009793190        0.0006055199
	             0.0025534042        0.0036720336        0.0117670915
	            -0.0010995124       -0.0026569063       -0.0161554586
	             0.0007255903        0.0033402646        0.0152850189
	             0.0069355813        0.0067411923       -0.0016651379
	            -0.0074323929       -0.0075647622        0.0011922819
	            -0.0015308016       -0.0035125245       -0.0043764382
	            -0.0001478475       -0.0004299859       -0.0014291443
	             0.0009505496        0.0013900075       -0.0052237332

	Previous optimization step data not found.  Starting new optimization.

	---Fragment 1 Intrafragment Coordinates---
	 - Coordinate -           - BOHR/RAD -       - ANG/DEG -
	 R(1,2)           =         1.778385	       0.941081
	 R(2,3)           =         2.615932	       1.384292
	 R(3,4)           =         2.857928	       1.512350
	 R(3,5)           =         2.049287	       1.084436
	 R(3,6)           =         2.040047	       1.079547
	 R(4,7)           =         2.496865	       1.321284
	 R(4,8)           =         2.488130	       1.316662
	 R(4,9)           =         2.478333	       1.311477
	 B(1,2,3)         =         1.930388	     110.603112
	 B(2,3,4)         =         1.952976	     111.897290
	 B(2,3,5)         =         1.968167	     112.767666
	 B(2,3,6)         =         1.885778	     108.047109
	 B(3,4,7)         =         1.937032	     110.983742
	 B(3,4,8)         =         1.925555	     110.326169
	 B(3,4,9)         =         1.963642	     112.508420
	 B(4,3,5)         =         1.874749	     107.415192
	 B(4,3,6)         =         1.882703	     107.870956
	 B(5,3,6)         =         1.897134	     108.697761
	 B(7,4,8)         =         1.877843	     107.592463
	 B(7,4,9)         =         1.874196	     107.383500
	 B(8,4,9)         =         1.882333	     107.849764
	 D(1,2,3,4)       =         1.200213	      68.767158
	*D(1,2,3,5)       =        -2.967059	    -169.999981
	 D(1,2,3,6)       =        -0.869886	     -49.840773
	 D(2,3,4,7)       =         1.028115	      58.906630
	 D(2,3,4,8)       =         3.107886	     178.068775
	 D(2,3,4,9)       =        -1.072417	     -61.444986
	 D(5,3,4,7)       =        -1.140937	     -65.370894
	 D(5,3,4,8)       =         0.938834	      53.791250
	 D(5,3,4,9)       =         3.041716	     174.277489
	 D(6,3,4,7)       =         3.100037	     177.619023
	 D(6,3,4,8)       =        -1.103377	     -63.218833
	 D(6,3,4,9)       =         0.999505	      57.267407

	Current energy   :      -450.8452618462

	Generating empirical Hessian (Schlegel '84) for each fragment.
	Taking RFO optimization step.
	Going to follow RFO solution 1.
	Using RFO vector 1.
	Norm of target step-size    0.28906
	Projected energy change by RFO approximation:        -0.0026779886

	Back-transformation to cartesian coordinates...
	Could not converge backtransformation.
	Using first guess instead.

	Back-transformation to cartesian coordinates to adjust frozen coordinates...
	Successfully converged to displaced geometry.

	--- Internal Coordinate Step in ANG or DEG, aJ/ANG or AJ/DEG ---
	 ---------------------------------------------------------------------------
	   Coordinate                Previous        Force       Change         New 
	   ----------                --------       ------       ------       ------
	    1 R(1,2)          =      0.941081    -0.007524     0.038694     0.979774
	    2 R(2,3)          =      1.384292     0.009149     0.008298     1.392590
	    3 R(3,4)          =      1.512350     0.001150     0.053130     1.565480
	    4 R(3,5)          =      1.084436    -0.036311     0.040889     1.125326
	    5 R(3,6)          =      1.079547     0.035540     0.038245     1.117792
	    6 R(4,7)          =      1.321284    -0.045140     0.034582     1.355866
	    7 R(4,8)          =      1.316662     0.001041     0.008113     1.324775
	    8 R(4,9)          =      1.311477     0.042269     0.058495     1.369972
	    9 B(1,2,3)        =    110.603112    -0.000160    -0.069121   110.533992
	   10 B(2,3,4)        =    111.897290     0.000024    -1.263686   110.633604
	   11 B(2,3,5)        =    112.767666    -0.000650    -5.007699   107.759967
	   12 B(2,3,6)        =    108.047109     0.000660     4.633564   112.680673
	   13 B(3,4,7)        =    110.983742     0.000338     2.798061   113.781803
	   14 B(3,4,8)        =    110.326169    -0.000003    -1.359619   108.966550
	   15 B(3,4,9)        =    112.508420    -0.000335    -1.162160   111.346260
	   16 B(4,3,5)        =    107.415192     0.000310    -0.144345   107.270847
	   17 B(4,3,6)        =    107.870956    -0.000317     1.634408   109.505363
	   18 B(5,3,6)        =    108.697761    -0.000029     0.116308   108.814069
	   19 B(7,4,8)        =    107.592463    -0.000060    -1.083099   106.509364
	   20 B(7,4,9)        =    107.383500    -0.000004     0.018811   107.402311
	   21 B(8,4,9)        =    107.849764     0.000067     0.766927   108.616691
	   22 D(1,2,3,4)      =     68.767158     0.000011     4.250291    73.017449
	   23 *D(1,2,3,5)     =   -169.999981     0.000000     0.000000  -169.999981
	   24 D(1,2,3,6)      =    -49.840773     0.000001    -0.101371   -49.942145
	   25 D(2,3,4,7)      =     58.906630    -0.000097    -1.155214    57.751417
	   26 D(2,3,4,8)      =    178.068775    -0.000065    -1.643934   176.424841
	   27 D(2,3,4,9)      =    -61.444986    -0.000097    -2.345730   -63.790716
	   28 D(5,3,4,7)      =    -65.370894     0.000038     5.838517   -59.532377
	   29 D(5,3,4,8)      =     53.791250     0.000070     5.349797    59.141047
	   30 D(5,3,4,9)      =    174.277489     0.000037     4.648000   178.925490
	   31 D(6,3,4,7)      =    177.619023     0.000046     4.916924   182.535947
	   32 D(6,3,4,8)      =    -63.218833     0.000078     4.428204   -58.790629
	   33 D(6,3,4,9)      =     57.267407     0.000046     3.726407    60.993814
	 ---------------------------------------------------------------------------
	Successfully symmetrized geometry.

  ==> Convergence Check <==

  Measures of convergence in internal coordinates in au.
  Criteria marked as inactive (o), active & met (*), and active & unmet ( ).
  --------------------------------------------------------------------------------------------- ~
   Step     Total Energy     Delta E     MAX Force     RMS Force      MAX Disp      RMS Disp    ~
  --------------------------------------------------------------------------------------------- ~
    Convergence Criteria    1.00e-06 *    3.00e-04 *             o    1.20e-03 *             o  ~
  --------------------------------------------------------------------------------------------- ~
      1    -450.84526185   -4.51e+02      8.68e-03      3.73e-03 o    1.11e-01      5.89e-02 o  ~
  ---------------------------------------------------------------------------------------------

	Writing optimization data to binary file.
	Structure for next step:
	Cartesian Geometry (in Angstrom)
	    H    -1.9283356100  -0.6702182297   1.0495493484
	    O    -2.0210725921  -0.1552222870   0.2212154511
	    C    -1.0037736080   0.7900839707   0.1172697540
	    C     0.3595293586   0.0985314197  -0.2202045148
	    H    -1.2547264044   1.4712734993  -0.7425914016
	    H    -0.8909032467   1.4054300809   1.0435890546
	    F     0.3349391388  -0.6296460803  -1.3636757445
	    F     1.2855452779   1.0310118823  -0.3875436586
	    F     0.7580451700  -0.7373795114   0.7893805856
			--------------------------
			 OPTKING Finished Execution 
			--------------------------

    Structure for next step:
    Molecular point group: c1
    Full point group: C1

    Geometry (in Angstrom), charge = 0, multiplicity = 1:

    H           -1.938580271298    -0.710419209521     1.195621298428
    O           -2.031317253471    -0.195423266793     0.367287401127
    C           -1.014018269298     0.749882990924     0.263341704081
    C            0.349284697274     0.058330439871    -0.074132564751
    H           -1.264971065738     1.431072519500    -0.596519451558
    H           -0.901147908024     1.365229101091     1.189661004607
    F            0.324694477495    -0.669847060058    -1.217603794453
    F            1.275300616535     0.990810902548    -0.241471708573
    F            0.747800508642    -0.777580491166     0.935452535628

gradient() will perform analytic gradient computation.

*** tstart() called on cx1-27-3-4
*** at Sat Sep 10 15:42:22 2016


         ---------------------------------------------------------
                                   SCF
            by Justin Turney, Rob Parrish, and Andy Simmonett
                              RHF Reference
                        4 Threads,   2000 MiB Core
         ---------------------------------------------------------

  ==> Geometry <==

    Molecular point group: c1
    Full point group: C1

    Geometry (in Angstrom), charge = 0, multiplicity = 1:

       Center              X                  Y                   Z               Mass       
    ------------   -----------------  -----------------  -----------------  -----------------
           H         -1.938580271298    -0.710419209521     1.195621298428     1.007825032070
           O         -2.031317253471    -0.195423266793     0.367287401127    15.994914619560
           C         -1.014018269298     0.749882990924     0.263341704081    12.000000000000
           C          0.349284697274     0.058330439871    -0.074132564751    12.000000000000
           H         -1.264971065738     1.431072519500    -0.596519451558     1.007825032070
           H         -0.901147908024     1.365229101091     1.189661004607     1.007825032070
           F          0.324694477495    -0.669847060058    -1.217603794453    18.998403224000
           F          1.275300616535     0.990810902548    -0.241471708573    18.998403224000
           F          0.747800508642    -0.777580491166     0.935452535628    18.998403224000

  Running in c1 symmetry.

  Rotational constants: A =      0.17141  B =      0.09273  C =      0.09145 [cm^-1]
  Rotational constants: A =   5138.65208  B =   2780.07068  C =   2741.49183 [MHz]
  Nuclear repulsion =  270.896922490814632

  Charge       = 0
  Multiplicity = 1
  Electrons    = 50
  Nalpha       = 25
  Nbeta        = 25

  ==> Algorithm <==

  SCF Algorithm Type is DF.
  DIIS enabled.
  MOM disabled.
  Fractional occupation disabled.
  Guess Type is READ.
  Energy threshold   = 1.00e-08
  Density threshold  = 1.00e-08
  Integral threshold = 0.00e+00

  ==> Primary Basis <==

  Basis Set: CC-PVTZ
    Number of shells: 78
    Number of basis function: 222
    Number of Cartesian functions: 255
    Spherical Harmonics?: true
    Max angular momentum: 3

  ==> Pre-Iterations <==

   -------------------------------------------------------
    Irrep   Nso     Nmo     Nalpha   Nbeta   Ndocc  Nsocc
   -------------------------------------------------------
     A        222     222       0       0       0       0
   -------------------------------------------------------
    Total     222     222      25      25      25       0
   -------------------------------------------------------

  ==> Integral Setup <==

  ==> DFJK: Density-Fitted J/K Matrices <==

    J tasked:                  Yes
    K tasked:                  Yes
    wK tasked:                  No
    OpenMP threads:              4
    Integrals threads:           4
    Memory (MB):              1430
    Algorithm:                Core
    Integral Cache:           NONE
    Schwarz Cutoff:          1E-12
    Fitting Condition:       1E-12

   => Auxiliary Basis Set <=

  Basis Set: 
    Number of shells: 180
    Number of basis function: 564
    Number of Cartesian functions: 681
    Spherical Harmonics?: true
    Max angular momentum: 4

  Minimum eigenvalue in the overlap matrix is 1.1765523318E-03.
  Using Symmetric Orthogonalization.
  SCF Guess: Reading in previously saved MOs, projecting if necessary.

  Using orbitals from previous SCF, no projection.
  Recomputing DOCC and SOCC from number of alpha and beta electrons from previous calculation.
              A 
    DOCC [    25 ]

  ==> Iterations <==

                           Total Energy        Delta E     RMS |[F,P]|

   @DF-RHF iter   0:  -450.35931962699351   -4.50359e+02   3.17650e-03 
   @DF-RHF iter   1:  -450.81520716605462   -4.55888e-01   8.58971e-04 
   @DF-RHF iter   2:  -450.83338588595245   -1.81787e-02   3.73147e-04 DIIS
   @DF-RHF iter   3:  -450.83617864928112   -2.79276e-03   1.08369e-04 DIIS
   @DF-RHF iter   4:  -450.83666010238267   -4.81453e-04   4.28770e-05 DIIS
   @DF-RHF iter   5:  -450.83671036588908   -5.02635e-05   1.07600e-05 DIIS
   @DF-RHF iter   6:  -450.83671797065426   -7.60477e-06   2.68429e-06 DIIS
   @DF-RHF iter   7:  -450.83671846536322   -4.94709e-07   5.38438e-07 DIIS
   @DF-RHF iter   8:  -450.83671847800429   -1.26411e-08   1.89751e-07 DIIS
   @DF-RHF iter   9:  -450.83671847922790   -1.22361e-09   5.56822e-08 DIIS
   @DF-RHF iter  10:  -450.83671847935125   -1.23350e-10   1.82162e-08 DIIS
   @DF-RHF iter  11:  -450.83671847936478   -1.35287e-11   5.56172e-09 DIIS

  ==> Post-Iterations <==

    Orbital Energies (a.u.)
    -----------------------

    Doubly Occupied:                                                      

       1A    -26.344310     2A    -26.337005     3A    -26.333202  
       4A    -20.590122     5A    -11.507697     6A    -11.330605  
       7A     -1.725513     8A     -1.636548     9A     -1.624745  
      10A     -1.397786    11A     -1.033490    12A     -0.917617  
      13A     -0.821739    14A     -0.819047    15A     -0.795818  
      16A     -0.722445    17A     -0.712254    18A     -0.695582  
      19A     -0.667853    20A     -0.659031    21A     -0.647643  
      22A     -0.628945    23A     -0.615799    24A     -0.528546  
      25A     -0.484026  

    Virtual:                                                              

      26A      0.133367    27A      0.164639    28A      0.194864  
      29A      0.264160    30A      0.316968    31A      0.323921  
      32A      0.346513    33A      0.392663    34A      0.477093  
      35A      0.484383    36A      0.491939    37A      0.502383  
      38A      0.512082    39A      0.534252    40A      0.566981  
      41A      0.589264    42A      0.604474    43A      0.627302  
      44A      0.699943    45A      0.721302    46A      0.757368  
      47A      0.792272    48A      0.809932    49A      0.873278  
      50A      0.895943    51A      0.905531    52A      0.932714  
      53A      0.990800    54A      1.026747    55A      1.045529  
      56A      1.062000    57A      1.096511    58A      1.105086  
      59A      1.129646    60A      1.148241    61A      1.154971  
      62A      1.168169    63A      1.214364    64A      1.259431  
      65A      1.300629    66A      1.328714    67A      1.355918  
      68A      1.410483    69A      1.432082    70A      1.457489  
      71A      1.482195    72A      1.512260    73A      1.516260  
      74A      1.583289    75A      1.675407    76A      1.719561  
      77A      1.929043    78A      1.977822    79A      2.051814  
      80A      2.085867    81A      2.161498    82A      2.169590  
      83A      2.194402    84A      2.232032    85A      2.235171  
      86A      2.259137    87A      2.295250    88A      2.332163  
      89A      2.337831    90A      2.374534    91A      2.421482  
      92A      2.462101    93A      2.493117    94A      2.605287  
      95A      2.627381    96A      2.650379    97A      2.707169  
      98A      2.720217    99A      2.788256   100A      2.825681  
     101A      2.859585   102A      2.885293   103A      2.945018  
     104A      3.020617   105A      3.117431   106A      3.150345  
     107A      3.215839   108A      3.225617   109A      3.237294  
     110A      3.253151   111A      3.299166   112A      3.316709  
     113A      3.360001   114A      3.377112   115A      3.415578  
     116A      3.439959   117A      3.460888   118A      3.501853  
     119A      3.519225   120A      3.567206   121A      3.613353  
     122A      3.666359   123A      3.689351   124A      3.699406  
     125A      3.745671   126A      3.754976   127A      3.772085  
     128A      3.846528   129A      3.892088   130A      3.910155  
     131A      3.945131   132A      3.966880   133A      4.012802  
     134A      4.036849   135A      4.126851   136A      4.129757  
     137A      4.137893   138A      4.206894   139A      4.232811  
     140A      4.261891   141A      4.303548   142A      4.359419  
     143A      4.423214   144A      4.438553   145A      4.484520  
     146A      4.533646   147A      4.593869   148A      4.682915  
     149A      4.845493   150A      4.978977   151A      5.050660  
     152A      5.117687   153A      5.155372   154A      5.231604  
     155A      5.264048   156A      5.278786   157A      5.337346  
     158A      5.350745   159A      5.409648   160A      5.424352  
     161A      5.448732   162A      5.506212   163A      5.540082  
     164A      5.739523   165A      5.899906   166A      5.955557  
     167A      6.116106   168A      6.196702   169A      6.377147  
     170A      6.493938   171A      6.514757   172A      6.648902  
     173A      6.916236   174A      7.095243   175A      7.110384  
     176A      7.203276   177A      7.321180   178A      7.329766  
     179A      7.349815   180A      7.355334   181A      7.364353  
     182A      7.366133   183A      7.368970   184A      7.372455  
     185A      7.373356   186A      7.377980   187A      7.405979  
     188A      7.476653   189A      7.480942   190A      7.493358  
     191A      7.515684   192A      7.580237   193A      7.594348  
     194A      7.647512   195A      7.781922   196A      7.850902  
     197A      7.864385   198A      7.906925   199A      8.011438  
     200A      8.065094   201A      8.091340   202A      8.887401  
     203A      8.894953   204A      8.911617   205A      8.987472  
     206A      9.001925   207A      9.005830   208A      9.075043  
     209A      9.281465   210A      9.352681   211A      9.355924  
     212A      9.464160   213A      9.657519   214A      9.676570  
     215A      9.684260   216A      9.686317   217A     10.859253  
     218A     11.865920   219A     12.114179   220A     12.343331  
     221A     12.674345   222A     13.100256  

    Final Occupation by Irrep:
              A 
    DOCC [    25 ]

  Energy converged.

  @DF-RHF Final Energy:  -450.83671847936478

   => Energetics <=

    Nuclear Repulsion Energy =            270.8969224908146316
    One-Electron Energy =               -1164.3125427537602263
    Two-Electron Energy =                 442.5789017835809886
    DFT Exchange-Correlation Energy =       0.0000000000000000
    Empirical Dispersion Energy =           0.0000000000000000
    PCM Polarization Energy =               0.0000000000000000
    EFP Energy =                            0.0000000000000000
    Total Energy =                       -450.8367184793646061


  Saving occupied orbitals to File 180.

*** tstop() called on cx1-27-3-4 at Sat Sep 10 15:42:25 2016
Module time:
	user time   =      10.59 seconds =       0.18 minutes
	system time =       0.65 seconds =       0.01 minutes
	total time  =          3 seconds =       0.05 minutes
Total time:
	user time   =      32.17 seconds =       0.54 minutes
	system time =       1.26 seconds =       0.02 minutes
	total time  =         10 seconds =       0.17 minutes


Properties will be evaluated at   0.000000,   0.000000,   0.000000 Bohr

Properties computed using the SCF density matrix

  Nuclear Dipole Moment: (a.u.)
     X:    -6.0726      Y:     2.3853      Z:     2.1726

  Electronic Dipole Moment: (a.u.)
     X:     5.6773      Y:    -1.9132      Z:    -1.5118

  Dipole Moment: (a.u.)
     X:    -0.3953      Y:     0.4721      Z:     0.6608     Total:     0.9032

  Dipole Moment: (Debye)
     X:    -1.0048      Y:     1.1999      Z:     1.6796     Total:     2.2957


*** tstart() called on cx1-27-3-4
*** at Sat Sep 10 15:42:25 2016


         ------------------------------------------------------------
                                   SCF GRAD                          
                          Rob Parrish, Justin Turney,                
                       Andy Simmonett, and Alex Sokolov              
         ------------------------------------------------------------

  ==> Geometry <==

    Molecular point group: c1
    Full point group: C1

    Geometry (in Angstrom), charge = 0, multiplicity = 1:

       Center              X                  Y                   Z               Mass       
    ------------   -----------------  -----------------  -----------------  -----------------
           H         -1.938580271298    -0.710419209521     1.195621298428     1.007825032070
           O         -2.031317253471    -0.195423266793     0.367287401127    15.994914619560
           C         -1.014018269298     0.749882990924     0.263341704081    12.000000000000
           C          0.349284697274     0.058330439871    -0.074132564751    12.000000000000
           H         -1.264971065738     1.431072519500    -0.596519451558     1.007825032070
           H         -0.901147908024     1.365229101091     1.189661004607     1.007825032070
           F          0.324694477495    -0.669847060058    -1.217603794453    18.998403224000
           F          1.275300616535     0.990810902548    -0.241471708573    18.998403224000
           F          0.747800508642    -0.777580491166     0.935452535628    18.998403224000

  Nuclear repulsion =  270.896922490814632

  ==> Basis Set <==

  Basis Set: CC-PVTZ
    Number of shells: 78
    Number of basis function: 222
    Number of Cartesian functions: 255
    Spherical Harmonics?: true
    Max angular momentum: 3

  ==> DFJKGrad: Density-Fitted SCF Gradients <==

    Gradient:                    1
    J tasked:                  Yes
    K tasked:                  Yes
    wK tasked:                  No
    OpenMP threads:              4
    Integrals threads:           4
    Memory (MB):              1430
    Schwarz Cutoff:          0E+00
    Fitting Condition:       1E-12

   => Auxiliary Basis Set <=

  Basis Set: 
    Number of shells: 180
    Number of basis function: 564
    Number of Cartesian functions: 681
    Spherical Harmonics?: true
    Max angular momentum: 4


  -Total Gradient:
     Atom            X                  Y                   Z
    ------   -----------------  -----------------  -----------------
       1        0.002627462759    -0.021036272099     0.033564648974
       2       -0.007987636626     0.013181065611    -0.033490394805
       3       -0.007447197149     0.000232249913     0.012921285707
       4       -0.000224189160     0.010465761807     0.001228752497
       5       -0.007701589403     0.017736291588    -0.021946913875
       6       -0.002519259852     0.013318859922     0.019057266520
       7        0.003531614335    -0.020647707019    -0.040250590126
       8        0.006856655472     0.014571056823    -0.006622635804
       9        0.012864139628    -0.027821306543     0.035538580915


*** tstop() called on cx1-27-3-4 at Sat Sep 10 15:42:28 2016
Module time:
	user time   =      10.47 seconds =       0.17 minutes
	system time =       0.29 seconds =       0.00 minutes
	total time  =          3 seconds =       0.05 minutes
Total time:
	user time   =      42.69 seconds =       0.71 minutes
	system time =       1.55 seconds =       0.03 minutes
	total time  =         13 seconds =       0.22 minutes

			-----------------------------------------
			 OPTKING 2.0: for geometry optimizations 
			  - R.A. King,  Bethel University        
			-----------------------------------------

	Previous internal coordinate definitions found.
	---Fragment 1 Geometry and Gradient---
	 H          -3.6633857994       -1.3424977455        2.2593968127
	 O          -3.8386332981       -0.3692964542        0.6940726002
	 C          -1.9162168227        1.4170734846        0.4976437001
	 C           0.6600524203        0.1102285566       -0.1400902449
	 H          -2.3904488803        2.7043351382       -1.1272583964
	 H          -1.7029227514        2.5799091097        2.2481334897
	 F           0.6135836393       -1.2658274944       -2.3009377099
	 F           2.4099689024        1.8723612553       -0.4563153980
	 F           1.4131381634       -1.4694141746        1.7677491027
	             0.0026274628       -0.0210362721        0.0335646490
	            -0.0079876366        0.0131810656       -0.0334903948
	            -0.0074471971        0.0002322499        0.0129212857
	            -0.0002241892        0.0104657618        0.0012287525
	            -0.0077015894        0.0177362916       -0.0219469139
	            -0.0025192599        0.0133188599        0.0190572665
	             0.0035316143       -0.0206477070       -0.0402505901
	             0.0068566555        0.0145710568       -0.0066226358
	             0.0128641396       -0.0278213065        0.0355385809

	---Fragment 1 Intrafragment Coordinates---
	 - Coordinate -           - BOHR/RAD -       - ANG/DEG -
	 R(1,2)           =         1.851505	       0.979774
	 R(2,3)           =         2.631613	       1.392590
	 R(3,4)           =         2.958329	       1.565480
	 R(3,5)           =         2.126557	       1.125326
	 R(3,6)           =         2.112320	       1.117792
	 R(4,7)           =         2.562216	       1.355866
	 R(4,8)           =         2.503461	       1.324775
	 R(4,9)           =         2.588872	       1.369972
	 B(1,2,3)         =         1.929182	     110.533992
	 B(2,3,4)         =         1.930921	     110.633604
	 B(2,3,5)         =         1.880766	     107.759967
	 B(2,3,6)         =         1.966649	     112.680673
	 B(3,4,7)         =         1.985867	     113.781803
	 B(3,4,8)         =         1.901825	     108.966550
	 B(3,4,9)         =         1.943359	     111.346260
	 B(4,3,5)         =         1.872229	     107.270847
	 B(4,3,6)         =         1.911229	     109.505363
	 B(5,3,6)         =         1.899164	     108.814069
	 B(7,4,8)         =         1.858939	     106.509364
	 B(7,4,9)         =         1.874524	     107.402311
	 B(8,4,9)         =         1.895719	     108.616691
	 D(1,2,3,4)       =         1.274395	      73.017449
	*D(1,2,3,5)       =        -2.967059	    -169.999981
	 D(1,2,3,6)       =        -0.871655	     -49.942145
	 D(2,3,4,7)       =         1.007952	      57.751417
	 D(2,3,4,8)       =         3.079194	     176.424841
	 D(2,3,4,9)       =        -1.113358	     -63.790716
	 D(5,3,4,7)       =        -1.039036	     -59.532377
	 D(5,3,4,8)       =         1.032206	      59.141047
	 D(5,3,4,9)       =         3.122839	     178.925490
	 D(6,3,4,7)       =        -3.097332	    -177.464053
	 D(6,3,4,8)       =        -1.026090	     -58.790629
	 D(6,3,4,9)       =         1.064543	      60.993814

	Current energy   :      -450.8367184794

	Energy change for the previous step:
		Projected    :        -0.0026779886
		Actual       :         0.0085433668

	Performing BFGS update.
	Previous computed or guess Hessian on step 1.
	Steps to be used in Hessian update: 1
	Taking RFO optimization step.
	Going to follow RFO solution 1.
	Using RFO vector 1.
	Norm of target step-size    0.22169
	Projected energy change by RFO approximation:        -0.0189744369

	Back-transformation to cartesian coordinates...
	Successfully converged to displaced geometry.

	Back-transformation to cartesian coordinates to adjust frozen coordinates...
	Successfully converged to displaced geometry.

	--- Internal Coordinate Step in ANG or DEG, aJ/ANG or AJ/DEG ---
	 ---------------------------------------------------------------------------
	   Coordinate                Previous        Force       Change         New 
	   ----------                --------       ------       ------       ------
	    1 R(1,2)          =      0.979774    -0.326934    -0.038874     0.940900
	    2 R(2,3)          =      1.392590    -0.076236    -0.007677     1.384913
	    3 R(3,4)          =      1.565480    -0.268450    -0.052127     1.513353
	    4 R(3,5)          =      1.125326    -0.240763    -0.045757     1.079569
	    5 R(3,6)          =      1.117792    -0.188424    -0.031961     1.085830
	    6 R(4,7)          =      1.355866    -0.370498    -0.039240     1.316626
	    7 R(4,8)          =      1.324775    -0.130877    -0.009073     1.315702
	    8 R(4,9)          =      1.369972    -0.386458    -0.051927     1.318045
	    9 B(1,2,3)        =    110.533992    -0.000142    -0.633819   109.900172
	   10 B(2,3,4)        =    110.633604     0.000466     1.237864   111.871469
	   11 B(2,3,5)        =    107.759967    -0.000055    -0.551819   107.208147
	   12 B(2,3,6)        =    112.680673     0.000064     1.213494   113.894167
	   13 B(3,4,7)        =    113.781803    -0.000508    -1.550249   112.231554
	   14 B(3,4,8)        =    108.966550     0.000731     1.528646   110.495195
	   15 B(3,4,9)        =    111.346260     0.000031    -0.065079   111.281181
	   16 B(4,3,5)        =    107.270847    -0.000071    -0.214421   107.056426
	   17 B(4,3,6)        =    109.505363    -0.000534    -1.734166   107.771198
	   18 B(5,3,6)        =    108.814069     0.000129    -0.018691   108.795379
	   19 B(7,4,8)        =    106.509364     0.000191     1.326735   107.836099
	   20 B(7,4,9)        =    107.402311    -0.000037    -0.155327   107.246985
	   21 B(8,4,9)        =    108.616691    -0.000420    -1.071248   107.545443
	   22 D(1,2,3,4)      =     73.017449    -0.000032    -0.095017    72.922432
	   23 *D(1,2,3,5)     =   -169.999981    -0.000000     0.000000  -169.999981
	   24 D(1,2,3,6)      =    -49.942145     0.000038     0.347244   -49.594901
	   25 D(2,3,4,7)      =     57.751417    -0.000049    -0.908799    56.842617
	   26 D(2,3,4,8)      =    176.424841     0.000048     0.817793   177.242634
	   27 D(2,3,4,9)      =    -63.790716     0.000042     0.438247   -63.352469
	   28 D(5,3,4,7)      =    -59.532377    -0.000082    -0.793896   -60.326274
	   29 D(5,3,4,8)      =     59.141047     0.000015     0.932695    60.073743
	   30 D(5,3,4,9)      =    178.925490     0.000008     0.553150   179.478640
	   31 D(6,3,4,7)      =   -177.464053    -0.000042     0.250639  -177.213414
	   32 D(6,3,4,8)      =    -58.790629     0.000055     1.977231   -56.813398
	   33 D(6,3,4,9)      =     60.993814     0.000048     1.597686    62.591500
	 ---------------------------------------------------------------------------
	Successfully symmetrized geometry.

  ==> Convergence Check <==

  Measures of convergence in internal coordinates in au.
  Criteria marked as inactive (o), active & met (*), and active & unmet ( ).
  ---------------------------------------------------------------------------------------------
   Step     Total Energy     Delta E     MAX Force     RMS Force      MAX Disp      RMS Disp   
  ---------------------------------------------------------------------------------------------
    Convergence Criteria    1.00e-06 *    3.00e-04 *             o    1.20e-03 *             o
  ---------------------------------------------------------------------------------------------
      2    -450.83671848    8.54e-03      4.69e-02      1.64e-02 o    9.85e-02      3.87e-02 o  ~
  ---------------------------------------------------------------------------------------------

	Writing optimization data to binary file.
	Structure for next step:
	Cartesian Geometry (in Angstrom)
	    H    -1.8974519231  -0.6668612081   1.2236054133
	    O    -2.0142231394  -0.1889228539   0.4215877115
	    C    -0.9918388873   0.7327094701   0.2689205356
	    C     0.3189507201   0.0664687656  -0.0891179942
	    H    -1.2588705300   1.3716750806  -0.5592614936
	    H    -0.8212944446   1.3497043267   1.1459948752
	    F     0.2254679210  -0.6615933715  -1.1821374953
	    F     1.2560340873   0.9690054687  -0.2850090175
	    F     0.7302717280  -0.7301297517   0.8770538895
			--------------------------
			 OPTKING Finished Execution 
			--------------------------

    Structure for next step:
    Molecular point group: c1
    Full point group: C1

    Geometry (in Angstrom), charge = 0, multiplicity = 1:

    H           -1.874649446707    -0.672940064689     1.228458982215
    O           -1.991420662951    -0.195001710537     0.426441280363
    C           -0.969036410881     0.726630613465     0.273774104508
    C            0.341753196467     0.060389909029    -0.084264425286
    H           -1.236068053586     1.365596224033    -0.554407924666
    H           -0.798491968153     1.343625470091     1.150848444097
    F            0.248270397371    -0.667672228120    -1.177283926397
    F            1.278836563721     0.962926612093    -0.280155448603
    F            0.753074204433    -0.736208608332     0.881907458440

gradient() will perform analytic gradient computation.

*** tstart() called on cx1-27-3-4
*** at Sat Sep 10 15:42:28 2016


         ---------------------------------------------------------
                                   SCF
            by Justin Turney, Rob Parrish, and Andy Simmonett
                              RHF Reference
                        4 Threads,   2000 MiB Core
         ---------------------------------------------------------

  ==> Geometry <==

    Molecular point group: c1
    Full point group: C1

    Geometry (in Angstrom), charge = 0, multiplicity = 1:

       Center              X                  Y                   Z               Mass       
    ------------   -----------------  -----------------  -----------------  -----------------
           H         -1.874649446707    -0.672940064689     1.228458982215     1.007825032070
           O         -1.991420662951    -0.195001710537     0.426441280363    15.994914619560
           C         -0.969036410881     0.726630613465     0.273774104508    12.000000000000
           C          0.341753196467     0.060389909029    -0.084264425286    12.000000000000
           H         -1.236068053586     1.365596224033    -0.554407924666     1.007825032070
           H         -0.798491968153     1.343625470091     1.150848444097     1.007825032070
           F          0.248270397371    -0.667672228120    -1.177283926397    18.998403224000
           F          1.278836563721     0.962926612093    -0.280155448603    18.998403224000
           F          0.753074204433    -0.736208608332     0.881907458440    18.998403224000

  Running in c1 symmetry.

  Rotational constants: A =      0.18329  B =      0.09633  C =      0.09520 [cm^-1]
  Rotational constants: A =   5495.01089  B =   2887.95494  C =   2853.88488 [MHz]
  Nuclear repulsion =  277.557565384369866

  Charge       = 0
  Multiplicity = 1
  Electrons    = 50
  Nalpha       = 25
  Nbeta        = 25

  ==> Algorithm <==

  SCF Algorithm Type is DF.
  DIIS enabled.
  MOM disabled.
  Fractional occupation disabled.
  Guess Type is READ.
  Energy threshold   = 1.00e-08
  Density threshold  = 1.00e-08
  Integral threshold = 0.00e+00

  ==> Primary Basis <==

  Basis Set: CC-PVTZ
    Number of shells: 78
    Number of basis function: 222
    Number of Cartesian functions: 255
    Spherical Harmonics?: true
    Max angular momentum: 3

  ==> Pre-Iterations <==

   -------------------------------------------------------
    Irrep   Nso     Nmo     Nalpha   Nbeta   Ndocc  Nsocc
   -------------------------------------------------------
     A        222     222       0       0       0       0
   -------------------------------------------------------
    Total     222     222      25      25      25       0
   -------------------------------------------------------

  ==> Integral Setup <==

  ==> DFJK: Density-Fitted J/K Matrices <==

    J tasked:                  Yes
    K tasked:                  Yes
    wK tasked:                  No
    OpenMP threads:              4
    Integrals threads:           4
    Memory (MB):              1430
    Algorithm:                Core
    Integral Cache:           NONE
    Schwarz Cutoff:          1E-12
    Fitting Condition:       1E-12

   => Auxiliary Basis Set <=

  Basis Set: 
    Number of shells: 180
    Number of basis function: 564
    Number of Cartesian functions: 681
    Spherical Harmonics?: true
    Max angular momentum: 4

  Minimum eigenvalue in the overlap matrix is 1.0262520913E-03.
  Using Symmetric Orthogonalization.
  SCF Guess: Reading in previously saved MOs, projecting if necessary.

  Using orbitals from previous SCF, no projection.
  Recomputing DOCC and SOCC from number of alpha and beta electrons from previous calculation.
              A 
    DOCC [    25 ]

  ==> Iterations <==

                           Total Energy        Delta E     RMS |[F,P]|

   @DF-RHF iter   0:  -451.01422731770225   -4.51014e+02   1.17058e-03 
   @DF-RHF iter   1:  -450.84603138129404    1.68196e-01   2.00293e-04 
   @DF-RHF iter   2:  -450.84685726096080   -8.25880e-04   8.61451e-05 DIIS
   @DF-RHF iter   3:  -450.84699144233417   -1.34181e-04   2.37228e-05 DIIS
   @DF-RHF iter   4:  -450.84700869316276   -1.72508e-05   8.43050e-06 DIIS
   @DF-RHF iter   5:  -450.84701059417824   -1.90102e-06   1.94288e-06 DIIS
   @DF-RHF iter   6:  -450.84701079602377   -2.01846e-07   5.01455e-07 DIIS
   @DF-RHF iter   7:  -450.84701080936003   -1.33363e-08   1.45692e-07 DIIS
   @DF-RHF iter   8:  -450.84701081001020   -6.50175e-10   4.83968e-08 DIIS
   @DF-RHF iter   9:  -450.84701081007273   -6.25278e-11   1.08669e-08 DIIS
   @DF-RHF iter  10:  -450.84701081007887   -6.13909e-12   2.56526e-09 DIIS

  ==> Post-Iterations <==

    Orbital Energies (a.u.)
    -----------------------

    Doubly Occupied:                                                      

       1A    -26.339371     2A    -26.339216     3A    -26.333081  
       4A    -20.585079     5A    -11.492917     6A    -11.310496  
       7A     -1.746725     8A     -1.645012     9A     -1.640184  
      10A     -1.408153    11A     -1.050235    12A     -0.929044  
      13A     -0.836724    14A     -0.835294    15A     -0.809227  
      16A     -0.733564    17A     -0.718067    18A     -0.703828  
      19A     -0.671318    20A     -0.664023    21A     -0.648084  
      22A     -0.632292    23A     -0.617026    24A     -0.535998  
      25A     -0.485593  

    Virtual:                                                              

      26A      0.138669    27A      0.170949    28A      0.199630  
      29A      0.274422    30A      0.321089    31A      0.341391  
      32A      0.359987    33A      0.404157    34A      0.478842  
      35A      0.488558    36A      0.509765    37A      0.518778  
      38A      0.543182    39A      0.556011    40A      0.578443  
      41A      0.608417    42A      0.619554    43A      0.644481  
      44A      0.705717    45A      0.726367    46A      0.761657  
      47A      0.791600    48A      0.815228    49A      0.875273  
      50A      0.901664    51A      0.914206    52A      0.946229  
      53A      0.985373    54A      1.032091    55A      1.050852  
      56A      1.072656    57A      1.116616    58A      1.120103  
      59A      1.138796    60A      1.144854    61A      1.159957  
      62A      1.177292    63A      1.234166    64A      1.273467  
      65A      1.319964    66A      1.339715    67A      1.366386  
      68A      1.409748    69A      1.457178    70A      1.477698  
      71A      1.492911    72A      1.527289    73A      1.534443  
      74A      1.607208    75A      1.726757    76A      1.740524  
      77A      1.941480    78A      1.994007    79A      2.068711  
      80A      2.104535    81A      2.175634    82A      2.182854  
      83A      2.197443    84A      2.247318    85A      2.249909  
      86A      2.271625    87A      2.319681    88A      2.343306  
      89A      2.368625    90A      2.382794    91A      2.466182  
      92A      2.496790    93A      2.499016    94A      2.615823  
      95A      2.642475    96A      2.692936    97A      2.753240  
      98A      2.773281    99A      2.829369   100A      2.834626  
     101A      2.879843   102A      2.929462   103A      2.984774  
     104A      3.050008   105A      3.128157   106A      3.166574  
     107A      3.237946   108A      3.256894   109A      3.267340  
     110A      3.278952   111A      3.315997   112A      3.332338  
     113A      3.345858   114A      3.372607   115A      3.429590  
     116A      3.453911   117A      3.486679   118A      3.552684  
     119A      3.574797   120A      3.643138   121A      3.658374  
     122A      3.691975   123A      3.721223   124A      3.740514  
     125A      3.779112   126A      3.794940   127A      3.830728  
     128A      3.888831   129A      3.933946   130A      3.954074  
     131A      3.973883   132A      4.020510   133A      4.080933  
     134A      4.126663   135A      4.176861   136A      4.185016  
     137A      4.187401   138A      4.264727   139A      4.313445  
     140A      4.337217   141A      4.376975   142A      4.426288  
     143A      4.482381   144A      4.516469   145A      4.547974  
     146A      4.609249   147A      4.685716   148A      4.723180  
     149A      4.929977   150A      5.077591   151A      5.153829  
     152A      5.198721   153A      5.233440   154A      5.283289  
     155A      5.335462   156A      5.364004   157A      5.389782  
     158A      5.436459   159A      5.475514   160A      5.518838  
     161A      5.561195   162A      5.572103   163A      5.659025  
     164A      5.772877   165A      5.994558   166A      6.041118  
     167A      6.188660   168A      6.258382   169A      6.440469  
     170A      6.554038   171A      6.579126   172A      6.699598  
     173A      7.033242   174A      7.132869   175A      7.207841  
     176A      7.255092   177A      7.314384   178A      7.334013  
     179A      7.355067   180A      7.357277   181A      7.361343  
     182A      7.364596   183A      7.365196   184A      7.372918  
     185A      7.378514   186A      7.379609   187A      7.467015  
     188A      7.513317   189A      7.523505   190A      7.529254  
     191A      7.597128   192A      7.631195   193A      7.632856  
     194A      7.662711   195A      7.874691   196A      7.942253  
     197A      7.953472   198A      7.995206   199A      8.098308  
     200A      8.166422   201A      8.174626   202A      8.899428  
     203A      8.906463   204A      8.931810   205A      9.027652  
     206A      9.030813   207A      9.086364   208A      9.198672  
     209A      9.321828   210A      9.402046   211A      9.404708  
     212A      9.523795   213A      9.675950   214A      9.684727  
     215A      9.729452   216A      9.735648   217A     11.148428  
     218A     12.221398   219A     12.413432   220A     12.630355  
     221A     13.172109   222A     13.802516  

    Final Occupation by Irrep:
              A 
    DOCC [    25 ]

  Energy converged.

  @DF-RHF Final Energy:  -450.84701081007887

   => Energetics <=

    Nuclear Repulsion Energy =            277.5575653843698660
    One-Electron Energy =               -1177.3880504063106400
    Two-Electron Energy =                 448.9834742118618465
    DFT Exchange-Correlation Energy =       0.0000000000000000
    Empirical Dispersion Energy =           0.0000000000000000
    PCM Polarization Energy =               0.0000000000000000
    EFP Energy =                            0.0000000000000000
    Total Energy =                       -450.8470108100789844


  Saving occupied orbitals to File 180.

*** tstop() called on cx1-27-3-4 at Sat Sep 10 15:42:31 2016
Module time:
	user time   =       7.97 seconds =       0.13 minutes
	system time =       0.14 seconds =       0.00 minutes
	total time  =          3 seconds =       0.05 minutes
Total time:
	user time   =      51.52 seconds =       0.86 minutes
	system time =       1.72 seconds =       0.03 minutes
	total time  =         16 seconds =       0.27 minutes


Properties will be evaluated at   0.000000,   0.000000,   0.000000 Bohr

Properties computed using the SCF density matrix

  Nuclear Dipole Moment: (a.u.)
     X:    -5.8254      Y:     2.3240      Z:     2.2558

  Electronic Dipole Moment: (a.u.)
     X:     5.5174      Y:    -1.9090      Z:    -1.6129

  Dipole Moment: (a.u.)
     X:    -0.3079      Y:     0.4150      Z:     0.6429     Total:     0.8248

  Dipole Moment: (Debye)
     X:    -0.7827      Y:     1.0549      Z:     1.6340     Total:     2.0965


*** tstart() called on cx1-27-3-4
*** at Sat Sep 10 15:42:31 2016


         ------------------------------------------------------------
                                   SCF GRAD                          
                          Rob Parrish, Justin Turney,                
                       Andy Simmonett, and Alex Sokolov              
         ------------------------------------------------------------

  ==> Geometry <==

    Molecular point group: c1
    Full point group: C1

    Geometry (in Angstrom), charge = 0, multiplicity = 1:

       Center              X                  Y                   Z               Mass       
    ------------   -----------------  -----------------  -----------------  -----------------
           H         -1.874649446707    -0.672940064689     1.228458982215     1.007825032070
           O         -1.991420662951    -0.195001710537     0.426441280363    15.994914619560
           C         -0.969036410881     0.726630613465     0.273774104508    12.000000000000
           C          0.341753196467     0.060389909029    -0.084264425286    12.000000000000
           H         -1.236068053586     1.365596224033    -0.554407924666     1.007825032070
           H         -0.798491968153     1.343625470091     1.150848444097     1.007825032070
           F          0.248270397371    -0.667672228120    -1.177283926397    18.998403224000
           F          1.278836563721     0.962926612093    -0.280155448603    18.998403224000
           F          0.753074204433    -0.736208608332     0.881907458440    18.998403224000

  Nuclear repulsion =  277.557565384369866

  ==> Basis Set <==

  Basis Set: CC-PVTZ
    Number of shells: 78
    Number of basis function: 222
    Number of Cartesian functions: 255
    Spherical Harmonics?: true
    Max angular momentum: 3

  ==> DFJKGrad: Density-Fitted SCF Gradients <==

    Gradient:                    1
    J tasked:                  Yes
    K tasked:                  Yes
    wK tasked:                  No
    OpenMP threads:              4
    Integrals threads:           4
    Memory (MB):              1430
    Schwarz Cutoff:          0E+00
    Fitting Condition:       1E-12

   => Auxiliary Basis Set <=

  Basis Set: 
    Number of shells: 180
    Number of basis function: 564
    Number of Cartesian functions: 681
    Spherical Harmonics?: true
    Max angular momentum: 4


  -Total Gradient:
     Atom            X                  Y                   Z
    ------   -----------------  -----------------  -----------------
       1        0.001197388541     0.001430510856     0.000192863861
       2       -0.002443962772    -0.001000004286    -0.004791046388
       3        0.000048249521    -0.001095780227     0.006680913091
       4        0.001088360048     0.002696581335     0.003366165242
       5       -0.000450840862    -0.001590532424    -0.000514354175
       6        0.001210456474     0.001774581267     0.000218943199
       7       -0.000301516027    -0.003043411645    -0.003150738297
       8        0.000006734506    -0.000872601474     0.000013399760
       9       -0.000354869424     0.001700656596    -0.002016146287


*** tstop() called on cx1-27-3-4 at Sat Sep 10 15:42:33 2016
Module time:
	user time   =      10.62 seconds =       0.18 minutes
	system time =       0.30 seconds =       0.01 minutes
	total time  =          2 seconds =       0.03 minutes
Total time:
	user time   =      62.19 seconds =       1.04 minutes
	system time =       2.02 seconds =       0.03 minutes
	total time  =         18 seconds =       0.30 minutes

			-----------------------------------------
			 OPTKING 2.0: for geometry optimizations 
			  - R.A. King,  Bethel University        
			-----------------------------------------

	Previous internal coordinate definitions found.
	---Fragment 1 Geometry and Gradient---
	 H          -3.5425740494       -1.2716724261        2.3214510419
	 O          -3.7632396683       -0.3684998284        0.8058572316
	 C          -1.8312134294        1.3731328592        0.5173580798
	 C           0.6458199464        0.1141203893       -0.1592366865
	 H          -2.3358301029        2.5806028715       -1.0476791435
	 H          -1.5089311391        2.5390841636        2.1747883798
	 F           0.4691630579       -1.2617176577       -2.2247442015
	 F           2.4166508742        1.8196675829       -0.5294170725
	 F           1.4231040041       -1.3912326464        1.6665635710
	             0.0011973885        0.0014305109        0.0001928639
	            -0.0024439628       -0.0010000043       -0.0047910464
	             0.0000482495       -0.0010957802        0.0066809131
	             0.0010883600        0.0026965813        0.0033661652
	            -0.0004508409       -0.0015905324       -0.0005143542
	             0.0012104565        0.0017745813        0.0002189432
	            -0.0003015160       -0.0030434116       -0.0031507383
	             0.0000067345       -0.0008726015        0.0000133998
	            -0.0003548694        0.0017006566       -0.0020161463

	---Fragment 1 Intrafragment Coordinates---
	 - Coordinate -           - BOHR/RAD -       - ANG/DEG -
	 R(1,2)           =         1.778043	       0.940900
	 R(2,3)           =         2.617106	       1.384913
	 R(3,4)           =         2.859823	       1.513353
	 R(3,5)           =         2.040089	       1.079569
	 R(3,6)           =         2.051922	       1.085830
	 R(4,7)           =         2.488063	       1.316626
	 R(4,8)           =         2.486316	       1.315702
	 R(4,9)           =         2.490744	       1.318045
	 B(1,2,3)         =         1.918120	     109.900172
	 B(2,3,4)         =         1.952525	     111.871469
	 B(2,3,5)         =         1.871135	     107.208147
	 B(2,3,6)         =         1.987828	     113.894167
	 B(3,4,7)         =         1.958810	     112.231554
	 B(3,4,8)         =         1.928505	     110.495195
	 B(3,4,9)         =         1.942223	     111.281181
	 B(4,3,5)         =         1.868487	     107.056426
	 B(4,3,6)         =         1.880962	     107.771198
	 B(5,3,6)         =         1.898838	     108.795379
	 B(7,4,8)         =         1.882095	     107.836099
	 B(7,4,9)         =         1.871813	     107.246985
	 B(8,4,9)         =         1.877022	     107.545443
	 D(1,2,3,4)       =         1.272737	      72.922432
	*D(1,2,3,5)       =        -2.967059	    -169.999981
	 D(1,2,3,6)       =        -0.865594	     -49.594901
	 D(2,3,4,7)       =         0.992091	      56.842617
	 D(2,3,4,8)       =         3.093468	     177.242634
	 D(2,3,4,9)       =        -1.105709	     -63.352469
	 D(5,3,4,7)       =        -1.052892	     -60.326274
	 D(5,3,4,8)       =         1.048485	      60.073743
	 D(5,3,4,9)       =         3.132493	     179.478640
	 D(6,3,4,7)       =        -3.092958	    -177.213414
	 D(6,3,4,8)       =        -0.991581	     -56.813398
	 D(6,3,4,9)       =         1.092428	      62.591500

	Current energy   :      -450.8470108101

	Energy change for the previous step:
		Projected    :        -0.0189744369
		Actual       :        -0.0102923307

	Performing BFGS update.
	Previous computed or guess Hessian on step 1.
	Steps to be used in Hessian update: 2 1
	Taking RFO optimization step.
	Going to follow RFO solution 1.
	Using RFO vector 1.
	Norm of target step-size    0.20790
	Projected energy change by RFO approximation:        -0.0018874579

	Back-transformation to cartesian coordinates...
	Could not converge backtransformation.
	Using first guess instead.

	Back-transformation to cartesian coordinates to adjust frozen coordinates...
	Successfully converged to displaced geometry.

	--- Internal Coordinate Step in ANG or DEG, aJ/ANG or AJ/DEG ---
	 ---------------------------------------------------------------------------
	   Coordinate                Previous        Force       Change         New 
	   ----------                --------       ------       ------       ------
	    1 R(1,2)          =      0.940900     0.003408     0.000141     0.941041
	    2 R(2,3)          =      1.384913    -0.001045     0.000982     1.385895
	    3 R(3,4)          =      1.513353    -0.004869    -0.001125     1.512228
	    4 R(3,5)          =      1.079569     0.003586    -0.000142     1.079427
	    5 R(3,6)          =      1.085830    -0.011331    -0.001302     1.084529
	    6 R(4,7)          =      1.316626    -0.035591    -0.002622     1.314004
	    7 R(4,8)          =      1.315702     0.004908     0.001603     1.317305
	    8 R(4,9)          =      1.318045     0.021557     0.002301     1.320346
	    9 B(1,2,3)        =    109.900172     0.000241     0.883061   110.783233
	   10 B(2,3,4)        =    111.871469    -0.000018     0.045575   111.917044
	   11 B(2,3,5)        =    107.208147     0.000125     0.865765   108.073912
	   12 B(2,3,6)        =    113.894167    -0.000137    -1.040358   112.853809
	   13 B(3,4,7)        =    112.231554    -0.000007     0.022446   112.254000
	   14 B(3,4,8)        =    110.495195    -0.000079    -0.256713   110.238483
	   15 B(3,4,9)        =    111.281181    -0.000024    -0.109381   111.171799
	   16 B(4,3,5)        =    107.056426     0.000041     0.920763   107.977189
	   17 B(4,3,6)        =    107.771198     0.000011    -0.427891   107.343306
	   18 B(5,3,6)        =    108.795379    -0.000011    -0.268952   108.526427
	   19 B(7,4,8)        =    107.836099     0.000021    -0.006915   107.829184
	   20 B(7,4,9)        =    107.246985     0.000039     0.240423   107.487408
	   21 B(8,4,9)        =    107.545443     0.000058     0.130042   107.675485
	   22 D(1,2,3,4)      =     72.922432    -0.000026    -1.689728    71.232704
	   23 *D(1,2,3,5)     =   -169.999981    -0.000000     0.000000  -169.999981
	   24 D(1,2,3,6)      =    -49.594901    -0.000003    -0.388455   -49.983356
	   25 D(2,3,4,7)      =     56.842617     0.000036     5.014989    61.857606
	   26 D(2,3,4,8)      =    177.242634     0.000028     4.843884   182.086518
	   27 D(2,3,4,9)      =    -63.352469     0.000029     4.768095   -58.584374
	   28 D(5,3,4,7)      =    -60.326274    -0.000003     3.359302   -56.966971
	   29 D(5,3,4,8)      =     60.073743    -0.000010     3.188197    63.261940
	   30 D(5,3,4,9)      =    179.478640    -0.000009     3.112409   182.591048
	   31 D(6,3,4,7)      =   -177.213414    -0.000006     3.419673  -173.793741
	   32 D(6,3,4,8)      =    -56.813398    -0.000013     3.248568   -53.564830
	   33 D(6,3,4,9)      =     62.591500    -0.000012     3.172779    65.764279
	 ---------------------------------------------------------------------------
	Successfully symmetrized geometry.

  ==> Convergence Check <==

  Measures of convergence in internal coordinates in au.
  Criteria marked as inactive (o), active & met (*), and active & unmet ( ).
  ---------------------------------------------------------------------------------------------
   Step     Total Energy     Delta E     MAX Force     RMS Force      MAX Disp      RMS Disp   
  ---------------------------------------------------------------------------------------------
    Convergence Criteria    1.00e-06 *    3.00e-04 *             o    1.20e-03 *             o
  ---------------------------------------------------------------------------------------------
      3    -450.84701081   -1.03e-02      4.32e-03      1.35e-03 o    8.75e-02      3.62e-02 o  ~
  ---------------------------------------------------------------------------------------------

	Writing optimization data to binary file.
	Structure for next step:
	Cartesian Geometry (in Angstrom)
	    H    -1.8533049655  -0.6655586939   1.2652910064
	    O    -1.9852511166  -0.1981799134   0.4592479402
	    C    -0.9725200791   0.7255937187   0.2549888421
	    C     0.3400001520   0.0575915957  -0.0883722083
	    H    -1.2544989359   1.3532411181  -0.5767018499
	    H    -0.7976018074   1.3568725261   1.1193344696
	    F     0.2702148675  -0.6323765839  -1.2044732487
	    F     1.2875810959   0.9614132245  -0.2315084850
	    F     0.7176486088  -0.7712507748   0.8675120783
			--------------------------
			 OPTKING Finished Execution 
			--------------------------

    Structure for next step:
    Molecular point group: c1
    Full point group: C1

    Geometry (in Angstrom), charge = 0, multiplicity = 1:

    H           -1.852801900164    -0.664434288890     1.261620644017
    O           -1.984748051335    -0.197055508334     0.455577577792
    C           -0.972017013821     0.726718123714     0.251318479761
    C            0.340503217331     0.058716000798    -0.092042570623
    H           -1.253995870635     1.354365523179    -0.580372212311
    H           -0.797098742103     1.357996931115     1.115664107257
    F            0.270717932820    -0.631252178898    -1.208143611067
    F            1.288084161157     0.962537629548    -0.235178847349
    F            0.718151674116    -0.770126369738     0.863841715933

gradient() will perform analytic gradient computation.

*** tstart() called on cx1-27-3-4
*** at Sat Sep 10 15:42:33 2016


         ---------------------------------------------------------
                                   SCF
            by Justin Turney, Rob Parrish, and Andy Simmonett
                              RHF Reference
                        4 Threads,   2000 MiB Core
         ---------------------------------------------------------

  ==> Geometry <==

    Molecular point group: c1
    Full point group: C1

    Geometry (in Angstrom), charge = 0, multiplicity = 1:

       Center              X                  Y                   Z               Mass       
    ------------   -----------------  -----------------  -----------------  -----------------
           H         -1.852801900164    -0.664434288890     1.261620644017     1.007825032070
           O         -1.984748051335    -0.197055508334     0.455577577792    15.994914619560
           C         -0.972017013821     0.726718123714     0.251318479761    12.000000000000
           C          0.340503217331     0.058716000798    -0.092042570623    12.000000000000
           H         -1.253995870635     1.354365523179    -0.580372212311     1.007825032070
           H         -0.797098742103     1.357996931115     1.115664107257     1.007825032070
           F          0.270717932820    -0.631252178898    -1.208143611067    18.998403224000
           F          1.288084161157     0.962537629548    -0.235178847349    18.998403224000
           F          0.718151674116    -0.770126369738     0.863841715933    18.998403224000

  Running in c1 symmetry.

  Rotational constants: A =      0.18301  B =      0.09635  C =      0.09521 [cm^-1]
  Rotational constants: A =   5486.58306  B =   2888.57123  C =   2854.40495 [MHz]
  Nuclear repulsion =  277.509321550114237

  Charge       = 0
  Multiplicity = 1
  Electrons    = 50
  Nalpha       = 25
  Nbeta        = 25

  ==> Algorithm <==

  SCF Algorithm Type is DF.
  DIIS enabled.
  MOM disabled.
  Fractional occupation disabled.
  Guess Type is READ.
  Energy threshold   = 1.00e-08
  Density threshold  = 1.00e-08
  Integral threshold = 0.00e+00

  ==> Primary Basis <==

  Basis Set: CC-PVTZ
    Number of shells: 78
    Number of basis function: 222
    Number of Cartesian functions: 255
    Spherical Harmonics?: true
    Max angular momentum: 3

  ==> Pre-Iterations <==

   -------------------------------------------------------
    Irrep   Nso     Nmo     Nalpha   Nbeta   Ndocc  Nsocc
   -------------------------------------------------------
     A        222     222       0       0       0       0
   -------------------------------------------------------
    Total     222     222      25      25      25       0
   -------------------------------------------------------

  ==> Integral Setup <==

  ==> DFJK: Density-Fitted J/K Matrices <==

    J tasked:                  Yes
    K tasked:                  Yes
    wK tasked:                  No
    OpenMP threads:              4
    Integrals threads:           4
    Memory (MB):              1430
    Algorithm:                Core
    Integral Cache:           NONE
    Schwarz Cutoff:          1E-12
    Fitting Condition:       1E-12

   => Auxiliary Basis Set <=

  Basis Set: 
    Number of shells: 180
    Number of basis function: 564
    Number of Cartesian functions: 681
    Spherical Harmonics?: true
    Max angular momentum: 4

  Minimum eigenvalue in the overlap matrix is 1.0272787610E-03.
  Using Symmetric Orthogonalization.
  SCF Guess: Reading in previously saved MOs, projecting if necessary.

  Using orbitals from previous SCF, no projection.
  Recomputing DOCC and SOCC from number of alpha and beta electrons from previous calculation.
              A 
    DOCC [    25 ]

  ==> Iterations <==

                           Total Energy        Delta E     RMS |[F,P]|

[...]
     116A      3.453447   117A      3.485263   118A      3.560632  
     119A      3.574061   120A      3.644135   121A      3.655618  
     122A      3.693314   123A      3.723512   124A      3.741911  
     125A      3.781465   126A      3.797779   127A      3.832699  
     128A      3.892829   129A      3.932717   130A      3.951646  
     131A      3.975137   132A      4.015886   133A      4.080399  
     134A      4.128669   135A      4.174854   136A      4.185973  
     137A      4.191478   138A      4.261199   139A      4.310915  
     140A      4.343369   141A      4.371334   142A      4.427466  
     143A      4.490252   144A      4.524330   145A      4.548136  
     146A      4.602144   147A      4.689251   148A      4.729420  
     149A      4.935628   150A      5.077306   151A      5.153651  
     152A      5.200284   153A      5.233757   154A      5.284610  
     155A      5.336394   156A      5.357952   157A      5.387790  
     158A      5.441515   159A      5.475898   160A      5.517955  
     161A      5.559814   162A      5.572240   163A      5.665140  
     164A      5.776450   165A      5.996580   166A      6.042014  
     167A      6.191751   168A      6.258888   169A      6.434790  
     170A      6.550141   171A      6.581848   172A      6.706639  
     173A      7.034528   174A      7.133585   175A      7.204382  
     176A      7.256731   177A      7.313761   178A      7.335773  
     179A      7.355193   180A      7.357553   181A      7.360864  
     182A      7.364435   183A      7.365267   184A      7.371550  
     185A      7.377686   186A      7.379769   187A      7.462668  
     188A      7.513291   189A      7.521503   190A      7.531364  
     191A      7.597922   192A      7.630642   193A      7.632668  
     194A      7.666629   195A      7.874664   196A      7.943357  
     197A      7.954551   198A      7.999341   199A      8.099666  
     200A      8.166009   201A      8.178124   202A      8.899278  
     203A      8.905526   204A      8.931067   205A      9.027925  
     206A      9.031930   207A      9.086646   208A      9.199544  
     209A      9.322118   210A      9.402433   211A      9.405765  
     212A      9.523346   213A      9.676597   214A      9.682962  
     215A      9.729157   216A      9.735723   217A     11.146928  
     218A     12.230851   219A     12.418409   220A     12.634759  
     221A     13.157155   222A     13.805447  

    Final Occupation by Irrep:
              A 
    DOCC [    25 ]

  Energy converged.

  @DF-RHF Final Energy:  -450.84725335616730

   => Energetics <=

    Nuclear Repulsion Energy =            277.6871400872785784
    One-Electron Energy =               -1177.6367037201284802
    Two-Electron Energy =                 449.1023102766826014
    DFT Exchange-Correlation Energy =       0.0000000000000000
    Empirical Dispersion Energy =           0.0000000000000000
    PCM Polarization Energy =               0.0000000000000000
    EFP Energy =                            0.0000000000000000
    Total Energy =                       -450.8472533561673572


  Saving occupied orbitals to File 180.

*** tstop() called on cx1-27-3-4 at Sat Sep 10 15:42:47 2016
Module time:
	user time   =       7.43 seconds =       0.12 minutes
	system time =       0.13 seconds =       0.00 minutes
	total time  =          2 seconds =       0.03 minutes
Total time:
	user time   =     110.06 seconds =       1.83 minutes
	system time =       3.09 seconds =       0.05 minutes
	total time  =         32 seconds =       0.53 minutes


Properties will be evaluated at   0.000000,   0.000000,   0.000000 Bohr

Properties computed using the SCF density matrix

  Nuclear Dipole Moment: (a.u.)
     X:    -5.8302      Y:     2.3210      Z:     2.2059

  Electronic Dipole Moment: (a.u.)
     X:     5.5273      Y:    -1.9043      Z:    -1.5999

  Dipole Moment: (a.u.)
     X:    -0.3029      Y:     0.4167      Z:     0.6059     Total:     0.7953

  Dipole Moment: (Debye)
     X:    -0.7700      Y:     1.0590      Z:     1.5401     Total:     2.0214


*** tstart() called on cx1-27-3-4
*** at Sat Sep 10 15:42:47 2016


         ------------------------------------------------------------
                                   SCF GRAD                          
                          Rob Parrish, Justin Turney,                
                       Andy Simmonett, and Alex Sokolov              
         ------------------------------------------------------------

  ==> Geometry <==

    Molecular point group: c1
    Full point group: C1

    Geometry (in Angstrom), charge = 0, multiplicity = 1:

       Center              X                  Y                   Z               Mass       
    ------------   -----------------  -----------------  -----------------  -----------------
           H         -1.853946149704    -0.668638969686     1.248727740271     1.007825032070
           O         -1.985365725101    -0.200553983507     0.443216157334    15.994914619560
           C         -0.974980102189     0.725158486173     0.247487021804    12.000000000000
           C          0.339883227087     0.059584495838    -0.091604863414    12.000000000000
           H         -1.253548712612     1.355439932593    -0.583589280805     1.007825032070
           H         -0.806800725988     1.352318331508     1.115940609768     1.007825032070
           F          0.277686691643    -0.637798081671    -1.200658498469    18.998403224000
           F          1.285649407365     0.964606560913    -0.236572235340    18.998403224000
           F          0.716952529927    -0.761800163131     0.871140708320    18.998403224000

  Nuclear repulsion =  277.687140087278578

  ==> Basis Set <==

  Basis Set: CC-PVTZ
    Number of shells: 78
    Number of basis function: 222
    Number of Cartesian functions: 255
    Spherical Harmonics?: true
    Max angular momentum: 3

  ==> DFJKGrad: Density-Fitted SCF Gradients <==

    Gradient:                    1
    J tasked:                  Yes
    K tasked:                  Yes
    wK tasked:                  No
    OpenMP threads:              4
    Integrals threads:           4
    Memory (MB):              1430
    Schwarz Cutoff:          0E+00
    Fitting Condition:       1E-12

   => Auxiliary Basis Set <=

  Basis Set: 
    Number of shells: 180
    Number of basis function: 564
    Number of Cartesian functions: 681
    Spherical Harmonics?: true
    Max angular momentum: 4


  -Total Gradient:
     Atom            X                  Y                   Z
    ------   -----------------  -----------------  -----------------
       1       -0.000193016869     0.000283636961     0.000193978816
       2        0.000287819402    -0.000237903330    -0.000184393944
       3        0.000169281303    -0.000259374531    -0.000220419254
       4        0.000185114422    -0.000142436775     0.000251558414
       5       -0.000142170399     0.000211411331     0.000195886951
       6       -0.000030798626    -0.000037846281     0.000013728829
       7       -0.000057256736    -0.000044602631    -0.000043461784
       8       -0.000033841544     0.000085780093    -0.000025192171
       9       -0.000185130953     0.000141335162    -0.000181685847


*** tstop() called on cx1-27-3-4 at Sat Sep 10 15:42:50 2016
Module time:
	user time   =      11.27 seconds =       0.19 minutes
	system time =       0.29 seconds =       0.00 minutes
	total time  =          3 seconds =       0.05 minutes
Total time:
	user time   =     121.38 seconds =       2.02 minutes
	system time =       3.38 seconds =       0.06 minutes
	total time  =         35 seconds =       0.58 minutes

			-----------------------------------------
			 OPTKING 2.0: for geometry optimizations 
			  - R.A. King,  Bethel University        
			-----------------------------------------

	Previous internal coordinate definitions found.
	---Fragment 1 Geometry and Gradient---
	 H          -3.5034504881       -1.2635445345        2.3597534437
	 O          -3.7517974941       -0.3789921037        0.8375571550
	 C          -1.8424453782        1.3703509418        0.4676826927
	 C           0.6422862164        0.1125983789       -0.1731081043
	 H          -2.3688637611        2.5614102622       -1.1028239148
	 H          -1.5246324159        2.5555112910        2.1088221330
	 F           0.5247517980       -1.2052637024       -2.2689157412
	 F           2.4295252828        1.8228422261       -0.4470567354
	 F           1.3548439318       -1.4395936763        1.6462173619
	            -0.0001930169        0.0002836370        0.0001939788
	             0.0002878194       -0.0002379033       -0.0001843939
	             0.0001692813       -0.0002593745       -0.0002204193
	             0.0001851144       -0.0001424368        0.0002515584
	            -0.0001421704        0.0002114113        0.0001958870
	            -0.0000307986       -0.0000378463        0.0000137288
	            -0.0000572567       -0.0000446026       -0.0000434618
	            -0.0000338415        0.0000857801       -0.0000251922
	            -0.0001851310        0.0001413352       -0.0001816858

	---Fragment 1 Intrafragment Coordinates---
	 - Coordinate -           - BOHR/RAD -       - ANG/DEG -
	 R(1,2)           =         1.777974	       0.940863
	 R(2,3)           =         2.615843	       1.384244
	 R(3,4)           =         2.857699	       1.512229
	 R(3,5)           =         2.040154	       1.079603
	 R(3,6)           =         2.049134	       1.084355
	 R(4,7)           =         2.478504	       1.311568
	 R(4,8)           =         2.488816	       1.317025
	 R(4,9)           =         2.495393	       1.320505
	 B(1,2,3)         =         1.930299	     110.597960
	 B(2,3,4)         =         1.951986	     111.840586
	 B(2,3,5)         =         1.886967	     108.115244
	 B(2,3,6)         =         1.967899	     112.752326
	 B(3,4,7)         =         1.963190	     112.482481
	 B(3,4,8)         =         1.924766	     110.280961
	 B(3,4,9)         =         1.937530	     111.012309
	 B(4,3,5)         =         1.884610	     107.980217
	 B(4,3,6)         =         1.874745	     107.414973
	 B(5,3,6)         =         1.895352	     108.595686
	 B(7,4,8)         =         1.882161	     107.839901
	 B(7,4,9)         =         1.874757	     107.415643
	 B(8,4,9)         =         1.878249	     107.615751
	 D(1,2,3,4)       =         1.243512	      71.247982
	*D(1,2,3,5)       =        -2.967059	    -169.999981
	 D(1,2,3,6)       =        -0.871476	     -49.931896
	 D(2,3,4,7)       =         1.068529	      61.222184
	 D(2,3,4,8)       =        -3.112850	    -178.353148
	 D(2,3,4,9)       =        -1.032763	     -59.172953
	 D(5,3,4,7)       =        -1.005483	     -57.609910
	 D(5,3,4,8)       =         1.096324	      62.814759
	 D(5,3,4,9)       =        -3.106774	    -178.005047
	 D(6,3,4,7)       =        -3.046591	    -174.556783
	 D(6,3,4,8)       =        -0.944784	     -54.132115
	 D(6,3,4,9)       =         1.135303	      65.048080

	Current energy   :      -450.8472533562

	Energy change for the previous step:
		Projected    :        -0.0000075256
		Actual       :        -0.0000021762

	Performing BFGS update.
	Previous computed or guess Hessian on step 1.
	Steps to be used in Hessian update: 5 4
	Taking RFO optimization step.
	Going to follow RFO solution 1.
	Using RFO vector 1.
	Norm of target step-size    0.00184
	Projected energy change by RFO approximation:        -0.0000004741

	Back-transformation to cartesian coordinates...
	Could not converge backtransformation.
	Using first guess instead.

	Back-transformation to cartesian coordinates to adjust frozen coordinates...
	Successfully converged to displaced geometry.

	--- Internal Coordinate Step in ANG or DEG, aJ/ANG or AJ/DEG ---
	 ---------------------------------------------------------------------------
	   Coordinate                Previous        Force       Change         New 
	   ----------                --------       ------       ------       ------
	    1 R(1,2)          =      0.940863     0.000017     0.000022     0.940885
	    2 R(2,3)          =      1.384244     0.000811     0.000082     1.384326
	    3 R(3,4)          =      1.512229     0.000800     0.000159     1.512389
	    4 R(3,5)          =      1.079603    -0.000077     0.000017     1.079620
	    5 R(3,6)          =      1.084355     0.000129     0.000026     1.084381
	    6 R(4,7)          =      1.311568    -0.000521    -0.000140     1.311428
	    7 R(4,8)          =      1.317025    -0.000308    -0.000024     1.317001
	    8 R(4,9)          =      1.320505     0.002251     0.000322     1.320827
	    9 B(1,2,3)        =    110.597960     0.000003     0.014147   110.612107
	   10 B(2,3,4)        =    111.840586     0.000002     0.010735   111.851321
	   11 B(2,3,5)        =    108.115244    -0.000002    -0.006912   108.108332
	   12 B(2,3,6)        =    112.752326     0.000002     0.026887   112.779214
	   13 B(3,4,7)        =    112.482481     0.000004     0.015195   112.497676
	   14 B(3,4,8)        =    110.280961     0.000006     0.012793   110.293754
	   15 B(3,4,9)        =    111.012309     0.000009     0.012488   111.024797
	   16 B(4,3,5)        =    107.980217     0.000000    -0.001272   107.978945
	   17 B(4,3,6)        =    107.414973    -0.000002    -0.019224   107.395749
	   18 B(5,3,6)        =    108.595686    -0.000001    -0.011747   108.583938
	   19 B(7,4,8)        =    107.839901    -0.000006    -0.009686   107.830215
	   20 B(7,4,9)        =    107.415643    -0.000004     0.001599   107.417243
	   21 B(8,4,9)        =    107.615751    -0.000011    -0.035569   107.580182
	   22 D(1,2,3,4)      =     71.247982    -0.000000    -0.000401    71.247582
	   23 *D(1,2,3,5)     =   -169.999981     0.000000    -0.000000  -169.999981
	   24 D(1,2,3,6)      =    -49.931896    -0.000000    -0.002647   -49.934542
	   25 D(2,3,4,7)      =     61.222184     0.000000    -0.023931    61.198253
	   26 D(2,3,4,8)      =   -178.353148    -0.000000    -0.017141  -178.370289
	   27 D(2,3,4,9)      =    -59.172953    -0.000001    -0.045254   -59.218207
	   28 D(5,3,4,7)      =    -57.609910     0.000000    -0.020973   -57.630883
	   29 D(5,3,4,8)      =     62.814759     0.000000    -0.014183    62.800575
	   30 D(5,3,4,9)      =   -178.005047    -0.000001    -0.042296  -178.047343
	   31 D(6,3,4,7)      =   -174.556783     0.000001     0.003504  -174.553279
	   32 D(6,3,4,8)      =    -54.132115     0.000001     0.010294   -54.121821
	   33 D(6,3,4,9)      =     65.048080    -0.000000    -0.017819    65.030261
	 ---------------------------------------------------------------------------
	Successfully symmetrized geometry.

  ==> Convergence Check <==

  Measures of convergence in internal coordinates in au.
  Criteria marked as inactive (o), active & met (*), and active & unmet ( ).
  ---------------------------------------------------------------------------------------------
   Step     Total Energy     Delta E     MAX Force     RMS Force      MAX Disp      RMS Disp   
  ---------------------------------------------------------------------------------------------
    Convergence Criteria    1.00e-06 *    3.00e-04 *             o    1.20e-03 *             o
  ---------------------------------------------------------------------------------------------
      6    -450.84725336   -2.18e-06      2.73e-04 *    7.03e-05 o    7.90e-04 *    3.21e-04 o  ~
  ---------------------------------------------------------------------------------------------


  **** Optimization is complete! (in 6 steps) ****

  ==> Optimization Summary <==

  Measures of convergence in internal coordinates in au.
  --------------------------------------------------------------------------------------------------------------- ~
   Step         Total Energy             Delta E       MAX Force       RMS Force        MAX Disp        RMS Disp  ~
  --------------------------------------------------------------------------------------------------------------- ~
      1    -450.845261846162   -450.845261846162      0.00867873      0.00373042      0.11053956      0.05894053  ~
      2    -450.836718479365      0.008543366797      0.04690746      0.01644035      0.09850623      0.03866997  ~
      3    -450.847010810079     -0.010292330714      0.00431998      0.00135437      0.08752807      0.03619115  ~
      4    -450.847238189737     -0.000227379658      0.00208346      0.00056869      0.01039281      0.00436832  ~
      5    -450.847251179938     -0.000012990201      0.00067244      0.00022309      0.00388384      0.00168188  ~
      6    -450.847253356167     -0.000002176229      0.00027324      0.00007031      0.00078983      0.00032065  ~
  --------------------------------------------------------------------------------------------------------------- ~

	Writing optimization data to binary file.
	Final energy is   -450.8472533561673
	Final (previous) structure:
	Cartesian Geometry (in Angstrom)
	    H    -1.8539461497  -0.6686389697   1.2487277403
	    O    -1.9853657251  -0.2005539835   0.4432161573
	    C    -0.9749801022   0.7251584862   0.2474870218
	    C     0.3398832271   0.0595844958  -0.0916048634
	    H    -1.2535487126   1.3554399326  -0.5835892808
	    H    -0.8068007260   1.3523183315   1.1159406098
	    F     0.2776866916  -0.6377980817  -1.2006584985
	    F     1.2856494074   0.9646065609  -0.2365722353
	    F     0.7169525299  -0.7618001631   0.8711407083
	Saving final (previous) structure.
			--------------------------
			 OPTKING Finished Execution 
			--------------------------

    Final optimized geometry and variables:
    Molecular point group: c1
    Full point group: C1

    Geometry (in Angstrom), charge = 0, multiplicity = 1:

    H           -1.853946149704    -0.668638969686     1.248727740271
    O           -1.985365725101    -0.200553983507     0.443216157334
    C           -0.974980102189     0.725158486173     0.247487021804
    C            0.339883227087     0.059584495838    -0.091604863414
    H           -1.253548712612     1.355439932593    -0.583589280805
    H           -0.806800725988     1.352318331508     1.115940609768
    F            0.277686691643    -0.637798081671    -1.200658498469
    F            1.285649407365     0.964606560913    -0.236572235340
    F            0.716952529927    -0.761800163131     0.871140708320

	Cleaning optimization helper files.


Properties will be evaluated at   0.000000,   0.000000,   0.000000 Bohr

Properties computed using the  density matrix

  Nuclear Dipole Moment: (a.u.)
     X:    -5.8302      Y:     2.3210      Z:     2.2059

  Electronic Dipole Moment: (a.u.)
     X:     5.5273      Y:    -1.9043      Z:    -1.5999

  Dipole Moment: (a.u.)
     X:    -0.3029      Y:     0.4167      Z:     0.6059     Total:     0.7953

  Dipole Moment: (Debye)
     X:    -0.7700      Y:     1.0590      Z:     1.5401     Total:     2.0214

  Quadrupole Moment: (Debye Ang)
    XX:   -36.4898     YY:   -31.5002     ZZ:   -30.5258
    XY:    -0.9064     XZ:    -2.0709     YZ:    -1.1762

  Traceless Quadrupole Moment: (Debye Ang)
    XX:    -3.6512     YY:     1.3384     ZZ:     2.3128
    XY:    -0.9064     XZ:    -2.0709     YZ:    -1.1762

  Mulliken Charges: (a.u.)
   Center  Symbol    Alpha    Beta     Spin     Total
       1     H     0.38645  0.38645  0.00000  0.22710
       2     O     4.19235  4.19235  0.00000 -0.38470
       3     C     2.99170  2.99170  0.00000  0.01659
       4     C     2.68352  2.68352  0.00000  0.63296
       5     H     0.44720  0.44720  0.00000  0.10560
       6     H     0.46166  0.46166  0.00000  0.07669
       7     F     4.60754  4.60754  0.00000 -0.21509
       8     F     4.61250  4.61250  0.00000 -0.22499
       9     F     4.61708  4.61708  0.00000 -0.23416

   Total alpha = 25.00000, Total beta = 25.00000, Total charge = -0.00000


*** Psi4 exiting successfully. Buy a developer a beer!
