    -----------------------------------------------------------------------
          Psi4: An Open-Source Ab Initio Electronic Structure Package
                              Psi4 (no tag) Driver

                          Git: Rev {detached?}  

    J. M. Turney, A. C. Simmonett, R. M. Parrish, E. G. Hohenstein,
    F. A. Evangelista, J. T. Fermann, B. J. Mintz, L. A. Burns, J. J. Wilke,
    M. L. Abrams, N. J. Russ, M. L. Leininger, C. L. Janssen, E. T. Seidl,
    W. D. Allen, H. F. Schaefer, R. A. King, E. F. Valeev, C. D. Sherrill,
    and T. D. Crawford, WIREs Comput. Mol. Sci. 2, 556-565 (2012)
    (doi: 10.1002/wcms.93)

                         Additional Contributions by
    A. E. DePrince, M. Saitow, U. Bozkaya, A. Yu. Sokolov
    -----------------------------------------------------------------------


    Psi4 started on: Fri Sep  9 20:30:01 2016

    Process ID:  21549
    PSI4DATADIR: /export131/home/mjharvey/miniconda3/share
    Memory level set to 256.000 MB

  ==> Input File <==

--------------------------------------------------------------------------
set {
	reference rhf
	basis cc-pvtz
}


set_num_threads( 4 )
memory 2 gb

molecule MOL {
0 1

H	 1.352126	 -2.118747	 0.665858
C	 0.411708	 -1.611695	 0.801302
O	 0.462329	 -0.453336	 -0.000137
H	 0.292129	 -1.357446	 1.846901
H	 -0.393059	 -2.265932	 0.490558
C	 -0.590565	 0.341382	 0.000062
O	 -1.693898	 -0.053880	 0.000252
H	 -0.340426	 1.403822	 0.000200

	symmetry c1
}
set optking {
	frozen_dihedral = ("
		2 3 6 7
	")
}

ee = optimize('scf')
oeprop('DIPOLE', 'QUADRUPOLE', 'MULLIKEN_CHARGES')
f=open( 'psi4out.xyz', 'w' )
f.write( "8  " )
f.write( str(ee) + "\n" )
f.write( MOL.save_string_xyz() )
f.close()
--------------------------------------------------------------------------

  Memory set to   2.000 GiB by Python script.
gradient() will perform analytic gradient computation.

*** tstart() called on cx1-27-2-3
*** at Fri Sep  9 20:30:02 2016


         ---------------------------------------------------------
                                   SCF
            by Justin Turney, Rob Parrish, and Andy Simmonett
                              RHF Reference
                        4 Threads,   2000 MiB Core
         ---------------------------------------------------------

  ==> Geometry <==

    Molecular point group: c1
    Full point group: C1

    Geometry (in Angstrom), charge = 0, multiplicity = 1:

       Center              X                  Y                   Z               Mass       
    ------------   -----------------  -----------------  -----------------  -----------------
           H          1.700790352357    -1.656761641410     0.455178408241     1.007825032070
           C          0.760372352357    -1.149709641410     0.590622408241    12.000000000000
           O          0.810993352357     0.008649358590    -0.210816591759    15.994914619560
           H          0.640793352357    -0.895460641410     1.636221408241     1.007825032070
           H         -0.044394647643    -1.803946641410     0.279878408241     1.007825032070
           C         -0.241900647643     0.803367358590    -0.210617591759    12.000000000000
           O         -1.345233647643     0.408105358590    -0.210427591759    15.994914619560
           H          0.008238352357     1.865807358590    -0.210479591759     1.007825032070

  Running in c1 symmetry.

  Rotational constants: A =      0.74434  B =      0.22088  C =      0.18028 [cm^-1]
  Rotational constants: A =  22314.62789  B =   6621.78631  C =   5404.54665 [MHz]
  Nuclear repulsion =  123.838737086485054

  Charge       = 0
  Multiplicity = 1
  Electrons    = 32
  Nalpha       = 16
  Nbeta        = 16

  ==> Algorithm <==

  SCF Algorithm Type is DF.
  DIIS enabled.
  MOM disabled.
  Fractional occupation disabled.
  Guess Type is CORE.
  Energy threshold   = 1.00e-08
  Density threshold  = 1.00e-08
  Integral threshold = 0.00e+00

  ==> Primary Basis <==

  Basis Set: CC-PVTZ
    Number of shells: 64
    Number of basis function: 176
    Number of Cartesian functions: 200
    Spherical Harmonics?: true
    Max angular momentum: 3

  ==> Pre-Iterations <==

   -------------------------------------------------------
    Irrep   Nso     Nmo     Nalpha   Nbeta   Ndocc  Nsocc
   -------------------------------------------------------
     A        176     176       0       0       0       0
   -------------------------------------------------------
    Total     176     176      16      16      16       0
   -------------------------------------------------------

 OEINTS: Overlap, kinetic, potential, dipole, and quadrupole integrals
         stored in file 35.

  ==> Integral Setup <==

  ==> DFJK: Density-Fitted J/K Matrices <==

    J tasked:                  Yes
    K tasked:                  Yes
    wK tasked:                  No
    OpenMP threads:              4
    Integrals threads:           4
    Memory (MB):              1430
    Algorithm:                Core
    Integral Cache:           NONE
    Schwarz Cutoff:          1E-12
    Fitting Condition:       1E-12

   => Auxiliary Basis Set <=

  Basis Set: 
    Number of shells: 140
    Number of basis function: 436
    Number of Cartesian functions: 524
    Spherical Harmonics?: true
    Max angular momentum: 4

  Minimum eigenvalue in the overlap matrix is 1.6294250965E-03.
  Using Symmetric Orthogonalization.
  SCF Guess: Core (One-Electron) Hamiltonian.

  ==> Iterations <==

                           Total Energy        Delta E     RMS |[F,P]|

   @DF-RHF iter   1:  -169.75713776480487   -1.69757e+02   7.18734e-02 
   @DF-RHF iter   2:  -144.45831991692157    2.52988e+01   4.79839e-02 DIIS
   @DF-RHF iter   3:  -204.55004839391958   -6.00917e+01   2.92290e-02 DIIS
   @DF-RHF iter   4:  -219.00658505186718   -1.44565e+01   2.01769e-02 DIIS
   @DF-RHF iter   5:  -226.12037574256183   -7.11379e+00   1.15227e-02 DIIS
   @DF-RHF iter   6:  -227.79112065103297   -1.67074e+00   2.33874e-03 DIIS
   @DF-RHF iter   7:  -227.85672687679133   -6.56062e-02   6.99077e-04 DIIS
   @DF-RHF iter   8:  -227.86740891732401   -1.06820e-02   2.47430e-04 DIIS
   @DF-RHF iter   9:  -227.86915567094636   -1.74675e-03   6.78739e-05 DIIS
   @DF-RHF iter  10:  -227.86936617654553   -2.10506e-04   3.14634e-05 DIIS
   @DF-RHF iter  11:  -227.86939057236575   -2.43958e-05   1.17745e-05 DIIS
   @DF-RHF iter  12:  -227.86939504040490   -4.46804e-06   4.86300e-06 DIIS
   @DF-RHF iter  13:  -227.86939567261763   -6.32213e-07   1.01780e-06 DIIS
   @DF-RHF iter  14:  -227.86939572178321   -4.91656e-08   3.06958e-07 DIIS
   @DF-RHF iter  15:  -227.86939572547678   -3.69357e-09   7.24258e-08 DIIS
   @DF-RHF iter  16:  -227.86939572578521   -3.08432e-10   2.74467e-08 DIIS
   @DF-RHF iter  17:  -227.86939572584257   -5.73550e-11   1.10943e-08 DIIS
   @DF-RHF iter  18:  -227.86939572585337   -1.08002e-11   3.53407e-09 DIIS

  ==> Post-Iterations <==

    Orbital Energies (a.u.)
    -----------------------

    Doubly Occupied:                                                      

       1A    -20.598995     2A    -20.551525     3A    -11.373535  
       4A    -11.288759     5A     -1.481563     6A     -1.380537  
       7A     -0.993916     8A     -0.822506     9A     -0.747511  
      10A     -0.686913    11A     -0.678152    12A     -0.612986  
      13A     -0.560379    14A     -0.525293    15A     -0.470179  
      16A     -0.458912  

    Virtual:                                                              

      17A      0.138985    18A      0.170750    19A      0.174022  
      20A      0.210425    21A      0.226221    22A      0.248037  
      23A      0.312295    24A      0.371089    25A      0.379595  
      26A      0.414341    27A      0.462361    28A      0.536087  
      29A      0.545158    30A      0.573339    31A      0.607772  
      32A      0.615383    33A      0.625172    34A      0.636872  
      35A      0.700089    36A      0.725759    37A      0.733023  
      38A      0.760495    39A      0.810590    40A      0.843332  
      41A      0.859451    42A      0.882953    43A      0.942362  
      44A      0.968025    45A      1.021412    46A      1.065538  
      47A      1.091190    48A      1.129262    49A      1.171391  
      50A      1.195659    51A      1.220841    52A      1.247200  
      53A      1.273283    54A      1.290039    55A      1.334267  
      56A      1.353342    57A      1.387032    58A      1.463440  
      59A      1.490671    60A      1.525430    61A      1.544723  
      62A      1.571928    63A      1.632081    64A      1.722993  
      65A      1.821626    66A      1.847119    67A      1.881117  
      68A      2.002403    69A      2.123359    70A      2.145423  
      71A      2.236311    72A      2.278524    73A      2.310290  
      74A      2.328122    75A      2.416288    76A      2.423675  
      77A      2.483280    78A      2.524898    79A      2.622437  
      80A      2.649170    81A      2.779291    82A      2.831232  
      83A      2.894529    84A      2.902607    85A      3.041143  
      86A      3.058643    87A      3.098605    88A      3.110883  
      89A      3.135725    90A      3.164165    91A      3.223375  
      92A      3.250648    93A      3.282788    94A      3.313606  
      95A      3.323946    96A      3.383743    97A      3.426197  
      98A      3.432788    99A      3.486569   100A      3.528152  
     101A      3.572758   102A      3.610731   103A      3.654597  
     104A      3.666647   105A      3.676643   106A      3.725624  
     107A      3.737350   108A      3.758570   109A      3.820595  
     110A      3.834035   111A      3.879114   112A      3.899760  
     113A      3.957251   114A      4.035539   115A      4.073639  
     116A      4.127131   117A      4.139513   118A      4.185892  
     119A      4.214889   120A      4.290041   121A      4.322887  
     122A      4.374673   123A      4.398181   124A      4.406897  
     125A      4.517051   126A      4.574587   127A      4.599328  
     128A      4.705803   129A      4.800380   130A      4.804334  
     131A      4.888130   132A      4.974922   133A      5.057343  
     134A      5.094374   135A      5.141687   136A      5.208516  
     137A      5.230767   138A      5.273796   139A      5.360081  
     140A      5.385322   141A      5.480071   142A      5.556435  
     143A      5.582055   144A      5.597140   145A      5.633337  
     146A      5.640376   147A      5.701375   148A      5.835511  
     149A      5.904136   150A      5.989524   151A      6.094886  
     152A      6.179325   153A      6.216841   154A      6.276855  
     155A      6.360718   156A      6.544787   157A      6.628093  
     158A      6.718792   159A      6.757267   160A      6.846467  
     161A      6.873175   162A      6.946629   163A      6.969742  
     164A      7.208570   165A      7.234023   166A      7.338865  
     167A      7.426126   168A      7.524180   169A      7.563397  
     170A      7.739881   171A      7.864302   172A      8.004516  
     173A     10.406340   174A     11.880591   175A     14.056688  
     176A     14.521696  

    Final Occupation by Irrep:
              A 
    DOCC [    16 ]

  Energy converged.

  @DF-RHF Final Energy:  -227.86939572585337

   => Energetics <=

    Nuclear Repulsion Energy =            123.8387370864850539
    One-Electron Energy =                -556.9529446037155367
    Two-Electron Energy =                 205.2448117913771171
    DFT Exchange-Correlation Energy =       0.0000000000000000
    Empirical Dispersion Energy =           0.0000000000000000
    PCM Polarization Energy =               0.0000000000000000
    EFP Energy =                            0.0000000000000000
    Total Energy =                       -227.8693957258533942

    Alert: EFP and PCM quantities not currently incorporated into SCF psivars.

Properties will be evaluated at   0.000000,   0.000000,   0.000000 Bohr
  ==> Properties <==


Properties computed using the SCF density matrix

  Nuclear Dipole Moment: (a.u.)
     X:     2.1587      Y:    -2.3326      Z:     2.0237

  Electronic Dipole Moment: (a.u.)
     X:    -1.3649      Y:     2.2883      Z:    -1.6103

  Dipole Moment: (a.u.)
     X:     0.7938      Y:    -0.0443      Z:     0.4133     Total:     0.8961

  Dipole Moment: (Debye)
     X:     2.0178      Y:    -0.1126      Z:     1.0506     Total:     2.2777


  Saving occupied orbitals to File 180.

*** tstop() called on cx1-27-2-3 at Fri Sep  9 20:30:06 2016
Module time:
	user time   =       9.71 seconds =       0.16 minutes
	system time =       0.17 seconds =       0.00 minutes
	total time  =          4 seconds =       0.07 minutes
Total time:
	user time   =       9.71 seconds =       0.16 minutes
	system time =       0.17 seconds =       0.00 minutes
	total time  =          4 seconds =       0.07 minutes

*** tstart() called on cx1-27-2-3
*** at Fri Sep  9 20:30:06 2016


         ------------------------------------------------------------
                                   SCF GRAD                          
                          Rob Parrish, Justin Turney,                
                       Andy Simmonett, and Alex Sokolov              
         ------------------------------------------------------------

  ==> Geometry <==

    Molecular point group: c1
    Full point group: C1

    Geometry (in Angstrom), charge = 0, multiplicity = 1:

       Center              X                  Y                   Z               Mass       
    ------------   -----------------  -----------------  -----------------  -----------------
           H          1.700790352357    -1.656761641410     0.455178408241     1.007825032070
           C          0.760372352357    -1.149709641410     0.590622408241    12.000000000000
           O          0.810993352357     0.008649358590    -0.210816591759    15.994914619560
           H          0.640793352357    -0.895460641410     1.636221408241     1.007825032070
           H         -0.044394647643    -1.803946641410     0.279878408241     1.007825032070
           C         -0.241900647643     0.803367358590    -0.210617591759    12.000000000000
           O         -1.345233647643     0.408105358590    -0.210427591759    15.994914619560
           H          0.008238352357     1.865807358590    -0.210479591759     1.007825032070

  Nuclear repulsion =  123.838737086485054

  ==> Basis Set <==

  Basis Set: CC-PVTZ
    Number of shells: 64
    Number of basis function: 176
    Number of Cartesian functions: 200
    Spherical Harmonics?: true
    Max angular momentum: 3

  ==> DFJKGrad: Density-Fitted SCF Gradients <==

    Gradient:                    1
    J tasked:                  Yes
    K tasked:                  Yes
    wK tasked:                  No
    OpenMP threads:              4
    Integrals threads:           4
    Memory (MB):              1430
    Schwarz Cutoff:          0E+00
    Fitting Condition:       1E-12

   => Auxiliary Basis Set <=

  Basis Set: 
    Number of shells: 140
    Number of basis function: 436
    Number of Cartesian functions: 524
    Spherical Harmonics?: true
    Max angular momentum: 4


  -Total Gradient:
     Atom            X                  Y                   Z
    ------   -----------------  -----------------  -----------------
       1       -0.001126527475    -0.000801216262     0.000445929424
       2        0.004662702211     0.012284743599     0.005036457967
       3       -0.015341692566    -0.014993718956    -0.008586897245
       4        0.000868246909    -0.001911138252     0.001226717900
       5       -0.000936643154    -0.002032076216    -0.001364737717
       6        0.003025556879     0.005252502836     0.002641706733
       7        0.012695189754    -0.003167913039    -0.004653392117
       8       -0.003846832558     0.005368816291     0.005254215056


*** tstop() called on cx1-27-2-3 at Fri Sep  9 20:30:10 2016
Module time:
	user time   =      17.03 seconds =       0.28 minutes
	system time =       0.27 seconds =       0.00 minutes
	total time  =          4 seconds =       0.07 minutes
Total time:
	user time   =      26.76 seconds =       0.45 minutes
	system time =       0.44 seconds =       0.01 minutes
	total time  =          8 seconds =       0.13 minutes
CURRENT ENERGY: -227.8693957259

			-----------------------------------------
			 OPTKING 2.0: for geometry optimizations 
			  - R.A. King,  Bethel University        
			-----------------------------------------

	Internal coordinates to be generated automatically.
	Detected frag with atoms:  1 2 3 4 5 6 7 8
	---Fragment 1 Bond Connectivity---
	 1 : 2
	 2 : 1 3 4 5
	 3 : 2 6
	 4 : 2
	 5 : 2
	 6 : 3 7 8
	 7 : 6
	 8 : 6

	Assuming in current code that numbering for constraints corresponds to unified fragment.
	Frozen dihedral atom list: 
	     2     3     6     7
	---Fragment 1 Geometry and Gradient---
	 H           3.2140279754       -3.1308257697        0.8601625332
	 C           1.4368955050       -2.1726363546        1.1161145995
	 O           1.5325553315        0.0163449190       -0.3983856227
	 H           1.2109239437       -1.6921753750        3.0920103543
	 H          -0.0838937258       -3.4089651106        0.5288935421
	 C          -0.4571259754        1.5181442918       -0.3980095672
	 O          -2.5421231788        0.7712073611       -0.3976505192
	 H           0.0155682297        3.5258649245       -0.3977487850
	            -0.0011265275       -0.0008012163        0.0004459294
	             0.0046627022        0.0122847436        0.0050364580
	            -0.0153416926       -0.0149937190       -0.0085868972
	             0.0008682469       -0.0019111383        0.0012267179
	            -0.0009366432       -0.0020320762       -0.0013647377
	             0.0030255569        0.0052525028        0.0026417067
	             0.0126951898       -0.0031679130       -0.0046533921
	            -0.0038468326        0.0053688163        0.0052542151

	Previous optimization step data not found.  Starting new optimization.

	---Fragment 1 Intrafragment Coordinates---
	 - Coordinate -           - BOHR/RAD -       - ANG/DEG -
	 R(1,2)           =         2.035151	       1.076955
	 R(2,3)           =         2.663550	       1.409490
	 R(2,4)           =         2.045989	       1.082691
	 R(2,5)           =         2.046005	       1.082699
	 R(3,6)           =         2.492836	       1.319152
	 R(6,7)           =         2.214752	       1.171997
	 R(6,8)           =         2.062615	       1.091489
	 B(1,2,3)         =         1.858824	     106.502751
	 B(1,2,4)         =         1.905473	     109.175557
	 B(1,2,5)         =         1.905475	     109.175655
	 B(2,3,6)         =         2.055963	     117.798017
	 B(3,2,4)         =         1.939170	     111.106248
	 B(3,2,5)         =         1.939175	     111.106539
	 B(3,6,7)         =         2.151031	     123.244978
	 B(3,6,8)         =         1.986131	     113.796940
	 B(4,2,5)         =         1.914506	     109.693088
	 B(7,6,8)         =         2.146023	     122.958080
	 D(1,2,3,6)       =        -3.141189	    -179.976895
	*D(2,3,6,7)       =        -0.698132	     -40.000000
	 D(2,3,6,8)       =         2.443294	     139.990454
	 D(4,2,3,6)       =        -1.067951	     -61.189106
	 D(5,2,3,6)       =         1.068753	      61.235039

	Current energy   :      -227.8693957259

	Generating empirical Hessian (Schlegel '84) for each fragment.
	Taking RFO optimization step.
	Going to follow RFO solution 1.
	Using RFO vector 1.
	Norm of target step-size    0.45916
	Projected energy change by RFO approximation:        -0.0048752192

	Back-transformation to cartesian coordinates...
	Successfully converged to displaced geometry.

	Back-transformation to cartesian coordinates to adjust frozen coordinates...
	Successfully converged to displaced geometry.

	--- Internal Coordinate Step in ANG or DEG, aJ/ANG or AJ/DEG ---
	 ---------------------------------------------------------------------------
	   Coordinate                Previous        Force       Change         New 
	   ----------                --------       ------       ------       ------
	    1 R(1,2)          =      1.076955     0.005459     0.000950     1.077905
	    2 R(2,3)          =      1.409490     0.027044     0.003884     1.413374
	    3 R(2,4)          =      1.082691    -0.005273    -0.000930     1.081761
	    4 R(2,5)          =      1.082699    -0.019079    -0.003372     1.079327
	    5 R(3,6)          =      1.319152     0.041083     0.004205     1.323357
	    6 R(6,7)          =      1.171997     0.089668     0.004788     1.176785
	    7 R(6,8)          =      1.091489    -0.035797    -0.006515     1.084974
	    8 B(1,2,3)        =    106.502751    -0.000055    -0.136030   106.366722
	    9 B(1,2,4)        =    109.175557     0.000127     0.536690   109.712247
	   10 B(1,2,5)        =    109.175655     0.000131     0.856191   110.031847
	   11 B(2,3,6)        =    117.798017    -0.000035    -0.101889   117.696128
	   12 B(3,2,4)        =    111.106248    -0.000267    -1.342017   109.764230
	   13 B(3,2,5)        =    111.106539     0.000054     0.247449   111.353988
	   14 B(3,6,7)        =    123.244978     0.001076     1.995634   125.240612
	   15 B(3,6,8)        =    113.796940    -0.000929    -5.189850   108.607090
	   16 B(4,2,5)        =    109.693088     0.000018    -0.132635   109.560453
	   17 B(7,6,8)        =    122.958080    -0.000148    -1.803023   121.155058
	   18 D(1,2,3,6)      =   -179.976895     0.000016     1.239978  -178.736917
	   19 *D(2,3,6,7)     =    -40.000000     0.000000     0.000000   -40.000000
	   20 D(2,3,6,8)      =    139.990454     0.000173    25.019313   165.009766
	   21 D(4,2,3,6)      =    -61.189106     0.000010     1.077041   -60.112065
	   22 D(5,2,3,6)      =     61.235039    -0.000019     0.150568    61.385606
	 ---------------------------------------------------------------------------

  ==> Convergence Check <==

  Measures of convergence in internal coordinates in au.
  Criteria marked as inactive (o), active & met (*), and active & unmet ( ).
  --------------------------------------------------------------------------------------------- ~
   Step     Total Energy     Delta E     MAX Force     RMS Force      MAX Disp      RMS Disp    ~
  --------------------------------------------------------------------------------------------- ~
    Convergence Criteria    1.00e-06 *    3.00e-04 *             o    1.20e-03 *             o  ~
  --------------------------------------------------------------------------------------------- ~
      1    -227.86939573   -2.28e+02      1.41e-02      5.44e-03 o    4.37e-01      9.61e-02 o  ~
  ---------------------------------------------------------------------------------------------

	Writing optimization data to binary file.
	Structure for next step:
	Cartesian Geometry (in Angstrom)
	    H     1.7279688783  -1.6340927579   0.4558619831
	    C     0.7655909694  -1.1669742607   0.5881804639
	    O     0.8165036480   0.0567481593  -0.1171832224
	    H     0.5938349775  -0.9765546432   1.6391073888
	    H    -0.0128517315  -1.8091738204   0.2053563334
	    C    -0.2551177131   0.8323876081  -0.0813430762
	    O    -1.3683440985   0.4556397328  -0.1414264945
	    H     0.0220740635   1.8220706659  -0.4289939482
			--------------------------
			 OPTKING Finished Execution 
			--------------------------

    Structure for next step:
    Molecular point group: c1
    Full point group: C1

    Geometry (in Angstrom), charge = 0, multiplicity = 1:

    H            1.733828270265    -1.660124842395     0.392024712157
    C            0.771450434845    -1.193006380789     0.524343182892
    O            0.822363109583     0.030715945690    -0.181020449565
    H            0.599694456084    -1.002586777921     1.575270027559
    H           -0.006992206593    -1.835205891480     0.141519081629
    C           -0.249258169662     0.806355335256    -0.145180306073
    O           -1.362484470050     0.429607488797    -0.205263719796
    H            0.027933585783     1.796038317543    -0.492831151569

gradient() will perform analytic gradient computation.

*** tstart() called on cx1-27-2-3
*** at Fri Sep  9 20:30:10 2016


         ---------------------------------------------------------
                                   SCF
            by Justin Turney, Rob Parrish, and Andy Simmonett
                              RHF Reference
                        4 Threads,   2000 MiB Core
         ---------------------------------------------------------

  ==> Geometry <==

    Molecular point group: c1
    Full point group: C1

    Geometry (in Angstrom), charge = 0, multiplicity = 1:

       Center              X                  Y                   Z               Mass       
    ------------   -----------------  -----------------  -----------------  -----------------
           H          1.733828270265    -1.660124842395     0.392024712157     1.007825032070
           C          0.771450434845    -1.193006380789     0.524343182892    12.000000000000
           O          0.822363109583     0.030715945690    -0.181020449565    15.994914619560
           H          0.599694456084    -1.002586777921     1.575270027559     1.007825032070
           H         -0.006992206593    -1.835205891480     0.141519081629     1.007825032070
           C         -0.249258169662     0.806355335256    -0.145180306073    12.000000000000
           O         -1.362484470050     0.429607488797    -0.205263719796    15.994914619560
           H          0.027933585783     1.796038317543    -0.492831151569     1.007825032070

  Running in c1 symmetry.

  Rotational constants: A =      0.75339  B =      0.21694  C =      0.17669 [cm^-1]
  Rotational constants: A =  22586.00230  B =   6503.77613  C =   5296.95063 [MHz]
  Nuclear repulsion =  123.357348713283827

  Charge       = 0
  Multiplicity = 1
  Electrons    = 32
  Nalpha       = 16
  Nbeta        = 16

  ==> Algorithm <==

  SCF Algorithm Type is DF.
  DIIS enabled.
  MOM disabled.
  Fractional occupation disabled.
  Guess Type is READ.
  Energy threshold   = 1.00e-08
  Density threshold  = 1.00e-08
  Integral threshold = 0.00e+00

  ==> Primary Basis <==

  Basis Set: CC-PVTZ
    Number of shells: 64
    Number of basis function: 176
    Number of Cartesian functions: 200
    Spherical Harmonics?: true
    Max angular momentum: 3

  ==> Pre-Iterations <==

   -------------------------------------------------------
    Irrep   Nso     Nmo     Nalpha   Nbeta   Ndocc  Nsocc
   -------------------------------------------------------
     A        176     176       0       0       0       0
   -------------------------------------------------------
    Total     176     176      16      16      16       0
   -------------------------------------------------------

 OEINTS: Overlap, kinetic, potential, dipole, and quadrupole integrals
         stored in file 35.

  ==> Integral Setup <==

  ==> DFJK: Density-Fitted J/K Matrices <==

    J tasked:                  Yes
    K tasked:                  Yes
    wK tasked:                  No
    OpenMP threads:              4
    Integrals threads:           4
    Memory (MB):              1430
    Algorithm:                Core
    Integral Cache:           NONE
    Schwarz Cutoff:          1E-12
    Fitting Condition:       1E-12

   => Auxiliary Basis Set <=

  Basis Set: 
    Number of shells: 140
    Number of basis function: 436
    Number of Cartesian functions: 524
    Spherical Harmonics?: true
    Max angular momentum: 4

  Minimum eigenvalue in the overlap matrix is 1.6271233934E-03.
  Using Symmetric Orthogonalization.
  SCF Guess: Reading in previously saved MOs, projecting if necessary.

  Using orbitals from previous SCF, no projection.
  Recomputing DOCC and SOCC from number of alpha and beta electrons from previous calculation.
              A 
    DOCC [    16 ]

  ==> Iterations <==

                           Total Energy        Delta E     RMS |[F,P]|

   @DF-RHF iter   0:  -227.82452379625414   -2.27825e+02   1.19029e-03 
   @DF-RHF iter   1:  -227.86216923218376   -3.76454e-02   2.20844e-04 
   @DF-RHF iter   2:  -227.86351377864025   -1.34455e-03   8.92866e-05 DIIS
   @DF-RHF iter   3:  -227.86379284136490   -2.79063e-04   5.06225e-05 DIIS
   @DF-RHF iter   4:  -227.86387898268117   -8.61413e-05   2.01760e-05 DIIS
   @DF-RHF iter   5:  -227.86389997235926   -2.09897e-05   1.03472e-05 DIIS
   @DF-RHF iter   6:  -227.86390867144746   -8.69909e-06   3.61178e-06 DIIS
   @DF-RHF iter   7:  -227.86390951629716   -8.44850e-07   1.52353e-06 DIIS
   @DF-RHF iter   8:  -227.86390960876184   -9.24647e-08   4.14529e-07 DIIS
   @DF-RHF iter   9:  -227.86390961708838   -8.32654e-09   1.17931e-07 DIIS
   @DF-RHF iter  10:  -227.86390961766904   -5.80656e-10   3.22098e-08 DIIS
   @DF-RHF iter  11:  -227.86390961771036   -4.13252e-11   1.10897e-08 DIIS
   @DF-RHF iter  12:  -227.86390961771485   -4.49063e-12   3.64231e-09 DIIS

  ==> Post-Iterations <==

    Orbital Energies (a.u.)
    -----------------------

    Doubly Occupied:                                                      

       1A    -20.604854     2A    -20.553731     3A    -11.373255  
       4A    -11.288320     5A     -1.478856     6A     -1.381735  
       7A     -0.996539     8A     -0.820938     9A     -0.744680  
      10A     -0.686794    11A     -0.680152    12A     -0.606401  
      13A     -0.562839    14A     -0.532278    15A     -0.469126  
      16A     -0.458438  

    Virtual:                                                              

      17A      0.133868    18A      0.161877    19A      0.180229  
      20A      0.209490    21A      0.227577    22A      0.246577  
      23A      0.315585    24A      0.370564    25A      0.380265  
      26A      0.413956    27A      0.462170    28A      0.538491  
      29A      0.559607    30A      0.569288    31A      0.600053  
      32A      0.614093    33A      0.629754    34A      0.641129  
      35A      0.681431    36A      0.706710    37A      0.733435  
      38A      0.788847    39A      0.813964    40A      0.820879  
      41A      0.858969    42A      0.898001    43A      0.940059  
      44A      0.949464    45A      0.976881    46A      1.068669  
      47A      1.099707    48A      1.134374    49A      1.171934  
      50A      1.187297    51A      1.221258    52A      1.247923  
      53A      1.276290    54A      1.325183    55A      1.344211  
      56A      1.365871    57A      1.379000    58A      1.486390  
      59A      1.488608    60A      1.525203    61A      1.544561  
      62A      1.577427    63A      1.628686    64A      1.722687  
      65A      1.795684    66A      1.830699    67A      1.884337  
      68A      1.981255    69A      2.116739    70A      2.158620  
      71A      2.199296    72A      2.242427    73A      2.297824  
      74A      2.339478    75A      2.426509    76A      2.442119  
      77A      2.482113    78A      2.584301    79A      2.605924  
      80A      2.657935    81A      2.719037    82A      2.856685  
      83A      2.877267    84A      2.935559    85A      3.028832  
      86A      3.039340    87A      3.073081    88A      3.111474  
      89A      3.146466    90A      3.168337    91A      3.205376  
      92A      3.279731    93A      3.288490    94A      3.304941  
      95A      3.315240    96A      3.386904    97A      3.415205  
      98A      3.441417    99A      3.492501   100A      3.549275  
     101A      3.551886   102A      3.596902   103A      3.632133  
     104A      3.671250   105A      3.689742   106A      3.724722  
     107A      3.736732   108A      3.744289   109A      3.797569  
     110A      3.839135   111A      3.861068   112A      3.898204  
     113A      4.022173   114A      4.042135   115A      4.086538  
     116A      4.130242   117A      4.148792   118A      4.181358  
     119A      4.212803   120A      4.307300   121A      4.337940  
     122A      4.378567   123A      4.385065   124A      4.397691  
     125A      4.497324   126A      4.562244   127A      4.606764  
     128A      4.684775   129A      4.791193   130A      4.831940  
     131A      4.948866   132A      5.010192   133A      5.052927  
     134A      5.095372   135A      5.119997   136A      5.154518  
     137A      5.279395   138A      5.295918   139A      5.353558  
     140A      5.367705   141A      5.491764   142A      5.561089  
     143A      5.566176   144A      5.588560   145A      5.640576  
     146A      5.665937   147A      5.702913   148A      5.852889  
     149A      5.871148   150A      6.021341   151A      6.085179  
     152A      6.142165   153A      6.205051   154A      6.247543  
     155A      6.335364   156A      6.488756   157A      6.605556  
     158A      6.725098   159A      6.752852   160A      6.882623  
     161A      6.898338   162A      6.946383   163A      7.035026  
     164A      7.185580   165A      7.225704   166A      7.339059  
     167A      7.387311   168A      7.525457   169A      7.553203  
     170A      7.679094   171A      7.870452   172A      7.895880  
     173A     10.327269   174A     11.768039   175A     14.014275  
     176A     14.366485  

    Final Occupation by Irrep:
              A 
    DOCC [    16 ]

  Energy converged.

  @DF-RHF Final Energy:  -227.86390961771485

   => Energetics <=

    Nuclear Repulsion Energy =            123.3573487132838267
    One-Electron Energy =                -555.9646450369791637
    Two-Electron Energy =                 204.7433867059804697
    DFT Exchange-Correlation Energy =       0.0000000000000000
    Empirical Dispersion Energy =           0.0000000000000000
    PCM Polarization Energy =               0.0000000000000000
    EFP Energy =                            0.0000000000000000
    Total Energy =                       -227.8639096177148531

    Alert: EFP and PCM quantities not currently incorporated into SCF psivars.

Properties will be evaluated at   0.000000,   0.000000,   0.000000 Bohr
  ==> Properties <==


Properties computed using the SCF density matrix

  Nuclear Dipole Moment: (a.u.)
     X:     2.2046      Y:    -2.5307      Z:     1.5131

  Electronic Dipole Moment: (a.u.)
     X:    -1.3913      Y:     2.3975      Z:    -1.1449

  Dipole Moment: (a.u.)
     X:     0.8134      Y:    -0.1332      Z:     0.3682     Total:     0.9027

  Dipole Moment: (Debye)
     X:     2.0673      Y:    -0.3385      Z:     0.9358     Total:     2.2944


  Saving occupied orbitals to File 180.

*** tstop() called on cx1-27-2-3 at Fri Sep  9 20:30:14 2016
Module time:
	user time   =       8.31 seconds =       0.14 minutes
	system time =       0.12 seconds =       0.00 minutes
	total time  =          4 seconds =       0.07 minutes
Total time:
	user time   =      35.83 seconds =       0.60 minutes
	system time =       0.60 seconds =       0.01 minutes
	total time  =         12 seconds =       0.20 minutes

*** tstart() called on cx1-27-2-3
*** at Fri Sep  9 20:30:14 2016


         ------------------------------------------------------------
                                   SCF GRAD                          
                          Rob Parrish, Justin Turney,                
                       Andy Simmonett, and Alex Sokolov              
         ------------------------------------------------------------

  ==> Geometry <==

    Molecular point group: c1
    Full point group: C1

    Geometry (in Angstrom), charge = 0, multiplicity = 1:

       Center              X                  Y                   Z               Mass       
    ------------   -----------------  -----------------  -----------------  -----------------
           H          1.733828270265    -1.660124842395     0.392024712157     1.007825032070
           C          0.771450434845    -1.193006380789     0.524343182892    12.000000000000
           O          0.822363109583     0.030715945690    -0.181020449565    15.994914619560
           H          0.599694456084    -1.002586777921     1.575270027559     1.007825032070
           H         -0.006992206593    -1.835205891480     0.141519081629     1.007825032070
           C         -0.249258169662     0.806355335256    -0.145180306073    12.000000000000
           O         -1.362484470050     0.429607488797    -0.205263719796    15.994914619560
           H          0.027933585783     1.796038317543    -0.492831151569     1.007825032070

  Nuclear repulsion =  123.357348713283827

  ==> Basis Set <==

  Basis Set: CC-PVTZ
    Number of shells: 64
    Number of basis function: 176
    Number of Cartesian functions: 200
    Spherical Harmonics?: true
    Max angular momentum: 3

  ==> DFJKGrad: Density-Fitted SCF Gradients <==

    Gradient:                    1
    J tasked:                  Yes
    K tasked:                  Yes
    wK tasked:                  No
    OpenMP threads:              4
    Integrals threads:           4
    Memory (MB):              1430
    Schwarz Cutoff:          0E+00
    Fitting Condition:       1E-12

   => Auxiliary Basis Set <=

  Basis Set: 
    Number of shells: 140
    Number of basis function: 436
    Number of Cartesian functions: 524
    Spherical Harmonics?: true
    Max angular momentum: 4


  -Total Gradient:
     Atom            X                  Y                   Z
    ------   -----------------  -----------------  -----------------
       1        0.000243951452    -0.000172340699    -0.000048106952
       2        0.001292102467     0.004412666081     0.002828804925
       3       -0.003448961784    -0.006316433213    -0.027845629650
       4       -0.000068725517     0.001188248131    -0.000039054322
       5        0.000324147589    -0.000442895594     0.000441064317
       6       -0.000926756673     0.008765406672     0.073638659082
       7        0.004658861476     0.000923745080    -0.030268444377
       8       -0.002074619011    -0.008358396455    -0.018707293023


*** tstop() called on cx1-27-2-3 at Fri Sep  9 20:30:18 2016
Module time:
	user time   =      16.88 seconds =       0.28 minutes
	system time =       0.25 seconds =       0.00 minutes
	total time  =          4 seconds =       0.07 minutes
Total time:
	user time   =      52.73 seconds =       0.88 minutes
	system time =       0.85 seconds =       0.01 minutes
	total time  =         16 seconds =       0.27 minutes
CURRENT ENERGY: -227.8639096177

			-----------------------------------------
			 OPTKING 2.0: for geometry optimizations 
			  - R.A. King,  Bethel University        
			-----------------------------------------

	Previous internal coordinate definitions found.
	---Fragment 1 Geometry and Gradient---
	 H           3.2764605923       -3.1371812985        0.7408193433
	 C           1.4578300470       -2.2544553345        0.9908650153
	 O           1.5540410589        0.0580447253       -0.3420790741
	 H           1.1332582854       -1.8946144347        2.9768289374
	 H          -0.0132133555       -3.4680365324        0.2674323069
	 C          -0.4710296770        1.5237907494       -0.2743510184
	 O          -2.5747225087        0.8118404985       -0.3878922154
	 H           0.0527868270        3.3940205443       -0.9313159062
	             0.0002439515       -0.0001723407       -0.0000481070
	             0.0012921025        0.0044126661        0.0028288049
	            -0.0034489618       -0.0063164332       -0.0278456296
	            -0.0000687255        0.0011882481       -0.0000390543
	             0.0003241476       -0.0004428956        0.0004410643
	            -0.0009267567        0.0087654067        0.0736386591
	             0.0046588615        0.0009237451       -0.0302684444
	            -0.0020746190       -0.0083583965       -0.0187072930

	---Fragment 1 Intrafragment Coordinates---
	 - Coordinate -           - BOHR/RAD -       - ANG/DEG -
	 R(1,2)           =         2.036945	       1.077905
	 R(2,3)           =         2.670890	       1.413374
	 R(2,4)           =         2.044232	       1.081761
	 R(2,5)           =         2.039633	       1.079327
	 R(3,6)           =         2.500782	       1.323357
	 R(6,7)           =         2.223800	       1.176785
	 R(6,8)           =         2.050304	       1.084974
	 B(1,2,3)         =         1.856450	     106.366722
	 B(1,2,4)         =         1.914840	     109.712247
	 B(1,2,5)         =         1.920418	     110.031847
	 B(2,3,6)         =         2.054185	     117.696128
	 B(3,2,4)         =         1.915747	     109.764230
	 B(3,2,5)         =         1.943494	     111.353988
	 B(3,6,7)         =         2.185861	     125.240612
	 B(3,6,8)         =         1.895551	     108.607090
	 B(4,2,5)         =         1.912191	     109.560453
	 B(7,6,8)         =         2.114555	     121.155058
	 D(1,2,3,6)       =        -3.119548	    -178.736917
	*D(2,3,6,7)       =        -0.698132	     -40.000000
	 D(2,3,6,8)       =         2.879964	     165.009766
	 D(4,2,3,6)       =        -1.049153	     -60.112065
	 D(5,2,3,6)       =         1.071381	      61.385606

	Current energy   :      -227.8639096177

	Energy change for the previous step:
		Projected    :        -0.0048752192
		Actual       :         0.0054861081

	Performing BFGS update.
	Previous computed or guess Hessian on step 1.
	Steps to be used in Hessian update: 1
	Taking RFO optimization step.
	Going to follow RFO solution 1.
	Using RFO vector 1.
	Norm of target step-size    0.32628
	Projected energy change by RFO approximation:        -0.0115976934

	Back-transformation to cartesian coordinates...
	Successfully converged to displaced geometry.

	Back-transformation to cartesian coordinates to adjust frozen coordinates...
	Successfully converged to displaced geometry.

	--- Internal Coordinate Step in ANG or DEG, aJ/ANG or AJ/DEG ---
	 ---------------------------------------------------------------------------
	   Coordinate                Previous        Force       Change         New 
	   ----------                --------       ------       ------       ------
	    1 R(1,2)          =      1.077905    -0.002458     0.000211     1.078116
	    2 R(2,3)          =      1.413374     0.023009     0.002548     1.415922
	    3 R(2,4)          =      1.081761    -0.001501    -0.000436     1.081325
	    4 R(2,5)          =      1.079327     0.001044    -0.001196     1.078131
	    5 R(3,6)          =      1.323357    -0.000871     0.001538     1.324894
	    6 R(6,7)          =      1.176785     0.026014     0.002237     1.179022
	    7 R(6,8)          =      1.084974     0.017796    -0.001352     1.083622
	    8 B(1,2,3)        =    106.366722    -0.000012    -0.071309   106.295412
	    9 B(1,2,4)        =    109.712247    -0.000031     0.172978   109.885225
	   10 B(1,2,5)        =    110.031847     0.000016     0.314380   110.346226
	   11 B(2,3,6)        =    117.696128     0.000101     0.059723   117.755851
	   12 B(3,2,4)        =    109.764230     0.000158    -0.254828   109.509403
	   13 B(3,2,5)        =    111.353988    -0.000110    -0.080445   111.273543
	   14 B(3,6,7)        =    125.240612     0.000551     3.022655   128.263267
	   15 B(3,6,8)        =    108.607090     0.000592     0.517660   109.124750
	   16 B(4,2,5)        =    109.560453    -0.000021    -0.077266   109.483186
	   17 B(7,6,8)        =    121.155058     0.000101     1.098867   122.253925
	   18 D(1,2,3,6)      =   -178.736917    -0.000008     0.306094  -178.430823
	   19 *D(2,3,6,7)     =    -40.000000     0.000000     0.000000   -40.000000
	   20 D(2,3,6,8)      =    165.009766    -0.000677   -18.173293   146.836473
	   21 D(4,2,3,6)      =    -60.112065     0.000002     0.336131   -59.775934
	   22 D(5,2,3,6)      =     61.385606     0.000004     0.014473    61.400080
	 ---------------------------------------------------------------------------

  ==> Convergence Check <==

  Measures of convergence in internal coordinates in au.
  Criteria marked as inactive (o), active & met (*), and active & unmet ( ).
  ---------------------------------------------------------------------------------------------
   Step     Total Energy     Delta E     MAX Force     RMS Force      MAX Disp      RMS Disp   
  ---------------------------------------------------------------------------------------------
    Convergence Criteria    1.00e-06 *    3.00e-04 *             o    1.20e-03 *             o
  ---------------------------------------------------------------------------------------------
      2    -227.86390962    5.49e-03      3.88e-02      8.66e-03 o    3.17e-01      6.88e-02 o  ~
  ---------------------------------------------------------------------------------------------

	Writing optimization data to binary file.
	Structure for next step:
	Cartesian Geometry (in Angstrom)
	    H     1.7391694831  -1.6626528955   0.4003550359
	    C     0.7769783570  -1.1921717056   0.5235169464
	    O     0.8116074587  -0.0079586526  -0.2519020735
	    H     0.6219193091  -0.9386360321   1.5631996455
	    H    -0.0083952483  -1.8529813890   0.1935379399
	    C    -0.2602619773   0.7706486698  -0.2373531681
	    O    -1.3950701652   0.4510919329  -0.2510230139
	    H     0.0505879715   1.8044530661  -0.3314698121
			--------------------------
			 OPTKING Finished Execution 
			--------------------------

    Structure for next step:
    Molecular point group: c1
    Full point group: C1

    Geometry (in Angstrom), charge = 0, multiplicity = 1:

    H            1.750994390918    -1.651974036586     0.446511582933
    C            0.788803338286    -1.181492882562     0.569673484051
    O            0.823432437355     0.002720080000    -0.205745476641
    H            0.633744302241    -0.927957228485     1.609356103756
    H            0.003429792907    -1.842302515552     0.239694502685
    C           -0.248436916799     0.781327342902    -0.191196572423
    O           -1.383245018034     0.461770630376    -0.204866417116
    H            0.062413008220     1.815131660206    -0.285313209222

gradient() will perform analytic gradient computation.

*** tstart() called on cx1-27-2-3
*** at Fri Sep  9 20:30:19 2016


         ---------------------------------------------------------
                                   SCF
            by Justin Turney, Rob Parrish, and Andy Simmonett
                              RHF Reference
                        4 Threads,   2000 MiB Core
         ---------------------------------------------------------

  ==> Geometry <==

    Molecular point group: c1
    Full point group: C1

    Geometry (in Angstrom), charge = 0, multiplicity = 1:

       Center              X                  Y                   Z               Mass       
    ------------   -----------------  -----------------  -----------------  -----------------
           H          1.750994390918    -1.651974036586     0.446511582933     1.007825032070
           C          0.788803338286    -1.181492882562     0.569673484051    12.000000000000
           O          0.823432437355     0.002720080000    -0.205745476641    15.994914619560
           H          0.633744302241    -0.927957228485     1.609356103756     1.007825032070
           H          0.003429792907    -1.842302515552     0.239694502685     1.007825032070
           C         -0.248436916799     0.781327342902    -0.191196572423    12.000000000000
           O         -1.383245018034     0.461770630376    -0.204866417116    15.994914619560
           H          0.062413008220     1.815131660206    -0.285313209222     1.007825032070

  Running in c1 symmetry.

  Rotational constants: A =      0.76553  B =      0.21040  C =      0.17356 [cm^-1]
  Rotational constants: A =  22950.11400  B =   6307.65453  C =   5203.28132 [MHz]
  Nuclear repulsion =  122.790023552712356

  Charge       = 0
  Multiplicity = 1
  Electrons    = 32
  Nalpha       = 16
  Nbeta        = 16

  ==> Algorithm <==

  SCF Algorithm Type is DF.
  DIIS enabled.
  MOM disabled.
  Fractional occupation disabled.
  Guess Type is READ.
  Energy threshold   = 1.00e-08
  Density threshold  = 1.00e-08
  Integral threshold = 0.00e+00

  ==> Primary Basis <==

  Basis Set: CC-PVTZ
    Number of shells: 64
    Number of basis function: 176
    Number of Cartesian functions: 200
    Spherical Harmonics?: true
    Max angular momentum: 3

  ==> Pre-Iterations <==

   -------------------------------------------------------
    Irrep   Nso     Nmo     Nalpha   Nbeta   Ndocc  Nsocc
   -------------------------------------------------------
     A        176     176       0       0       0       0
   -------------------------------------------------------
    Total     176     176      16      16      16       0
   -------------------------------------------------------

 OEINTS: Overlap, kinetic, potential, dipole, and quadrupole integrals
         stored in file 35.

  ==> Integral Setup <==

  ==> DFJK: Density-Fitted J/K Matrices <==

    J tasked:                  Yes
    K tasked:                  Yes
    wK tasked:                  No
    OpenMP threads:              4
    Integrals threads:           4
    Memory (MB):              1430
    Algorithm:                Core
    Integral Cache:           NONE
    Schwarz Cutoff:          1E-12
    Fitting Condition:       1E-12

   => Auxiliary Basis Set <=

  Basis Set: 
    Number of shells: 140
    Number of basis function: 436
    Number of Cartesian functions: 524
    Spherical Harmonics?: true
    Max angular momentum: 4

  Minimum eigenvalue in the overlap matrix is 1.6249982233E-03.
  Using Symmetric Orthogonalization.
  SCF Guess: Reading in previously saved MOs, projecting if necessary.

  Using orbitals from previous SCF, no projection.
  Recomputing DOCC and SOCC from number of alpha and beta electrons from previous calculation.
              A 
    DOCC [    16 ]

  ==> Iterations <==

                           Total Energy        Delta E     RMS |[F,P]|

   @DF-RHF iter   0:  -227.85940474008834   -2.27859e+02   1.02675e-03 
   @DF-RHF iter   1:  -227.86907367266519   -9.66893e-03   1.61006e-04 
   @DF-RHF iter   2:  -227.86984098928872   -7.67317e-04   6.16428e-05 DIIS
   @DF-RHF iter   3:  -227.87002688908115   -1.85900e-04   2.47021e-05 DIIS
   @DF-RHF iter   4:  -227.87004991482706   -2.30257e-05   1.29819e-05 DIIS
   @DF-RHF iter   5:  -227.87006140196144   -1.14871e-05   5.10127e-06 DIIS
   @DF-RHF iter   6:  -227.87006315710420   -1.75514e-06   2.12546e-06 DIIS
   @DF-RHF iter   7:  -227.87006340044633   -2.43342e-07   7.58929e-07 DIIS
   @DF-RHF iter   8:  -227.87006342288146   -2.24351e-08   2.05907e-07 DIIS
   @DF-RHF iter   9:  -227.87006342467419   -1.79273e-09   5.00268e-08 DIIS
   @DF-RHF iter  10:  -227.87006342476752   -9.33369e-11   1.33943e-08 DIIS
   @DF-RHF iter  11:  -227.87006342477514   -7.61702e-12   3.35602e-09 DIIS

  ==> Post-Iterations <==

    Orbital Energies (a.u.)
    -----------------------

    Doubly Occupied:                                                      

       1A    -20.604833     2A    -20.555318     3A    -11.374983  
       4A    -11.291085     5A     -1.475405     6A     -1.383835  
       7A     -0.997105     8A     -0.823697     9A     -0.744001  
      10A     -0.687704    11A     -0.678960    12A     -0.611674  
      13A     -0.562904    14A     -0.530368    15A     -0.473671  
      16A     -0.458031  

    Virtual:                                                              

      17A      0.137508    18A      0.170725    19A      0.177427  
      20A      0.207733    21A      0.225886    22A      0.243447  
      23A      0.315244    24A      0.372775    25A      0.377609  
      26A      0.413484    27A      0.459264    28A      0.540441  
      29A      0.545741    30A      0.565033    31A      0.600962  
      32A      0.613906    33A      0.627315    34A      0.636941  
      35A      0.692915    36A      0.717036    37A      0.725185  
      38A      0.770908    39A      0.807544    40A      0.838267  
      41A      0.850139    42A      0.880919    43A      0.938839  
      44A      0.967065    45A      1.010068    46A      1.060204  
      47A      1.097858    48A      1.124715    49A      1.171191  
      50A      1.192683    51A      1.203592    52A      1.240045  
      53A      1.280056    54A      1.318207    55A      1.324801  
      56A      1.354263    57A      1.386470    58A      1.474789  
      59A      1.497140    60A      1.525288    61A      1.543562  
      62A      1.585215    63A      1.614031    64A      1.724286  
      65A      1.804409    66A      1.847209    67A      1.878000  
      68A      1.959098    69A      2.125313    70A      2.149654  
      71A      2.220769    72A      2.282503    73A      2.300794  
      74A      2.325629    75A      2.414624    76A      2.428640  
      77A      2.480810    78A      2.557566    79A      2.605565  
      80A      2.648092    81A      2.768609    82A      2.818421  
      83A      2.893205    84A      2.900762    85A      3.030588  
      86A      3.044015    87A      3.088351    88A      3.106162  
      89A      3.141556    90A      3.157340    91A      3.221815  
      92A      3.241016    93A      3.283810    94A      3.313727  
      95A      3.316948    96A      3.378526    97A      3.414107  
      98A      3.426700    99A      3.478865   100A      3.530873  
     101A      3.550196   102A      3.600257   103A      3.660418  
     104A      3.667340   105A      3.671925   106A      3.723161  
     107A      3.732281   108A      3.752098   109A      3.814216  
     110A      3.829055   111A      3.874612   112A      3.913820  
     113A      3.970751   114A      4.035788   115A      4.086847  
     116A      4.128425   117A      4.143914   118A      4.185436  
     119A      4.205283   120A      4.302886   121A      4.315438  
     122A      4.372935   123A      4.392459   124A      4.401787  
     125A      4.527810   126A      4.563428   127A      4.602972  
     128A      4.690787   129A      4.764629   130A      4.826904  
     131A      4.921832   132A      5.007456   133A      5.059625  
     134A      5.088859   135A      5.143079   136A      5.189649  
     137A      5.248952   138A      5.279885   139A      5.355092  
     140A      5.389431   141A      5.500930   142A      5.563204  
     143A      5.570757   144A      5.591634   145A      5.640754  
     146A      5.650560   147A      5.693990   148A      5.838308  
     149A      5.902647   150A      5.987077   151A      6.050844  
     152A      6.182355   153A      6.206173   154A      6.214122  
     155A      6.357198   156A      6.555481   157A      6.598344  
     158A      6.709040   159A      6.746501   160A      6.870445  
     161A      6.879193   162A      6.929497   163A      6.984301  
     164A      7.188624   165A      7.220318   166A      7.332116  
     167A      7.410009   168A      7.510860   169A      7.544016  
     170A      7.694630   171A      7.847350   172A      8.014490  
     173A     10.422658   174A     11.806236   175A     14.030231  
     176A     14.476380  

    Final Occupation by Irrep:
              A 
    DOCC [    16 ]

  Energy converged.

  @DF-RHF Final Energy:  -227.87006342477514

   => Energetics <=

    Nuclear Repulsion Energy =            122.7900235527123556
    One-Electron Energy =                -554.8130249683085822
    Two-Electron Energy =                 204.1529379908208739
    DFT Exchange-Correlation Energy =       0.0000000000000000
    Empirical Dispersion Energy =           0.0000000000000000
    PCM Polarization Energy =               0.0000000000000000
    EFP Energy =                            0.0000000000000000
    Total Energy =                       -227.8700634247753669

    Alert: EFP and PCM quantities not currently incorporated into SCF psivars.

Properties will be evaluated at   0.000000,   0.000000,   0.000000 Bohr
  ==> Properties <==


Properties computed using the SCF density matrix

  Nuclear Dipole Moment: (a.u.)
     X:     2.2947      Y:    -2.4418      Z:     1.8826

  Electronic Dipole Moment: (a.u.)
     X:    -1.4460      Y:     2.2732      Z:    -1.4735

  Dipole Moment: (a.u.)
     X:     0.8486      Y:    -0.1687      Z:     0.4090     Total:     0.9570

  Dipole Moment: (Debye)
     X:     2.1569      Y:    -0.4287      Z:     1.0396     Total:     2.4325


  Saving occupied orbitals to File 180.

*** tstop() called on cx1-27-2-3 at Fri Sep  9 20:30:22 2016
Module time:
	user time   =       8.33 seconds =       0.14 minutes
	system time =       0.14 seconds =       0.00 minutes
	total time  =          3 seconds =       0.05 minutes
Total time:
	user time   =      61.57 seconds =       1.03 minutes
	system time =       1.01 seconds =       0.02 minutes
	total time  =         20 seconds =       0.33 minutes

*** tstart() called on cx1-27-2-3
*** at Fri Sep  9 20:30:22 2016


         ------------------------------------------------------------
                                   SCF GRAD                          
                          Rob Parrish, Justin Turney,                
                       Andy Simmonett, and Alex Sokolov              
         ------------------------------------------------------------

  ==> Geometry <==

    Molecular point group: c1
    Full point group: C1

    Geometry (in Angstrom), charge = 0, multiplicity = 1:

       Center              X                  Y                   Z               Mass       
    ------------   -----------------  -----------------  -----------------  -----------------
           H          1.750994390918    -1.651974036586     0.446511582933     1.007825032070
           C          0.788803338286    -1.181492882562     0.569673484051    12.000000000000
           O          0.823432437355     0.002720080000    -0.205745476641    15.994914619560
           H          0.633744302241    -0.927957228485     1.609356103756     1.007825032070
           H          0.003429792907    -1.842302515552     0.239694502685     1.007825032070
           C         -0.248436916799     0.781327342902    -0.191196572423    12.000000000000
           O         -1.383245018034     0.461770630376    -0.204866417116    15.994914619560
           H          0.062413008220     1.815131660206    -0.285313209222     1.007825032070

  Nuclear repulsion =  122.790023552712370

  ==> Basis Set <==

  Basis Set: CC-PVTZ
    Number of shells: 64
    Number of basis function: 176
    Number of Cartesian functions: 200
    Spherical Harmonics?: true
    Max angular momentum: 3

  ==> DFJKGrad: Density-Fitted SCF Gradients <==

    Gradient:                    1
    J tasked:                  Yes
    K tasked:                  Yes
    wK tasked:                  No
    OpenMP threads:              4
    Integrals threads:           4
    Memory (MB):              1430
    Schwarz Cutoff:          0E+00
    Fitting Condition:       1E-12

   => Auxiliary Basis Set <=

  Basis Set: 
    Number of shells: 140
    Number of basis function: 436
    Number of Cartesian functions: 524
    Spherical Harmonics?: true
    Max angular momentum: 4


  -Total Gradient:
     Atom            X                  Y                   Z
    ------   -----------------  -----------------  -----------------
       1        0.000761903753     0.000006187487    -0.000057975549
       2        0.002165631372     0.003637685705     0.004175260787
       3        0.004673451361    -0.002704070615    -0.014559250244
       4       -0.000361233992     0.000980967506    -0.000512201652
       5        0.000477607737     0.000700688897     0.000753186036
       6        0.003405871458    -0.006997253793     0.023286138716
       7       -0.010961498261     0.007147381169    -0.012109696057
       8       -0.000161733431    -0.002771586356    -0.000975462037


*** tstop() called on cx1-27-2-3 at Fri Sep  9 20:30:26 2016
Module time:
	user time   =      16.89 seconds =       0.28 minutes
	system time =       0.27 seconds =       0.00 minutes
	total time  =          4 seconds =       0.07 minutes
Total time:
	user time   =      78.49 seconds =       1.31 minutes
	system time =       1.28 seconds =       0.02 minutes
	total time  =         24 seconds =       0.40 minutes
CURRENT ENERGY: -227.8700634248

			-----------------------------------------
			 OPTKING 2.0: for geometry optimizations 
			  - R.A. King,  Bethel University        
			-----------------------------------------

	Previous internal coordinate definitions found.
	---Fragment 1 Geometry and Gradient---
	 H           3.3088998591       -3.1217785078        0.8437846069
	 C           1.4906222821       -2.2326979760        1.0765268700
	 O           1.5560617955        0.0051402063       -0.3888026039
	 H           1.1976031695       -1.7535850249        3.0412422864
	 H           0.0064813693       -3.4814472083        0.4529569656
	 C          -0.4694777340        1.4764946982       -0.3613091594
	 O          -2.6139542588        0.8726200276       -0.3871414222
	 H           0.1179434927        3.4301017329       -0.5391638275
	             0.0007619038        0.0000061875       -0.0000579755
	             0.0021656314        0.0036376857        0.0041752608
	             0.0046734514       -0.0027040706       -0.0145592502
	            -0.0003612340        0.0009809675       -0.0005122017
	             0.0004776077        0.0007006889        0.0007531860
	             0.0034058715       -0.0069972538        0.0232861387
	            -0.0109614983        0.0071473812       -0.0121096961
	            -0.0001617334       -0.0027715864       -0.0009754620

	---Fragment 1 Intrafragment Coordinates---
	 - Coordinate -           - BOHR/RAD -       - ANG/DEG -
	 R(1,2)           =         2.037343	       1.078116
	 R(2,3)           =         2.675704	       1.415922
	 R(2,4)           =         2.043408	       1.081325
	 R(2,5)           =         2.037373	       1.078131
	 R(3,6)           =         2.503687	       1.324894
	 R(6,7)           =         2.228029	       1.179022
	 R(6,8)           =         2.047749	       1.083622
	 B(1,2,3)         =         1.855205	     106.295412
	 B(1,2,4)         =         1.917859	     109.885225
	 B(1,2,5)         =         1.925905	     110.346226
	 B(2,3,6)         =         2.055227	     117.755851
	 B(3,2,4)         =         1.911300	     109.509403
	 B(3,2,5)         =         1.942090	     111.273543
	 B(3,6,7)         =         2.238616	     128.263267
	 B(3,6,8)         =         1.904586	     109.124750
	 B(4,2,5)         =         1.910842	     109.483186
	 B(7,6,8)         =         2.133734	     122.253925
	 D(1,2,3,6)       =        -3.114205	    -178.430823
	*D(2,3,6,7)       =        -0.698132	     -40.000000
	 D(2,3,6,8)       =         2.562780	     146.836473
	 D(4,2,3,6)       =        -1.043287	     -59.775934
	 D(5,2,3,6)       =         1.071634	      61.400080

	Current energy   :      -227.8700634248

	Energy change for the previous step:
		Projected    :        -0.0115976934
		Actual       :        -0.0061538071

	Performing BFGS update.
	Previous computed or guess Hessian on step 1.
	Steps to be used in Hessian update: 2 1
	Taking RFO optimization step.
	Going to follow RFO solution 1.
	Using RFO vector 1.
	Norm of target step-size    0.06085
	Projected energy change by RFO approximation:        -0.0007950081

	Back-transformation to cartesian coordinates...
	Successfully converged to displaced geometry.

	Back-transformation to cartesian coordinates to adjust frozen coordinates...
	Successfully converged to displaced geometry.

	--- Internal Coordinate Step in ANG or DEG, aJ/ANG or AJ/DEG ---
	 ---------------------------------------------------------------------------
	   Coordinate                Previous        Force       Change         New 
	   ----------                --------       ------       ------       ------
	    1 R(1,2)          =      1.078116    -0.005634    -0.000622     1.077494
	    2 R(2,3)          =      1.415922     0.017645     0.000694     1.416616
	    3 R(2,4)          =      1.081325     0.001736     0.000295     1.081620
	    4 R(2,5)          =      1.078131     0.008304     0.001197     1.079329
	    5 R(3,6)          =      1.324894    -0.039669    -0.002708     1.322186
	    6 R(6,7)          =      1.179022    -0.072119    -0.002754     1.176268
	    7 R(6,8)          =      1.083622     0.021469     0.002728     1.086350
	    8 B(1,2,3)        =    106.295412    -0.000003    -0.015415   106.279997
	    9 B(1,2,4)        =    109.885225    -0.000046    -0.154665   109.730560
	   10 B(1,2,5)        =    110.346226    -0.000040    -0.268372   110.077854
	   11 B(2,3,6)        =    117.755851     0.000006     0.005493   117.761344
	   12 B(3,2,4)        =    109.509403     0.000146     0.510199   110.019601
	   13 B(3,2,5)        =    111.273543    -0.000051    -0.132341   111.141202
	   14 B(3,6,7)        =    128.263267    -0.001118    -2.477878   125.785389
	   15 B(3,6,8)        =    109.124750     0.000614     1.533435   110.658184
	   16 B(4,2,5)        =    109.483186    -0.000004     0.059024   109.542210
	   17 B(7,6,8)        =    122.253925     0.000510     1.059971   123.313896
	   18 D(1,2,3,6)      =   -178.430823    -0.000009    -0.314013  -178.744836
	   19 *D(2,3,6,7)     =    -40.000000     0.000000    -0.000000   -40.000000
	   20 D(2,3,6,8)      =    146.836473    -0.000028    -1.306700   145.529773
	   21 D(4,2,3,6)      =    -59.775934    -0.000004    -0.236146   -60.012080
	   22 D(5,2,3,6)      =     61.400080     0.000009     0.094588    61.494668
	 ---------------------------------------------------------------------------

  ==> Convergence Check <==

  Measures of convergence in internal coordinates in au.
  Criteria marked as inactive (o), active & met (*), and active & unmet ( ).
  ---------------------------------------------------------------------------------------------
   Step     Total Energy     Delta E     MAX Force     RMS Force      MAX Disp      RMS Disp   
  ---------------------------------------------------------------------------------------------
    Convergence Criteria    1.00e-06 *    3.00e-04 *             o    1.20e-03 *             o
  ---------------------------------------------------------------------------------------------
      3    -227.87006342   -6.15e-03      1.47e-02      4.50e-03 o    4.32e-02      1.30e-02 o  ~
  ---------------------------------------------------------------------------------------------

	Writing optimization data to binary file.
	Structure for next step:
	Cartesian Geometry (in Angstrom)
	    H     1.7395723411  -1.6575711429   0.4419473792
	    C     0.7838155272  -1.1770001763   0.5706858680
	    O     0.8240069821   0.0030199720  -0.2120899202
	    H     0.6390012334  -0.9254155411   1.6126242677
	    H    -0.0081011556  -1.8337878394   0.2444211049
	    C    -0.2398744311   0.7879612094  -0.1979741004
	    O    -1.3598958779   0.4286716818  -0.2063264581
	    H     0.0526109015   1.8313446926  -0.2751739921
			--------------------------
			 OPTKING Finished Execution 
			--------------------------

    Structure for next step:
    Molecular point group: c1
    Full point group: C1

    Geometry (in Angstrom), charge = 0, multiplicity = 1:

    H            1.732943875506    -1.651418893923     0.444951917659
    C            0.777187134656    -1.170847964055     0.573690396583
    O            0.817378586503     0.009172094133    -0.209085331811
    H            0.632372851896    -0.919263348126     1.615628716703
    H           -0.014729487685    -1.827635577043     0.247425658398
    C           -0.246502745462     0.794113271573    -0.194969513100
    O           -1.366524106770     0.434823771444    -0.203321870195
    H            0.045982564765     1.837496675103    -0.272169398943

gradient() will perform analytic gradient computation.

*** tstart() called on cx1-27-2-3
*** at Fri Sep  9 20:30:26 2016


         ---------------------------------------------------------
                                   SCF
            by Justin Turney, Rob Parrish, and Andy Simmonett
                              RHF Reference
                        4 Threads,   2000 MiB Core
         ---------------------------------------------------------

  ==> Geometry <==

    Molecular point group: c1
    Full point group: C1

    Geometry (in Angstrom), charge = 0, multiplicity = 1:

       Center              X                  Y                   Z               Mass       
    ------------   -----------------  -----------------  -----------------  -----------------
           H          1.732943875506    -1.651418893923     0.444951917659     1.007825032070
           C          0.777187134656    -1.170847964055     0.573690396583    12.000000000000
           O          0.817378586503     0.009172094133    -0.209085331811    15.994914619560
           H          0.632372851896    -0.919263348126     1.615628716703     1.007825032070
           H         -0.014729487685    -1.827635577043     0.247425658398     1.007825032070
           C         -0.246502745462     0.794113271573    -0.194969513100    12.000000000000
           O         -1.366524106770     0.434823771444    -0.203321870195    15.994914619560
           H          0.045982564765     1.837496675103    -0.272169398943     1.007825032070

  Running in c1 symmetry.

  Rotational constants: A =      0.75245  B =      0.21534  C =      0.17646 [cm^-1]
  Rotational constants: A =  22557.90085  B =   6455.74026  C =   5290.11755 [MHz]
  Nuclear repulsion =  123.211052213063368

  Charge       = 0
  Multiplicity = 1
  Electrons    = 32
  Nalpha       = 16
  Nbeta        = 16

  ==> Algorithm <==

  SCF Algorithm Type is DF.
  DIIS enabled.
  MOM disabled.
  Fractional occupation disabled.
  Guess Type is READ.
  Energy threshold   = 1.00e-08
  Density threshold  = 1.00e-08
  Integral threshold = 0.00e+00

  ==> Primary Basis <==

  Basis Set: CC-PVTZ
    Number of shells: 64
    Number of basis function: 176
    Number of Cartesian functions: 200
    Spherical Harmonics?: true
    Max angular momentum: 3

  ==> Pre-Iterations <==

   -------------------------------------------------------
    Irrep   Nso     Nmo     Nalpha   Nbeta   Ndocc  Nsocc
   -------------------------------------------------------
     A        176     176       0       0       0       0
   -------------------------------------------------------
    Total     176     176      16      16      16       0
   -------------------------------------------------------

 OEINTS: Overlap, kinetic, potential, dipole, and quadrupole integrals
         stored in file 35.

  ==> Integral Setup <==

  ==> DFJK: Density-Fitted J/K Matrices <==

    J tasked:                  Yes
    K tasked:                  Yes
    wK tasked:                  No
    OpenMP threads:              4
    Integrals threads:           4
    Memory (MB):              1430
    Algorithm:                Core
    Integral Cache:           NONE
    Schwarz Cutoff:          1E-12
    Fitting Condition:       1E-12

   => Auxiliary Basis Set <=

  Basis Set: 
    Number of shells: 140
    Number of basis function: 436
    Number of Cartesian functions: 524
    Spherical Harmonics?: true
    Max angular momentum: 4

  Minimum eigenvalue in the overlap matrix is 1.6259942359E-03.
  Using Symmetric Orthogonalization.
  SCF Guess: Reading in previously saved MOs, projecting if necessary.

  Using orbitals from previous SCF, no projection.
  Recomputing DOCC and SOCC from number of alpha and beta electrons from previous calculation.
              A 
    DOCC [    16 ]

  ==> Iterations <==

                           Total Energy        Delta E     RMS |[F,P]|

   @DF-RHF iter   0:  -227.87279034021756   -2.27873e+02   4.75421e-04 
   @DF-RHF iter   1:  -227.87058821923981    2.20212e-03   5.93975e-05 
   @DF-RHF iter   2:  -227.87065312878664   -6.49095e-05   2.25696e-05 DIIS
   @DF-RHF iter   3:  -227.87066161189202   -8.48311e-06   1.20955e-05 DIIS
   @DF-RHF iter   4:  -227.87066381008421   -2.19819e-06   2.21166e-06 DIIS
   @DF-RHF iter   5:  -227.87066392867231   -1.18588e-07   8.98234e-07 DIIS
   @DF-RHF iter   6:  -227.87066395585171   -2.71794e-08   4.38494e-07 DIIS
   @DF-RHF iter   7:  -227.87066396442603   -8.57432e-09   1.83121e-07 DIIS
   @DF-RHF iter   8:  -227.87066396725172   -2.82569e-09   6.18111e-08 DIIS
   @DF-RHF iter   9:  -227.87066396754366   -2.91948e-10   1.52836e-08 DIIS
   @DF-RHF iter  10:  -227.87066396755640   -1.27329e-11   4.35886e-09 DIIS

  ==> Post-Iterations <==

    Orbital Energies (a.u.)
    -----------------------

    Doubly Occupied:                                                      

       1A    -20.601937     2A    -20.553456     3A    -11.374126  
       4A    -11.290119     5A     -1.477357     6A     -1.381431  
       7A     -0.995569     8A     -0.823114     9A     -0.744920  
      10A     -0.686782    11A     -0.677977    12A     -0.611461  
      13A     -0.562182    14A     -0.528649    15A     -0.471809  
      16A     -0.458775  

    Virtual:                                                              

      17A      0.138288    18A      0.171182    19A      0.175504  
      20A      0.208918    21A      0.226167    22A      0.245021  
      23A      0.313730    24A      0.372286    25A      0.377938  
      26A      0.414225    27A      0.460345    28A      0.541785  
      29A      0.544726    30A      0.568251    31A      0.604267  
      32A      0.614538    33A      0.627330    34A      0.635695  
      35A      0.695707    36A      0.718881    37A      0.730349  
      38A      0.767194    39A      0.809678    40A      0.839751  
      41A      0.853889    42A      0.881604    43A      0.940740  
      44A      0.965966    45A      1.011002    46A      1.062934  
      47A      1.096188    48A      1.125880    49A      1.171485  
      50A      1.192613    51A      1.210597    52A      1.242991  
      53A      1.277247    54A      1.307012    55A      1.327661  
      56A      1.353297    57A      1.386184    58A      1.473370  
      59A      1.494694    60A      1.526475    61A      1.546411  
      62A      1.576777    63A      1.622803    64A      1.725116  
      65A      1.811141    66A      1.849503    67A      1.879314  
      68A      1.978858    69A      2.125976    70A      2.145005  
      71A      2.225279    72A      2.278356    73A      2.299579  
      74A      2.327253    75A      2.417643    76A      2.423722  
      77A      2.481885    78A      2.547453    79A      2.613065  
      80A      2.649006    81A      2.775159    82A      2.825890  
      83A      2.895443    84A      2.901486    85A      3.033999  
      86A      3.047908    87A      3.090657    88A      3.107458  
      89A      3.140534    90A      3.159191    91A      3.221463  
      92A      3.244735    93A      3.284419    94A      3.313936  
      95A      3.319028    96A      3.380875    97A      3.420894  
      98A      3.427948    99A      3.481296   100A      3.529613  
     101A      3.557232   102A      3.603781   103A      3.659797  
     104A      3.664724   105A      3.671002   106A      3.724234  
     107A      3.732494   108A      3.757871   109A      3.817548  
     110A      3.829068   111A      3.875233   112A      3.906865  
     113A      3.964829   114A      4.033552   115A      4.085163  
     116A      4.129550   117A      4.140163   118A      4.185566  
     119A      4.206762   120A      4.302292   121A      4.322425  
     122A      4.374565   123A      4.394626   124A      4.402419  
     125A      4.525135   126A      4.566151   127A      4.601479  
     128A      4.697299   129A      4.779533   130A      4.818524  
     131A      4.904835   132A      4.997734   133A      5.061958  
     134A      5.089832   135A      5.142528   136A      5.194700  
     137A      5.243519   138A      5.277558   139A      5.356104  
     140A      5.388227   141A      5.498016   142A      5.562136  
     143A      5.573573   144A      5.592684   145A      5.637046  
     146A      5.647829   147A      5.696772   148A      5.840431  
     149A      5.900044   150A      5.990629   151A      6.071765  
     152A      6.176834   153A      6.208700   154A      6.239870  
     155A      6.348789   156A      6.544474   157A      6.610437  
     158A      6.718837   159A      6.747975   160A      6.856790  
     161A      6.876736   162A      6.937976   163A      6.973691  
     164A      7.196235   165A      7.226910   166A      7.333757  
     167A      7.414069   168A      7.517998   169A      7.555831  
     170A      7.714364   171A      7.858277   172A      8.009022  
     173A     10.402253   174A     11.826422   175A     14.035118  
     176A     14.503885  

    Final Occupation by Irrep:
              A 
    DOCC [    16 ]

  Energy converged.

  @DF-RHF Final Energy:  -227.87066396755640

   => Energetics <=

    Nuclear Repulsion Energy =            123.2110522130633683
    One-Electron Energy =                -555.6841038136303723
    Two-Electron Energy =                 204.6023876330105509
    DFT Exchange-Correlation Energy =       0.0000000000000000
    Empirical Dispersion Energy =           0.0000000000000000
    PCM Polarization Energy =               0.0000000000000000
    EFP Energy =                            0.0000000000000000
    Total Energy =                       -227.8706639675564816

    Alert: EFP and PCM quantities not currently incorporated into SCF psivars.

Properties will be evaluated at   0.000000,   0.000000,   0.000000 Bohr
  ==> Properties <==


Properties computed using the SCF density matrix

  Nuclear Dipole Moment: (a.u.)
     X:     2.2441      Y:    -2.3986      Z:     1.9066

  Electronic Dipole Moment: (a.u.)
     X:    -1.4159      Y:     2.2847      Z:    -1.4982

  Dipole Moment: (a.u.)
     X:     0.8282      Y:    -0.1138      Z:     0.4084     Total:     0.9304

  Dipole Moment: (Debye)
     X:     2.1050      Y:    -0.2893      Z:     1.0380     Total:     2.3648


  Saving occupied orbitals to File 180.

*** tstop() called on cx1-27-2-3 at Fri Sep  9 20:30:30 2016
Module time:
	user time   =       8.52 seconds =       0.14 minutes
	system time =       0.14 seconds =       0.00 minutes
	total time  =          4 seconds =       0.07 minutes
Total time:
	user time   =      87.41 seconds =       1.46 minutes
	system time =       1.42 seconds =       0.02 minutes
	total time  =         28 seconds =       0.47 minutes

*** tstart() called on cx1-27-2-3
*** at Fri Sep  9 20:30:30 2016


         ------------------------------------------------------------
                                   SCF GRAD                          
                          Rob Parrish, Justin Turney,                
                       Andy Simmonett, and Alex Sokolov              
         ------------------------------------------------------------

  ==> Geometry <==

    Molecular point group: c1
    Full point group: C1

    Geometry (in Angstrom), charge = 0, multiplicity = 1:

       Center              X                  Y                   Z               Mass       
    ------------   -----------------  -----------------  -----------------  -----------------
           H          1.732943875506    -1.651418893923     0.444951917659     1.007825032070
           C          0.777187134656    -1.170847964055     0.573690396583    12.000000000000
           O          0.817378586503     0.009172094133    -0.209085331811    15.994914619560
           H          0.632372851896    -0.919263348126     1.615628716703     1.007825032070
           H         -0.014729487685    -1.827635577043     0.247425658398     1.007825032070
           C         -0.246502745462     0.794113271573    -0.194969513100    12.000000000000
[...]
   @DF-RHF iter   7:  -227.87066765344537   -2.95586e-11   7.06588e-09 DIIS

  ==> Post-Iterations <==

    Orbital Energies (a.u.)
    -----------------------

    Doubly Occupied:                                                      

       1A    -20.601627     2A    -20.553333     3A    -11.373886  
       4A    -11.290054     5A     -1.477422     6A     -1.381304  
       7A     -0.995339     8A     -0.823037     9A     -0.744890  
      10A     -0.686696    11A     -0.677807    12A     -0.611384  
      13A     -0.562260    14A     -0.528714    15A     -0.471735  
      16A     -0.458830  

    Virtual:                                                              

      17A      0.138397    18A      0.171318    19A      0.175467  
      20A      0.208942    21A      0.226128    22A      0.244945  
      23A      0.313623    24A      0.372277    25A      0.378021  
      26A      0.414511    27A      0.460211    28A      0.542089  
      29A      0.544716    30A      0.568179    31A      0.604526  
      32A      0.614706    33A      0.627339    34A      0.635643  
      35A      0.695831    36A      0.718896    37A      0.730486  
      38A      0.767148    39A      0.810216    40A      0.839308  
      41A      0.854297    42A      0.881921    43A      0.940929  
      44A      0.966037    45A      1.010714    46A      1.062786  
      47A      1.096536    48A      1.125913    49A      1.171333  
      50A      1.192719    51A      1.210903    52A      1.243347  
      53A      1.277192    54A      1.306685    55A      1.327242  
      56A      1.352946    57A      1.386302    58A      1.474458  
      59A      1.495099    60A      1.526624    61A      1.546667  
      62A      1.576776    63A      1.623550    64A      1.725540  
      65A      1.811491    66A      1.849696    67A      1.879393  
      68A      1.980010    69A      2.125604    70A      2.144945  
      71A      2.225092    72A      2.277875    73A      2.299364  
      74A      2.327230    75A      2.417282    76A      2.423938  
      77A      2.481626    78A      2.546834    79A      2.614180  
      80A      2.649823    81A      2.775401    82A      2.826306  
      83A      2.895738    84A      2.901761    85A      3.033570  
      86A      3.047955    87A      3.090510    88A      3.107612  
      89A      3.140574    90A      3.159121    91A      3.221288  
      92A      3.245551    93A      3.284671    94A      3.314041  
      95A      3.319373    96A      3.380572    97A      3.421371  
      98A      3.428022    99A      3.481652   100A      3.529651  
     101A      3.557404   102A      3.603461   103A      3.659147  
     104A      3.664493   105A      3.671098   106A      3.724358  
     107A      3.732441   108A      3.758811   109A      3.817432  
     110A      3.829241   111A      3.874929   112A      3.906807  
     113A      3.964837   114A      4.033755   115A      4.086616  
     116A      4.130587   117A      4.140391   118A      4.185664  
     119A      4.206576   120A      4.302570   121A      4.323472  
     122A      4.374538   123A      4.394324   124A      4.402182  
     125A      4.525236   126A      4.565756   127A      4.601992  
     128A      4.697065   129A      4.781088   130A      4.819026  
     131A      4.904734   132A      4.998256   133A      5.062107  
     134A      5.090578   135A      5.143269   136A      5.195004  
     137A      5.243681   138A      5.277941   139A      5.356847  
     140A      5.388308   141A      5.501184   142A      5.562561  
     143A      5.573554   144A      5.592293   145A      5.636911  
     146A      5.648439   147A      5.696670   148A      5.840493  
     149A      5.899667   150A      5.990619   151A      6.073893  
     152A      6.176121   153A      6.208371   154A      6.242094  
     155A      6.347910   156A      6.542671   157A      6.611306  
     158A      6.719436   159A      6.748784   160A      6.857089  
     161A      6.876814   162A      6.938646   163A      6.973004  
     164A      7.196980   165A      7.227735   166A      7.334012  
     167A      7.413758   168A      7.518300   169A      7.556731  
     170A      7.715728   171A      7.859000   172A      8.009088  
     173A     10.401861   174A     11.827239   175A     14.034241  
     176A     14.515832  

    Final Occupation by Irrep:
              A 
    DOCC [    16 ]

  Energy converged.

  @DF-RHF Final Energy:  -227.87066765344537

   => Energetics <=

    Nuclear Repulsion Energy =            123.2464205703995646
    One-Electron Energy =                -555.7575357072117868
    Two-Electron Energy =                 204.6404474833668132
    DFT Exchange-Correlation Energy =       0.0000000000000000
    Empirical Dispersion Energy =           0.0000000000000000
    PCM Polarization Energy =               0.0000000000000000
    EFP Energy =                            0.0000000000000000
    Total Energy =                       -227.8706676534454232

    Alert: EFP and PCM quantities not currently incorporated into SCF psivars.

Properties will be evaluated at   0.000000,   0.000000,   0.000000 Bohr
  ==> Properties <==


Properties computed using the SCF density matrix

  Nuclear Dipole Moment: (a.u.)
     X:     2.2409      Y:    -2.3945      Z:     1.9031

  Electronic Dipole Moment: (a.u.)
     X:    -1.4146      Y:     2.2828      Z:    -1.4960

  Dipole Moment: (a.u.)
     X:     0.8263      Y:    -0.1117      Z:     0.4071     Total:     0.9279

  Dipole Moment: (Debye)
     X:     2.1002      Y:    -0.2840      Z:     1.0348     Total:     2.3585


  Saving occupied orbitals to File 180.

*** tstop() called on cx1-27-2-3 at Fri Sep  9 20:30:45 2016
Module time:
	user time   =       7.39 seconds =       0.12 minutes
	system time =       0.14 seconds =       0.00 minutes
	total time  =          3 seconds =       0.05 minutes
Total time:
	user time   =     138.02 seconds =       2.30 minutes
	system time =       2.24 seconds =       0.04 minutes
	total time  =         43 seconds =       0.72 minutes

*** tstart() called on cx1-27-2-3
*** at Fri Sep  9 20:30:45 2016


         ------------------------------------------------------------
                                   SCF GRAD                          
                          Rob Parrish, Justin Turney,                
                       Andy Simmonett, and Alex Sokolov              
         ------------------------------------------------------------

  ==> Geometry <==

    Molecular point group: c1
    Full point group: C1

    Geometry (in Angstrom), charge = 0, multiplicity = 1:

       Center              X                  Y                   Z               Mass       
    ------------   -----------------  -----------------  -----------------  -----------------
           H          1.732558673454    -1.649602921813     0.445827537319     1.007825032070
           C          0.776112363580    -1.170547810375     0.573133790693    12.000000000000
           O          0.816922144304     0.009272314540    -0.211640189868    15.994914619560
           H          0.629252587091    -0.917315816580     1.614241829601     1.007825032070
           H         -0.014805003484    -1.827620987698     0.245232604442     1.007825032070
           C         -0.246336744582     0.794829797794    -0.195016002325    12.000000000000
           O         -1.365169766435     0.433690915088    -0.200085063497    15.994914619560
           H          0.046133823448     1.838001830572    -0.273107147151     1.007825032070

  Nuclear repulsion =  123.246420570399550

  ==> Basis Set <==

  Basis Set: CC-PVTZ
    Number of shells: 64
    Number of basis function: 176
    Number of Cartesian functions: 200
    Spherical Harmonics?: true
    Max angular momentum: 3

  ==> DFJKGrad: Density-Fitted SCF Gradients <==

    Gradient:                    1
    J tasked:                  Yes
    K tasked:                  Yes
    wK tasked:                  No
    OpenMP threads:              4
    Integrals threads:           4
    Memory (MB):              1430
    Schwarz Cutoff:          0E+00
    Fitting Condition:       1E-12

   => Auxiliary Basis Set <=

  Basis Set: 
    Number of shells: 140
    Number of basis function: 436
    Number of Cartesian functions: 524
    Spherical Harmonics?: true
    Max angular momentum: 4


  -Total Gradient:
     Atom            X                  Y                   Z
    ------   -----------------  -----------------  -----------------
       1       -0.000006680705    -0.000019328448     0.000015600028
       2        0.003093176205     0.004039422111     0.006143062970
       3       -0.004640650043    -0.005924498223    -0.014685918700
       4        0.000003957781    -0.000002087984     0.000008174569
       5        0.000003735649    -0.000002517654     0.000006601519
       6        0.001564962688     0.001702323772     0.019023138225
       7       -0.000004081955     0.000211308834    -0.010506122238
       8       -0.000014419619    -0.000004622406    -0.000004536374


*** tstop() called on cx1-27-2-3 at Fri Sep  9 20:30:49 2016
Module time:
	user time   =      17.13 seconds =       0.29 minutes
	system time =       0.31 seconds =       0.01 minutes
	total time  =          4 seconds =       0.07 minutes
Total time:
	user time   =     155.17 seconds =       2.59 minutes
	system time =       2.55 seconds =       0.04 minutes
	total time  =         47 seconds =       0.78 minutes
CURRENT ENERGY: -227.8706676534

			-----------------------------------------
			 OPTKING 2.0: for geometry optimizations 
			  - R.A. King,  Bethel University        
			-----------------------------------------

	Previous internal coordinate definitions found.
	---Fragment 1 Geometry and Gradient---
	 H           3.2740614020       -3.1172977502        0.8424919480
	 C           1.4666398155       -2.2120147871        1.0830659019
	 O           1.5437591246        0.0175221351       -0.3999419976
	 H           1.1891150580       -1.7334756707        3.0504749702
	 H          -0.0279774020       -3.4537031415        0.4634224612
	 C          -0.4655089837        1.5020106401       -0.3685268359
	 O          -2.5797969835        0.8195570558       -0.3781059733
	 H           0.0871802918        3.4733200915       -0.5160977130
	            -0.0000066807       -0.0000193284        0.0000156000
	             0.0030931762        0.0040394221        0.0061430630
	            -0.0046406500       -0.0059244982       -0.0146859187
	             0.0000039578       -0.0000020880        0.0000081746
	             0.0000037356       -0.0000025177        0.0000066015
	             0.0015649627        0.0017023238        0.0190231382
	            -0.0000040820        0.0002113088       -0.0105061222
	            -0.0000144196       -0.0000046224       -0.0000045364

	---Fragment 1 Intrafragment Coordinates---
	 - Coordinate -           - BOHR/RAD -       - ANG/DEG -
	 R(1,2)           =         2.035727	       1.077261
	 R(2,3)           =         2.678823	       1.417572
	 R(2,4)           =         2.043702	       1.081481
	 R(2,5)           =         2.039517	       1.079266
	 R(3,6)           =         2.498370	       1.322080
	 R(6,7)           =         2.221722	       1.175685
	 R(6,8)           =         2.052633	       1.086207
	 B(1,2,3)         =         1.853686	     106.208363
	 B(1,2,4)         =         1.916073	     109.782917
	 B(1,2,5)         =         1.921970	     110.120770
	 B(2,3,6)         =         2.053769	     117.672305
	 B(3,2,4)         =         1.919804	     109.996677
	 B(3,2,5)         =         1.938644	     111.076097
	 B(3,6,7)         =         2.192931	     125.645664
	 B(3,6,8)         =         1.931777	     110.682642
	 B(4,2,5)         =         1.912952	     109.604056
	 B(7,6,8)         =         2.154276	     123.430951
	 D(1,2,3,6)       =        -3.115260	    -178.491268
	*D(2,3,6,7)       =        -0.698132	     -40.000000
	 D(2,3,6,8)       =         2.539476	     145.501265
	 D(4,2,3,6)       =        -1.042827	     -59.749607
	 D(5,2,3,6)       =         1.078202	      61.776398

	Current energy   :      -227.8706676534

	Energy change for the previous step:
		Projected    :        -0.0000003912
		Actual       :        -0.0000002518

	Performing BFGS update.
	Previous computed or guess Hessian on step 1.
	Steps to be used in Hessian update: 5 4
	Taking RFO optimization step.
	Going to follow RFO solution 1.
	Using RFO vector 1.
	Norm of target step-size    0.00237
	Projected energy change by RFO approximation:        -0.0000000013

	Back-transformation to cartesian coordinates...
	Successfully converged to displaced geometry.

	Back-transformation to cartesian coordinates to adjust frozen coordinates...
	Successfully converged to displaced geometry.

	--- Internal Coordinate Step in ANG or DEG, aJ/ANG or AJ/DEG ---
	 ---------------------------------------------------------------------------
	   Coordinate                Previous        Force       Change         New 
	   ----------                --------       ------       ------       ------
	    1 R(1,2)          =      1.077261    -0.000007    -0.000005     1.077256
	    2 R(2,3)          =      1.417572     0.000111     0.000076     1.417648
	    3 R(2,4)          =      1.081481    -0.000056    -0.000018     1.081462
	    4 R(2,5)          =      1.079266     0.000026    -0.000001     1.079265
	    5 R(3,6)          =      1.322080     0.000019     0.000021     1.322102
	    6 R(6,7)          =      1.175685     0.000130    -0.000004     1.175681
	    7 R(6,8)          =      1.086207     0.000066     0.000021     1.086228
	    8 B(1,2,3)        =    106.208363    -0.000003    -0.013860   106.194503
	    9 B(1,2,4)        =    109.782917     0.000001     0.006738   109.789655
	   10 B(1,2,5)        =    110.120770     0.000001     0.005192   110.125962
	   11 B(2,3,6)        =    117.672305    -0.000004    -0.014369   117.657936
	   12 B(3,2,4)        =    109.996677     0.000000     0.000548   109.997225
	   13 B(3,2,5)        =    111.076097    -0.000000    -0.002960   111.073137
	   14 B(3,6,7)        =    125.645664    -0.000000    -0.000939   125.644725
	   15 B(3,6,8)        =    110.682642    -0.000001    -0.003826   110.678815
	   16 B(4,2,5)        =    109.604056     0.000001     0.004028   109.608084
	   17 B(7,6,8)        =    123.430951     0.000001     0.004948   123.435899
	   18 D(1,2,3,6)      =   -178.491268     0.000000     0.075758  -178.415510
	   19 *D(2,3,6,7)     =    -40.000000    -0.000000     0.000000   -40.000000
	   20 D(2,3,6,8)      =    145.501265    -0.000000    -0.002346   145.498919
	   21 D(4,2,3,6)      =    -59.749607     0.000000     0.076102   -59.673505
	   22 D(5,2,3,6)      =     61.776398     0.000000     0.079585    61.855983
	 ---------------------------------------------------------------------------

  ==> Convergence Check <==

  Measures of convergence in internal coordinates in au.
  Criteria marked as inactive (o), active & met (*), and active & unmet ( ).
  ---------------------------------------------------------------------------------------------
   Step     Total Energy     Delta E     MAX Force     RMS Force      MAX Disp      RMS Disp   
  ---------------------------------------------------------------------------------------------
    Convergence Criteria    1.00e-06 *    3.00e-04 *             o    1.20e-03 *             o
  ---------------------------------------------------------------------------------------------
      6    -227.87066765   -2.52e-07 *    5.56e-05 *    1.66e-05 o    1.39e-03      5.06e-04 o  ~
  ---------------------------------------------------------------------------------------------


  **** Optimization is complete! (in 6 steps) ****

  ==> Optimization Summary <==

  Measures of convergence in internal coordinates in au.
  --------------------------------------------------------------------------------------------------------------- ~
   Step         Total Energy             Delta E       MAX Force       RMS Force        MAX Disp        RMS Disp  ~
  --------------------------------------------------------------------------------------------------------------- ~
      1    -227.869395725853   -227.869395725853      0.01414686      0.00544431      0.43666938      0.09610760  ~
      2    -227.863909617715      0.005486108139      0.03880100      0.00866412      0.31718380      0.06876460  ~
      3    -227.870063424775     -0.006153807060      0.01468673      0.00450416      0.04324713      0.01297218  ~
      4    -227.870663967556     -0.000600542781      0.00126630      0.00038759      0.00259692      0.00133083  ~
      5    -227.870667401687     -0.000003434130      0.00030404      0.00008558      0.00253582      0.00094051  ~
      6    -227.870667653445     -0.000000251759      0.00005564      0.00001661      0.00138903      0.00050596  ~
  --------------------------------------------------------------------------------------------------------------- ~

	Writing optimization data to binary file.
	Final energy is   -227.8706676534454
	Final (previous) structure:
	Cartesian Geometry (in Angstrom)
	    H     1.7325588058  -1.6496030478   0.4458275714
	    C     0.7761124228  -1.1705478998   0.5731338345
	    O     0.8169222067   0.0092723152  -0.2116402060
	    H     0.6292526351  -0.9173158866   1.6142419529
	    H    -0.0148050046  -1.8276211273   0.2452326232
	    C    -0.2463367634   0.7948298585  -0.1950160172
	    O    -1.3651698707   0.4336909482  -0.2000850788
	    H     0.0461338270   1.8380019709  -0.2731071680
	Saving final (previous) structure.
			--------------------------
			 OPTKING Finished Execution 
			--------------------------

    Final optimized geometry and variables:
    Molecular point group: c1
    Full point group: C1

    Geometry (in Angstrom), charge = 0, multiplicity = 1:

    H            1.732558673454    -1.649602921813     0.445827537319
    C            0.776112363580    -1.170547810375     0.573133790693
    O            0.816922144304     0.009272314540    -0.211640189868
    H            0.629252587091    -0.917315816580     1.614241829601
    H           -0.014805003484    -1.827620987698     0.245232604442
    C           -0.246336744582     0.794829797794    -0.195016002325
    O           -1.365169766435     0.433690915088    -0.200085063497
    H            0.046133823448     1.838001830572    -0.273107147151

	Cleaning optimization helper files.


Properties will be evaluated at   0.000000,   0.000000,   0.000000 Bohr

Properties computed using the  density matrix

  Nuclear Dipole Moment: (a.u.)
     X:     2.2409      Y:    -2.3945      Z:     1.9031

  Electronic Dipole Moment: (a.u.)
     X:    -1.4146      Y:     2.2828      Z:    -1.4960

  Dipole Moment: (a.u.)
     X:     0.8263      Y:    -0.1117      Z:     0.4071     Total:     0.9279

  Dipole Moment: (Debye)
     X:     2.1002      Y:    -0.2840      Z:     1.0348     Total:     2.3585

  Quadrupole Moment: (Debye Ang)
    XX:   -28.3693     YY:   -19.2431     ZZ:   -22.6105
    XY:    -0.3423     XZ:     0.5240     YZ:    -1.0180

  Traceless Quadrupole Moment: (Debye Ang)
    XX:    -4.9616     YY:     4.1645     ZZ:     0.7971
    XY:    -0.3423     XZ:     0.5240     YZ:    -1.0180

  Mulliken Charges: (a.u.)
   Center  Symbol    Alpha    Beta     Spin     Total
       1     H     0.44489  0.44489  0.00000  0.11021
       2     C     3.02670  3.02670  0.00000 -0.05340
       3     O     4.14730  4.14730  0.00000 -0.29459
       4     H     0.46076  0.46076  0.00000  0.07848
       5     H     0.44807  0.44807  0.00000  0.10386
       6     C     2.83351  2.83351  0.00000  0.33298
       7     O     4.18361  4.18361  0.00000 -0.36721
       8     H     0.45517  0.45517  0.00000  0.08967

   Total alpha = 16.00000, Total beta = 16.00000, Total charge = -0.00000


*** PSI4 exiting successfully. Buy a developer a beer!
