    -----------------------------------------------------------------------
          Psi4: An Open-Source Ab Initio Electronic Structure Package
                              Psi4 (no tag) Driver

                          Git: Rev {detached?}  

    J. M. Turney, A. C. Simmonett, R. M. Parrish, E. G. Hohenstein,
    F. A. Evangelista, J. T. Fermann, B. J. Mintz, L. A. Burns, J. J. Wilke,
    M. L. Abrams, N. J. Russ, M. L. Leininger, C. L. Janssen, E. T. Seidl,
    W. D. Allen, H. F. Schaefer, R. A. King, E. F. Valeev, C. D. Sherrill,
    and T. D. Crawford, WIREs Comput. Mol. Sci. 2, 556-565 (2012)
    (doi: 10.1002/wcms.93)

                         Additional Contributions by
    A. E. DePrince, M. Saitow, U. Bozkaya, A. Yu. Sokolov
    -----------------------------------------------------------------------


    Psi4 started on: Fri Sep  2 11:41:30 2016

    Process ID:   8123
    PSI4DATADIR: /export131/home/mjharvey/miniconda3/share
    Memory level set to 256.000 MB

  ==> Input File <==

--------------------------------------------------------------------------
set {
	reference rhf
	basis 6-31G*
}


set_num_threads( 4 )
memory 2 gb

molecule MOL {
0 1

H	 2.591676	 2.013956	 0.335017
O	 3.341076	 1.666752	 -0.126416
C	 3.569581	 0.339145	 0.272707
C	 2.539767	 -0.640285	 -0.279495
H	 4.553106	 0.084646	 -0.100901
H	 3.608576	 0.269204	 1.359154
C	 1.115811	 -0.397273	 0.226630
H	 2.556196	 -0.582511	 -1.364741
H	 2.852081	 -1.648031	 -0.010655
C	 0.115918	 -1.429151	 -0.302766
H	 0.797950	 0.599468	 -0.066350
H	 1.109961	 -0.420744	 1.316472
C	 -0.358530	 -2.455912	 0.732126
H	 -0.746969	 -0.911370	 -0.717706
H	 0.575850	 -1.963147	 -1.131628
C	 -1.201011	 -1.878893	 1.873070
H	 -0.945041	 -3.214033	 0.217272
H	 0.505137	 -2.973149	 1.147315
C	 -1.738293	 -2.954045	 2.820073
H	 -2.036795	 -1.319689	 1.454899
H	 -0.614643	 -1.166069	 2.447837
C	 -2.574277	 -2.380194	 3.963528
H	 -2.338991	 -3.663645	 2.255168
H	 -0.905108	 -3.520171	 3.231399
H	 -3.434452	 -1.835116	 3.585094
H	 -2.942029	 -3.166493	 4.615547
H	 -1.990453	 -1.693801	 4.570469

	symmetry c1
}
set optking {
	frozen_dihedral = ("
		14 10 7 4
	")
}

ee = optimize('scf')
oeprop('DIPOLE', 'QUADRUPOLE', 'MULLIKEN_CHARGES')
f=open( 'psi4out.xyz', 'w' )
f.write( "27  " )
f.write( str(ee) + "\n" )
f.write( MOL.save_string_xyz() )
f.close()
--------------------------------------------------------------------------

  Memory set to   2.000 GiB by Python script.
gradient() will perform analytic gradient computation.

*** tstart() called on cx1-1-1-4.cx1.hpc.ic.ac.uk
*** at Fri Sep  2 11:41:31 2016


         ---------------------------------------------------------
                                   SCF
            by Justin Turney, Rob Parrish, and Andy Simmonett
                              RHF Reference
                        4 Threads,   2000 MiB Core
         ---------------------------------------------------------

  ==> Geometry <==

    Molecular point group: c1
    Full point group: C1

    Geometry (in Angstrom), charge = 0, multiplicity = 1:

       Center              X                  Y                   Z               Mass       
    ------------   -----------------  -----------------  -----------------  -----------------
           H          2.020819260851     3.091345654179    -0.686786841317     1.007825032070
           O          2.770219260851     2.744141654179    -1.148219841317    15.994914619560
           C          2.998724260851     1.416534654179    -0.749096841317    12.000000000000
           C          1.968910260851     0.437104654179    -1.301298841317    12.000000000000
           H          3.982249260851     1.162035654179    -1.122704841317     1.007825032070
           H          3.037719260851     1.346593654179     0.337350158683     1.007825032070
           C          0.544954260851     0.680116654179    -0.795173841317    12.000000000000
           H          1.985339260851     0.494878654179    -2.386544841317     1.007825032070
           H          2.281224260851    -0.570641345821    -1.032458841317     1.007825032070
           C         -0.454938739149    -0.351761345821    -1.324569841317    12.000000000000
           H          0.227093260851     1.676857654179    -1.088153841317     1.007825032070
           H          0.539104260851     0.656645654179     0.294668158683     1.007825032070
           C         -0.929386739149    -1.378522345821    -0.289677841317    12.000000000000
           H         -1.317825739149     0.166019654179    -1.739509841317     1.007825032070
           H          0.004993260851    -0.885757345821    -2.153431841317     1.007825032070
           C         -1.771867739149    -0.801503345821     0.851266158683    12.000000000000
           H         -1.515897739149    -2.136643345821    -0.804531841317     1.007825032070
           H         -0.065719739149    -1.895759345821     0.125511158683     1.007825032070
           C         -2.309149739149    -1.876655345821     1.798269158683    12.000000000000
           H         -2.607651739149    -0.242299345821     0.433095158683     1.007825032070
           H         -1.185499739149    -0.088679345821     1.426033158683     1.007825032070
           C         -3.145133739149    -1.302804345821     2.941724158683    12.000000000000
           H         -2.909847739149    -2.586255345821     1.233364158683     1.007825032070
           H         -1.475964739149    -2.442781345821     2.209595158683     1.007825032070
           H         -4.005308739149    -0.757726345821     2.563290158683     1.007825032070
           H         -3.512885739149    -2.089103345821     3.593743158683     1.007825032070
           H         -2.561309739149    -0.616411345821     3.548665158683     1.007825032070

  Running in c1 symmetry.

  Rotational constants: A =      0.11281  B =      0.01559  C =      0.01466 [cm^-1]
  Rotational constants: A =   3381.90689  B =    467.25170  C =    439.41001 [MHz]
  Nuclear repulsion =  460.731497170555485

  Charge       = 0
  Multiplicity = 1
  Electrons    = 74
  Nalpha       = 37
  Nbeta        = 37

  ==> Algorithm <==

  SCF Algorithm Type is DF.
  DIIS enabled.
  MOM disabled.
  Fractional occupation disabled.
  Guess Type is CORE.
  Energy threshold   = 1.00e-08
  Density threshold  = 1.00e-08
  Integral threshold = 0.00e+00

  ==> Primary Basis <==

  Basis Set: 6-31G*
    Number of shells: 90
    Number of basis function: 171
    Number of Cartesian functions: 171
    Spherical Harmonics?: false
    Max angular momentum: 2

  ==> Pre-Iterations <==

   -------------------------------------------------------
    Irrep   Nso     Nmo     Nalpha   Nbeta   Ndocc  Nsocc
   -------------------------------------------------------
     A        171     171       0       0       0       0
   -------------------------------------------------------
    Total     171     171      37      37      37       0
   -------------------------------------------------------

 OEINTS: Overlap, kinetic, potential, dipole, and quadrupole integrals
         stored in file 35.

  ==> Integral Setup <==

  ==> DFJK: Density-Fitted J/K Matrices <==

    J tasked:                  Yes
    K tasked:                  Yes
    wK tasked:                  No
    OpenMP threads:              4
    Integrals threads:           4
    Memory (MB):              1430
    Algorithm:                Core
    Integral Cache:           NONE
    Schwarz Cutoff:          1E-12
    Fitting Condition:       1E-12

   => Auxiliary Basis Set <=

  Basis Set: 
    Number of shells: 378
    Number of basis function: 1179
    Number of Cartesian functions: 1179
    Spherical Harmonics?: false
    Max angular momentum: 3

  Minimum eigenvalue in the overlap matrix is 3.5129788780E-03.
  Using Symmetric Orthogonalization.
  SCF Guess: Core (One-Electron) Hamiltonian.

  ==> Iterations <==

                           Total Energy        Delta E     RMS |[F,P]|

   @DF-RHF iter   1:  -287.53246241630677   -2.87532e+02   5.85059e-02 
   @DF-RHF iter   2:    12.55537079965598    3.00088e+02   6.59701e-02 DIIS
   @DF-RHF iter   3:  -252.12988834057126   -2.64685e+02   5.00974e-02 DIIS
   @DF-RHF iter   4:  -236.45965436269807    1.56702e+01   6.39761e-02 DIIS
   @DF-RHF iter   5:  -374.89573285275060   -1.38436e+02   1.71584e-02 DIIS
   @DF-RHF iter   6:  -322.06016614922896    5.28356e+01   4.23756e-02 DIIS
   @DF-RHF iter   7:  -384.91071116632406   -6.28505e+01   9.94631e-03 DIIS
   @DF-RHF iter   8:  -388.14831872971502   -3.23761e+00   2.96742e-03 DIIS
   @DF-RHF iter   9:  -388.26252507108893   -1.14206e-01   8.95278e-04 DIIS
   @DF-RHF iter  10:  -388.27461744936363   -1.20924e-02   2.72596e-04 DIIS
   @DF-RHF iter  11:  -388.27589302190154   -1.27557e-03   1.48399e-04 DIIS
   @DF-RHF iter  12:  -388.27632944205186   -4.36420e-04   5.82658e-05 DIIS
   @DF-RHF iter  13:  -388.27640697591983   -7.75339e-05   1.97434e-05 DIIS
   @DF-RHF iter  14:  -388.27641673726112   -9.76134e-06   5.28826e-06 DIIS
   @DF-RHF iter  15:  -388.27641752037084   -7.83110e-07   9.10711e-07 DIIS
   @DF-RHF iter  16:  -388.27641754742376   -2.70529e-08   3.08526e-07 DIIS
   @DF-RHF iter  17:  -388.27641755026298   -2.83922e-09   6.31222e-08 DIIS
   @DF-RHF iter  18:  -388.27641755039190   -1.28921e-10   1.55806e-08 DIIS
   @DF-RHF iter  19:  -388.27641755039997   -8.07177e-12   3.69578e-09 DIIS

  ==> Post-Iterations <==

    Orbital Energies (a.u.)
    -----------------------

    Doubly Occupied:                                                      

       1A    -20.552061     2A    -11.266540     3A    -11.218349  
       4A    -11.216778     5A    -11.216476     6A    -11.215646  
       7A    -11.215297     8A    -11.214935     9A    -11.210096  
      10A     -1.358774    11A     -1.096035    12A     -1.061577  
      13A     -1.010845    14A     -0.949058    15A     -0.887904  
      16A     -0.823741    17A     -0.803500    18A     -0.773273  
      19A     -0.693052    20A     -0.657412    21A     -0.630809  
      22A     -0.616478    23A     -0.600879    24A     -0.584976  
      25A     -0.580082    26A     -0.551137    27A     -0.544381  
      28A     -0.529809    29A     -0.504361    30A     -0.503653  
      31A     -0.483896    32A     -0.474929    33A     -0.464066  
      34A     -0.456817    35A     -0.451900    36A     -0.442633  
      37A     -0.423069  

    Virtual:                                                              

      38A      0.216905    39A      0.233370    40A      0.246108  
      41A      0.252470    42A      0.265476    43A      0.277585  
      44A      0.285574    45A      0.302168    46A      0.310607  
      47A      0.313265    48A      0.321501    49A      0.328926  
      50A      0.337784    51A      0.343178    52A      0.354410  
      53A      0.360593    54A      0.366052    55A      0.388443  
      56A      0.409535    57A      0.413808    58A      0.423689  
      59A      0.431611    60A      0.457078    61A      0.470656  
      62A      0.474982    63A      0.501627    64A      0.696755  
      65A      0.706702    66A      0.712788    67A      0.734974  
      68A      0.752822    69A      0.765359    70A      0.793063  
      71A      0.796321    72A      0.821402    73A      0.824572  
      74A      0.858642    75A      0.908454    76A      0.924581  
      77A      0.927208    78A      0.940285    79A      0.959860  
      80A      0.968454    81A      1.002448    82A      1.024003  
      83A      1.055893    84A      1.083271    85A      1.096647  
      86A      1.113828    87A      1.127217    88A      1.141765  
      89A      1.150954    90A      1.160484    91A      1.169216  
      92A      1.174758    93A      1.180349    94A      1.186135  
      95A      1.195583    96A      1.206283    97A      1.214994  
      98A      1.218419    99A      1.224864   100A      1.228845  
     101A      1.244774   102A      1.263972   103A      1.270208  
     104A      1.288073   105A      1.299949   106A      1.327333  
     107A      1.337982   108A      1.394289   109A      1.427773  
     110A      1.481261   111A      1.569651   112A      1.636814  
     113A      1.676292   114A      1.713275   115A      1.741584  
     116A      1.755504   117A      1.782216   118A      1.848270  
     119A      1.853505   120A      1.902889   121A      1.969820  
     122A      1.999339   123A      2.005672   124A      2.074819  
     125A      2.092936   126A      2.128013   127A      2.143115  
     128A      2.172583   129A      2.202467   130A      2.235191  
     131A      2.254493   132A      2.282941   133A      2.289219  
     134A      2.303052   135A      2.307947   136A      2.334537  
     137A      2.384950   138A      2.388832   139A      2.462862  
     140A      2.468201   141A      2.492458   142A      2.566880  
     143A      2.607415   144A      2.622391   145A      2.626457  
     146A      2.673727   147A      2.706551   148A      2.718149  
     149A      2.737154   150A      2.742347   151A      2.762415  
     152A      2.804925   153A      2.842573   154A      2.885266  
     155A      2.929756   156A      2.963289   157A      2.988382  
     158A      3.062282   159A      3.106239   160A      3.117715  
     161A      3.168571   162A      3.219036   163A      4.186043  
     164A      4.547016   165A      4.605135   166A      4.680390  
     167A      4.769578   168A      4.815642   169A      4.884956  
     170A      4.985762   171A      5.004740  

    Final Occupation by Irrep:
              A 
    DOCC [    37 ]

  Energy converged.

  @DF-RHF Final Energy:  -388.27641755039997

   => Energetics <=

    Nuclear Repulsion Energy =            460.7314971705554854
    One-Electron Energy =               -1439.4453767507457087
    Two-Electron Energy =                 590.4374620297902538
    DFT Exchange-Correlation Energy =       0.0000000000000000
    Empirical Dispersion Energy =           0.0000000000000000
    PCM Polarization Energy =               0.0000000000000000
    EFP Energy =                            0.0000000000000000
    Total Energy =                       -388.2764175503999695

    Alert: EFP and PCM quantities not currently incorporated into SCF psivars.

Properties will be evaluated at   0.000000,   0.000000,   0.000000 Bohr
  ==> Properties <==


Properties computed using the SCF density matrix

  Nuclear Dipole Moment: (a.u.)
     X:    -6.6234      Y:    -5.3470      Z:     4.4486

  Electronic Dipole Moment: (a.u.)
     X:     6.1684      Y:     4.9321      Z:    -4.0261

  Dipole Moment: (a.u.)
     X:    -0.4550      Y:    -0.4149      Z:     0.4225     Total:     0.7467

  Dipole Moment: (Debye)
     X:    -1.1565      Y:    -1.0545      Z:     1.0738     Total:     1.8980


  Saving occupied orbitals to File 180.

*** tstop() called on cx1-1-1-4.cx1.hpc.ic.ac.uk at Fri Sep  2 11:41:44 2016
Module time:
	user time   =      41.76 seconds =       0.70 minutes
	system time =       0.55 seconds =       0.01 minutes
	total time  =         13 seconds =       0.22 minutes
Total time:
	user time   =      41.76 seconds =       0.70 minutes
	system time =       0.55 seconds =       0.01 minutes
	total time  =         13 seconds =       0.22 minutes

*** tstart() called on cx1-1-1-4.cx1.hpc.ic.ac.uk
*** at Fri Sep  2 11:41:44 2016


         ------------------------------------------------------------
                                   SCF GRAD                          
                          Rob Parrish, Justin Turney,                
                       Andy Simmonett, and Alex Sokolov              
         ------------------------------------------------------------

  ==> Geometry <==

    Molecular point group: c1
    Full point group: C1

    Geometry (in Angstrom), charge = 0, multiplicity = 1:

       Center              X                  Y                   Z               Mass       
    ------------   -----------------  -----------------  -----------------  -----------------
           H          2.020819260851     3.091345654179    -0.686786841317     1.007825032070
           O          2.770219260851     2.744141654179    -1.148219841317    15.994914619560
           C          2.998724260851     1.416534654179    -0.749096841317    12.000000000000
           C          1.968910260851     0.437104654179    -1.301298841317    12.000000000000
           H          3.982249260851     1.162035654179    -1.122704841317     1.007825032070
           H          3.037719260851     1.346593654179     0.337350158683     1.007825032070
           C          0.544954260851     0.680116654179    -0.795173841317    12.000000000000
           H          1.985339260851     0.494878654179    -2.386544841317     1.007825032070
           H          2.281224260851    -0.570641345821    -1.032458841317     1.007825032070
           C         -0.454938739149    -0.351761345821    -1.324569841317    12.000000000000
           H          0.227093260851     1.676857654179    -1.088153841317     1.007825032070
           H          0.539104260851     0.656645654179     0.294668158683     1.007825032070
           C         -0.929386739149    -1.378522345821    -0.289677841317    12.000000000000
           H         -1.317825739149     0.166019654179    -1.739509841317     1.007825032070
           H          0.004993260851    -0.885757345821    -2.153431841317     1.007825032070
           C         -1.771867739149    -0.801503345821     0.851266158683    12.000000000000
           H         -1.515897739149    -2.136643345821    -0.804531841317     1.007825032070
           H         -0.065719739149    -1.895759345821     0.125511158683     1.007825032070
           C         -2.309149739149    -1.876655345821     1.798269158683    12.000000000000
           H         -2.607651739149    -0.242299345821     0.433095158683     1.007825032070
           H         -1.185499739149    -0.088679345821     1.426033158683     1.007825032070
           C         -3.145133739149    -1.302804345821     2.941724158683    12.000000000000
           H         -2.909847739149    -2.586255345821     1.233364158683     1.007825032070
           H         -1.475964739149    -2.442781345821     2.209595158683     1.007825032070
           H         -4.005308739149    -0.757726345821     2.563290158683     1.007825032070
           H         -3.512885739149    -2.089103345821     3.593743158683     1.007825032070
           H         -2.561309739149    -0.616411345821     3.548665158683     1.007825032070

  Nuclear repulsion =  460.731497170555429

  ==> Basis Set <==

  Basis Set: 6-31G*
    Number of shells: 90
    Number of basis function: 171
    Number of Cartesian functions: 171
    Spherical Harmonics?: false
    Max angular momentum: 2

  ==> DFJKGrad: Density-Fitted SCF Gradients <==

    Gradient:                    1
    J tasked:                  Yes
    K tasked:                  Yes
    wK tasked:                  No
    OpenMP threads:              4
    Integrals threads:           4
    Memory (MB):              1430
    Schwarz Cutoff:          0E+00
    Fitting Condition:       1E-12

   => Auxiliary Basis Set <=

  Basis Set: 
    Number of shells: 378
    Number of basis function: 1179
    Number of Cartesian functions: 1179
    Spherical Harmonics?: false
    Max angular momentum: 3


  -Total Gradient:
     Atom            X                  Y                   Z
    ------   -----------------  -----------------  -----------------
       1        0.000037182312     0.000029726700     0.000005066268
       2        0.000033976457     0.000042834578     0.000072789926
       3       -0.000212747438     0.000393493787    -0.000070352001
       4       -0.001660562089    -0.001338199974    -0.001695233750
       5       -0.000093830861    -0.000099487332    -0.000008678131
       6       -0.000061471976     0.000000384166    -0.000047277289
       7       -0.003940359885    -0.002064168990    -0.003799929597
       8        0.000374901736    -0.000108801204    -0.000160711227
       9        0.000094016110     0.000336563289     0.000028732783
      10        0.004798584646     0.001544705957     0.003652478071
      11       -0.000734113503    -0.000133782110    -0.000481293553
      12       -0.002176140519    -0.002690398942     0.002123855397
      13        0.000096369862     0.001137597580     0.000866500072
      14        0.000621813967     0.002688897403    -0.000668787794
      15        0.002359805476     0.000009408195     0.000229866509
      16        0.000347178393    -0.000068030023     0.000473937262
      17       -0.000138032235     0.000182356867    -0.000133728815
      18       -0.000232755382     0.000092513204    -0.000317250836
      19       -0.000080084661     0.000098786276    -0.000046714013
      20        0.000039649298     0.000102854958     0.000055111124
      21        0.000554956914    -0.000121075386    -0.000036770959
      22       -0.000017232080    -0.000014215953     0.000001820055
      23       -0.000023732652    -0.000032993567    -0.000039693235
      24        0.000010911585     0.000013078803    -0.000020797381
      25        0.000011741632     0.000007109323     0.000006334285
      26       -0.000002878117    -0.000008708451     0.000019455838
      27       -0.000007146991    -0.000000449164    -0.000008729006


*** tstop() called on cx1-1-1-4.cx1.hpc.ic.ac.uk at Fri Sep  2 11:41:56 2016
Module time:
	user time   =      43.72 seconds =       0.73 minutes
	system time =       0.29 seconds =       0.00 minutes
	total time  =         12 seconds =       0.20 minutes
Total time:
	user time   =      85.50 seconds =       1.43 minutes
	system time =       0.84 seconds =       0.01 minutes
	total time  =         25 seconds =       0.42 minutes
CURRENT ENERGY: -388.2764175504

			-----------------------------------------
			 OPTKING 2.0: for geometry optimizations 
			  - R.A. King,  Bethel University        
			-----------------------------------------

	Internal coordinates to be generated automatically.
	Detected frag with atoms:  1 2 3 4 5 6 7 8 9 10 11 12 13 14 15 16 17 18 19 20
	 21 22 23 24 25 26 27
	---Fragment 1 Bond Connectivity---
	 1 : 2
	 2 : 1 3
	 3 : 2 4 5 6
	 4 : 3 7 8 9
	 5 : 3
	 6 : 3
	 7 : 4 10 11 12
	 8 : 4
	 9 : 4
	 10 : 7 13 14 15
	 11 : 7
	 12 : 7
	 13 : 10 16 17 18
	 14 : 10
	 15 : 10
	 16 : 13 19 20 21
	 17 : 13
	 18 : 13
	 19 : 16 22 23 24
	 20 : 16
	 21 : 16
	 22 : 19 25 26 27
	 23 : 19
	 24 : 19
	 25 : 22
	 26 : 22
	 27 : 22

	Assuming in current code that numbering for constraints corresponds to unified fragment.
	Frozen dihedral atom list: 
	    14    10     7     4
	---Fragment 1 Geometry and Gradient---
	 H           3.8187949671        5.8417966685       -1.2978390418
	 O           5.2349557311        5.1856761962       -2.1698210404
	 C           5.6667676010        2.6768625541       -1.4155878771
	 C           3.7207011732        0.8260080878       -2.4590984271
	 H           7.5253604959        2.1959291430       -2.1216046782
	 H           5.7404574716        2.5446932187        0.6374994108
	 C           1.0298143080        1.2852342148       -1.5026607881
	 H           3.7517474839        0.9351851254       -4.5099161539
	 H           4.3108891007       -1.0783558637       -1.9510644536
	 C          -0.8597096242       -0.6647326077       -2.5030742440
	 H           0.4291440696        3.1688017302       -2.0563127505
	 H           1.0187594101        1.2408804527        0.5568421200
	 C          -1.7562864085       -2.6050297017       -0.5474117869
	 H          -2.4903297379        0.3137316791       -3.2871972055
	 H           0.0094358955       -1.6738388038       -4.0693964259
	 C          -3.3483447707       -1.5146218182        1.6086599061
	 H          -2.8646315725       -4.0376707673       -1.5203448453
	 H          -0.1241923085       -3.5824659775        0.2371817165
	 C          -4.3636606068       -3.5463646494        3.3982362231
	 H          -4.9277476369       -0.4578794058        0.8184312394
	 H          -2.2402698376       -0.1675796772        2.6948121263
	 C          -5.9434414183       -2.4619434183        5.5590530184
	 H          -5.4988153154       -4.8873143133        2.3307204820
	 H          -2.7891691388       -4.6161877461        4.1755297145
	 H          -7.5689365946       -1.4318952773        4.8439163990
	 H          -6.6383919831       -3.9478331869        6.7911903618
	 H          -4.8401739485       -1.1648486288        6.7060052872
	             0.0000371823        0.0000297267        0.0000050663
	             0.0000339765        0.0000428346        0.0000727899
	            -0.0002127474        0.0003934938       -0.0000703520
	            -0.0016605621       -0.0013382000       -0.0016952337
	            -0.0000938309       -0.0000994873       -0.0000086781
	            -0.0000614720        0.0000003842       -0.0000472773
	            -0.0039403599       -0.0020641690       -0.0037999296
	             0.0003749017       -0.0001088012       -0.0001607112
	             0.0000940161        0.0003365633        0.0000287328
	             0.0047985846        0.0015447060        0.0036524781
	            -0.0007341135       -0.0001337821       -0.0004812936
	            -0.0021761405       -0.0026903989        0.0021238554
	             0.0000963699        0.0011375976        0.0008665001
	             0.0006218140        0.0026888974       -0.0006687878
	             0.0023598055        0.0000094082        0.0002298665
	             0.0003471784       -0.0000680300        0.0004739373
	            -0.0001380322        0.0001823569       -0.0001337288
	            -0.0002327554        0.0000925132       -0.0003172508
	            -0.0000800847        0.0000987863       -0.0000467140
	             0.0000396493        0.0001028550        0.0000551111
	             0.0005549569       -0.0001210754       -0.0000367710
	            -0.0000172321       -0.0000142160        0.0000018201
	            -0.0000237327       -0.0000329936       -0.0000396932
	             0.0000109116        0.0000130788       -0.0000207974
	             0.0000117416        0.0000071093        0.0000063343
	            -0.0000028781       -0.0000087085        0.0000194558
	            -0.0000071470       -0.0000004492       -0.0000087290

	Previous optimization step data not found.  Starting new optimization.

	---Fragment 1 Intrafragment Coordinates---
	 - Coordinate -           - BOHR/RAD -       - ANG/DEG -
	 R(1,2)           =         1.787836	       0.946082
	 R(2,3)           =         2.655085	       1.405010
	 R(3,4)           =         2.881276	       1.524706
	 R(3,5)           =         2.045513	       1.082439
	 R(3,6)           =         2.058656	       1.089394
	 R(4,7)           =         2.892496	       1.530643
	 R(4,8)           =         2.053956	       1.086907
	 R(4,9)           =         2.057431	       1.088746
	 R(7,10)          =         2.893700	       1.531280
	 R(7,11)          =         2.053086	       1.086446
	 R(7,12)          =         2.060010	       1.090110
	 R(10,13)         =         2.897105	       1.533082
	 R(10,14)         =         2.056979	       1.088507
	 R(10,15)         =         2.055985	       1.087981
	 R(13,16)         =         2.893490	       1.531169
	 R(13,17)         =         2.056086	       1.088034
	 R(13,18)         =         2.057839	       1.088961
	 R(16,19)         =         2.891613	       1.530176
	 R(16,20)         =         2.058077	       1.089087
	 R(16,21)         =         2.054770	       1.087337
	 R(19,22)         =         2.888045	       1.528288
	 R(19,23)         =         2.055800	       1.087882
	 R(19,24)         =         2.056144	       1.088065
	 R(22,25)         =         2.052962	       1.086381
	 R(22,26)         =         2.051582	       1.085650
	 R(22,27)         =         2.053084	       1.086445
	 B(1,2,3)         =         1.914577	     109.697160
	 B(2,3,4)         =         1.976053	     113.219525
	 B(2,3,5)         =         1.846152	     105.776719
	 B(2,3,6)         =         1.928142	     110.474417
	 B(3,4,7)         =         1.989525	     113.991388
	 B(3,4,8)         =         1.893637	     108.497419
	 B(3,4,9)         =         1.887467	     108.143920
	 B(4,3,5)         =         1.915228	     109.734464
	 B(4,3,6)         =         1.922103	     110.128394
	 B(4,7,10)        =         1.967264	     112.715931
	 B(4,7,11)        =         1.905685	     109.187708
	 B(4,7,12)        =         1.909383	     109.399586
	 B(5,3,6)         =         1.871928	     107.253573
	 B(7,4,8)         =         1.913229	     109.619925
	 B(7,4,9)         =         1.909396	     109.400326
	 B(7,10,13)       =         2.004260	     114.835635
	 B(7,10,14)       =         1.905911	     109.200648
	 B(7,10,15)       =         1.894506	     108.547216
	 B(8,4,9)         =         1.866500	     106.942573
	 B(10,7,11)       =         1.911293	     109.509016
	 B(10,7,12)       =         1.904583	     109.124567
	 B(10,13,16)      =         2.005225	     114.890958
	 B(10,13,17)      =         1.890259	     108.303844
	 B(10,13,18)      =         1.907141	     109.271152
	 B(11,7,12)       =         1.862709	     106.725384
	 B(13,10,14)      =         1.907713	     109.303929
	 B(13,10,15)      =         1.892707	     108.444143
	 B(13,16,19)      =         1.970960	     112.927694
	 B(13,16,20)      =         1.906715	     109.246702
	 B(13,16,21)      =         1.922201	     110.134010
	 B(14,10,15)      =         1.852689	     106.151262
	 B(16,13,17)      =         1.895029	     108.577173
	 B(16,13,18)      =         1.908456	     109.346497
	 B(16,19,22)      =         1.972823	     113.034431
	 B(16,19,23)      =         1.907972	     109.318750
	 B(16,19,24)      =         1.907810	     109.309467
	 B(17,13,18)      =         1.851455	     106.080569
	 B(19,16,20)      =         1.905984	     109.204811
	 B(19,16,21)      =         1.899516	     108.834261
	 B(19,22,25)      =         1.940004	     111.154022
	 B(19,22,26)      =         1.941949	     111.265510
	 B(19,22,27)      =         1.940411	     111.177340
	 B(20,16,21)      =         1.854798	     106.272118
	 B(22,19,23)      =         1.908577	     109.353387
	 B(22,19,24)      =         1.908578	     109.353457
	 B(23,19,24)      =         1.854324	     106.244951
	 B(25,22,26)      =         1.880097	     107.721611
	 B(25,22,27)      =         1.878734	     107.643551
	 B(26,22,27)      =         1.879781	     107.703501
	 D(1,2,3,4)       =         1.271027	      72.824501
	 D(1,2,3,5)       =        -2.914280	    -166.975951
	 D(1,2,3,6)       =        -0.894016	     -51.223364
	 D(2,3,4,7)       =        -1.117499	     -64.027957
	 D(2,3,4,8)       =         1.019513	      58.413809
	 D(2,3,4,9)       =         3.038125	     174.071719
	 D(3,4,7,10)      =        -3.102764	    -177.775309
	 D(3,4,7,11)      =         1.052182	      60.285610
	 D(3,4,7,12)      =        -0.980458	     -56.176119
	 D(4,7,10,13)     =         1.864802	     106.845260
	*D(4,7,10,14)     =        -2.268929	    -130.000035
	 D(4,7,10,15)     =        -0.256364	     -14.688581
	 D(5,3,4,7)       =         3.107626	     178.053858
	 D(5,3,4,8)       =        -1.038547	     -59.504375
	 D(5,3,4,9)       =         0.980064	      56.153534
	 D(6,3,4,7)       =         1.050840	      60.208675
	 D(6,3,4,8)       =        -3.095334	    -177.349559
	 D(6,3,4,9)       =        -1.076722	     -61.691649
	 D(7,10,13,16)    =         1.159583	      66.439226
	 D(7,10,13,17)    =        -3.001961	    -171.999721
	 D(7,10,13,18)    =        -0.992509	     -56.866586
	 D(8,4,7,10)      =         1.054185	      60.400347
	 D(8,4,7,11)      =        -1.074054	     -61.538735
	 D(8,4,7,12)      =        -3.106694	    -178.000464
	 D(9,4,7,10)      =        -0.987340	     -56.570426
	 D(9,4,7,11)      =        -3.115579	    -178.509507
	 D(9,4,7,12)      =         1.134966	      65.028764
	 D(10,13,16,19)   =         3.065804	     175.657658
	 D(10,13,16,20)   =         0.941126	      53.922527
	 D(10,13,16,21)   =        -1.089852	     -62.443948
	 D(11,7,10,13)    =        -2.293315	    -131.397286
	 D(11,7,10,14)    =        -0.143860	      -8.242581
	 D(11,7,10,15)    =         1.868704	     107.068873
	 D(12,7,10,13)    =        -0.260223	     -14.909678
	 D(12,7,10,14)    =         1.889232	     108.245027
	 D(12,7,10,15)    =        -2.381389	    -136.443519
	 D(13,16,19,22)   =         3.136984	     179.735931
	 D(13,16,19,23)   =        -1.016044	     -58.215034
	 D(13,16,19,24)   =         1.006942	      57.693499
	 D(14,10,13,16)   =        -0.988907	     -56.660202
	 D(14,10,13,17)   =         1.132734	      64.900851
	 D(14,10,13,18)   =        -3.140999	    -179.966014
	 D(15,10,13,16)   =        -3.001457	    -171.970805
	 D(15,10,13,17)   =        -0.879816	     -50.409752
	 D(15,10,13,18)   =         1.129636	      64.723383
	 D(16,19,22,25)   =         1.044254	      59.831367
	 D(16,19,22,26)   =         3.139610	     179.886405
	 D(16,19,22,27)   =        -1.048346	     -60.065781
	 D(17,13,16,19)   =         0.946761	      54.245409
	 D(17,13,16,20)   =        -1.177918	     -67.489723
	 D(17,13,16,21)   =         3.074289	     176.143802
	 D(18,13,16,19)   =        -1.065990	     -61.076739
	 D(18,13,16,20)   =         3.092516	     177.188129
	 D(18,13,16,21)   =         1.061538	      60.821654
	 D(20,16,19,22)   =        -1.021111	     -58.505327
	 D(20,16,19,23)   =         1.109047	      63.543708
	 D(20,16,19,24)   =         3.132032	     179.452242
	 D(21,16,19,22)   =         0.996741	      57.109037
	 D(21,16,19,23)   =         3.126898	     179.158073
	 D(21,16,19,24)   =        -1.133302	     -64.933394
	 D(23,19,22,25)   =        -1.085564	     -62.198247
	 D(23,19,22,26)   =         1.009791	      57.856791
	 D(23,19,22,27)   =         3.105021	     177.904605
	 D(24,19,22,25)   =        -3.109319	    -178.150870
	 D(24,19,22,26)   =        -1.013964	     -58.095831
	 D(24,19,22,27)   =         1.081266	      61.951982

	Current energy   :      -388.2764175504

	Generating empirical Hessian (Schlegel '84) for each fragment.
	Taking RFO optimization step.
	Going to follow RFO solution 1.
	Using RFO vector 1.

	Determining step-restricting scale parameter for RS-RFO.
	Maximum step size allowed    0.50000

	 Iter      |step|        alpha        rfo_root  
	------------------------------------------------
	    0     0.63348       1.00000           1
	    1     0.52812       1.39925           1
	    2     0.50178       1.53356           1
	    3     0.50001       1.54327           1
	------------------------------------------------
	Norm of target step-size    0.50001
	Projected energy change by RFO approximation:         0.0011421656

	Back-transformation to cartesian coordinates...
	Successfully converged to displaced geometry.

	Back-transformation to cartesian coordinates to adjust frozen coordinates...
	Successfully converged to displaced geometry.

	--- Internal Coordinate Step in ANG or DEG, aJ/ANG or AJ/DEG ---
	 ---------------------------------------------------------------------------
	   Coordinate                Previous        Force       Change         New 
	   ----------                --------       ------       ------       ------
	    1 R(1,2)          =      0.946082     0.000132     0.000014     0.946097
	    2 R(2,3)          =      1.405010    -0.000287    -0.000041     1.404969
	    3 R(3,4)          =      1.524706    -0.000145    -0.000031     1.524675
	    4 R(3,5)          =      1.082439     0.000485     0.000087     1.082526
	    5 R(3,6)          =      1.089394     0.000407     0.000074     1.089469
	    6 R(4,7)          =      1.530643     0.005327     0.001155     1.531798
	    7 R(4,8)          =      1.086907    -0.001321    -0.000240     1.086667
	    8 R(4,9)          =      1.088746     0.002286     0.000417     1.089163
	    9 R(7,10)         =      1.531280     0.087616     0.019038     1.550318
	   10 R(7,11)         =      1.086446    -0.001828    -0.000331     1.086116
	   11 R(7,12)         =      1.090110    -0.018067    -0.003310     1.086800
	   12 R(10,13)        =      1.533082     0.004531     0.000990     1.534072
	   13 R(10,14)        =      1.088507    -0.008577    -0.001563     1.086943
	   14 R(10,15)        =      1.087981    -0.006738    -0.001226     1.086755
	   15 R(13,16)        =      1.531169     0.001371     0.000298     1.531467
	   16 R(13,17)        =      1.088034    -0.000088    -0.000016     1.088018
	   17 R(13,18)        =      1.088961     0.002879     0.000526     1.089487
	   18 R(16,19)        =      1.530176     0.000499     0.000108     1.530284
	   19 R(16,20)        =      1.089087    -0.000010    -0.000002     1.089085
	   20 R(16,21)        =      1.087337    -0.001652    -0.000300     1.087038
	   21 R(19,22)        =      1.528288    -0.000136    -0.000029     1.528259
	   22 R(19,23)        =      1.087882    -0.000455    -0.000083     1.087800
	   23 R(19,24)        =      1.088065     0.000052     0.000009     1.088074
	   24 R(22,25)        =      1.086381     0.000065     0.000012     1.086393
	   25 R(22,26)        =      1.085650    -0.000156    -0.000028     1.085622
	   26 R(22,27)        =      1.086445     0.000074     0.000013     1.086459
	   27 B(1,2,3)        =    109.697160    -0.000004    -0.017417   109.679743
	   28 B(2,3,4)        =    113.219525    -0.000023    -0.082747   113.136778
	   29 B(2,3,5)        =    105.776719     0.000001    -0.021576   105.755143
	   30 B(2,3,6)        =    110.474417     0.000007     0.011452   110.485869
	   31 B(3,4,7)        =    113.991388     0.000053     0.189862   114.181250
	   32 B(3,4,8)        =    108.497419     0.000004     0.090725   108.588144
	   33 B(3,4,9)        =    108.143920    -0.000013     0.016336   108.160256
	   34 B(4,3,5)        =    109.734464     0.000015     0.074804   109.809268
	   35 B(4,3,6)        =    110.128394     0.000007     0.028709   110.157103
	   36 B(4,7,10)       =    112.715931     0.000105     0.544955   113.260886
	   37 B(4,7,11)       =    109.187708    -0.000052    -0.636663   108.551044
	   38 B(4,7,12)       =    109.399586    -0.000153    -0.780910   108.618676
	   39 B(5,3,6)        =    107.253573    -0.000006    -0.007899   107.245674
	   40 B(7,4,8)        =    109.619925    -0.000039    -0.233602   109.386323
	   41 B(7,4,9)        =    109.400326    -0.000017    -0.070983   109.329344
	   42 B(7,10,13)      =    114.835635     0.000102     0.597863   115.433498
	   43 B(7,10,14)      =    109.200648     0.000124     1.444470   110.645119
	   44 B(7,10,15)      =    108.547216    -0.000002     0.038458   108.585674
	   45 B(8,4,9)        =    106.942573     0.000011     0.000998   106.943571
	   46 B(10,7,11)      =    109.509016    -0.000024    -0.012756   109.496259
	   47 B(10,7,12)      =    109.124567     0.000147     1.540814   110.665381
	   48 B(10,13,16)     =    114.890958    -0.000008    -0.019458   114.871499
	   49 B(10,13,17)     =    108.303844     0.000023    -0.031481   108.272363
	   50 B(10,13,18)     =    109.271152    -0.000006     0.151757   109.422909
	   51 B(11,7,12)      =    106.725384    -0.000031    -0.756561   105.968822
	   52 B(13,10,14)     =    109.303929    -0.000116    -0.415437   108.888492
	   53 B(13,10,15)     =    108.444143    -0.000067    -0.770838   107.673305
	   54 B(13,16,19)     =    112.927694    -0.000014    -0.032149   112.895545
	   55 B(13,16,20)     =    109.246702    -0.000008    -0.098987   109.147715
	   56 B(13,16,21)     =    110.134010     0.000033     0.275886   110.409896
	   57 B(14,10,15)     =    106.151262    -0.000054    -1.084169   105.067093
	   58 B(16,13,17)     =    108.577173    -0.000039    -0.432096   108.145077
	   59 B(16,13,18)     =    109.346497     0.000034     0.356519   109.703016
	   60 B(16,19,22)     =    113.034431    -0.000004    -0.014013   113.020419
	   61 B(16,19,23)     =    109.318750     0.000002     0.006026   109.324776
	   62 B(16,19,24)     =    109.309467     0.000003     0.016632   109.326100
	   63 B(17,13,18)     =    106.080569    -0.000004    -0.039582   106.040987
	   64 B(19,16,20)     =    109.204811     0.000010    -0.027390   109.177421
	   65 B(19,16,21)     =    108.834261    -0.000013    -0.040241   108.794020
	   66 B(19,22,25)     =    111.154022    -0.000000    -0.001733   111.152289
	   67 B(19,22,26)     =    111.265510    -0.000001    -0.005942   111.259568
	   68 B(19,22,27)     =    111.177340     0.000000     0.003919   111.181259
	   69 B(20,16,21)     =    106.272118    -0.000008    -0.082271   106.189848
	   70 B(22,19,23)     =    109.353387     0.000001    -0.004531   109.348857
	   71 B(22,19,24)     =    109.353457     0.000000    -0.003937   109.349521
	   72 B(23,19,24)     =    106.244951    -0.000001     0.000729   106.245680
	   73 B(25,22,26)     =    107.721611     0.000000    -0.004067   107.717544
	   74 B(25,22,27)     =    107.643551     0.000001     0.006454   107.650005
	   75 B(26,22,27)     =    107.703501     0.000000     0.001617   107.705118
	   76 D(1,2,3,4)      =     72.824501    -0.000001    -0.182774    72.641727
	   77 D(1,2,3,5)      =   -166.975951     0.000000    -0.152600  -167.128551
	   78 D(1,2,3,6)      =    -51.223364    -0.000000    -0.168121   -51.391486
	   79 D(2,3,4,7)      =    -64.027957     0.000001     0.180086   -63.847871
	   80 D(2,3,4,8)      =     58.413809    -0.000001     0.075401    58.489211
	   81 D(2,3,4,9)      =    174.071719     0.000000     0.132878   174.204597
	   82 D(3,4,7,10)     =   -177.775309    -0.000009     1.073260  -176.702048
	   83 D(3,4,7,11)     =     60.285610    -0.000010     1.179805    61.465415
	   84 D(3,4,7,12)     =    -56.176119     0.000025     2.852544   -53.323575
	   85 D(4,7,10,13)    =    106.845260    -0.000004    -1.056425   105.788835
	   86 *D(4,7,10,14)   =   -130.000035     0.000000     0.000000  -130.000035
	   87 D(4,7,10,15)    =    -14.688581     0.000000    -0.491578   -15.180159
	   88 D(5,3,4,7)      =    178.053858     0.000002     0.209185   178.263043
	   89 D(5,3,4,8)      =    -59.504375    -0.000001     0.104500   -59.399875
	   90 D(5,3,4,9)      =     56.153534     0.000001     0.161977    56.315511
	   91 D(6,3,4,7)      =     60.208675     0.000001     0.156342    60.365017
	   92 D(6,3,4,8)      =   -177.349559    -0.000002     0.051657  -177.297901
	   93 D(6,3,4,9)      =    -61.691649    -0.000000     0.109134   -61.582516
	   94 D(7,10,13,16)   =     66.439226     0.000024    10.083243    76.522469
	   95 D(7,10,13,17)   =   -171.999721     0.000015     9.489851  -162.509870
	   96 D(7,10,13,18)   =    -56.866586     0.000016     9.506267   -47.360320
	   97 D(8,4,7,10)     =     60.400347    -0.000012     0.998025    61.398371
	   98 D(8,4,7,11)     =    -61.538735    -0.000012     1.104570   -60.434165
	   99 D(8,4,7,12)     =   -178.000464     0.000022     2.777308  -175.223156
	  100 D(9,4,7,10)     =    -56.570426    -0.000008     1.171653   -55.398773
	  101 D(9,4,7,11)     =   -178.509507    -0.000008     1.278198  -177.231309
	  102 D(9,4,7,12)     =     65.028764     0.000027     2.950937    67.979701
	  103 D(10,13,16,19)  =    175.657658     0.000001     1.524032   177.181690
	  104 D(10,13,16,20)  =     53.922527     0.000001     1.650930    55.573457
	  105 D(10,13,16,21)  =    -62.443948     0.000000     1.650617   -60.793331
	  106 D(11,7,10,13)   =   -131.397286    -0.000007    -1.511772  -132.909058
	  107 D(11,7,10,14)   =     -8.242581    -0.000003    -0.455347    -8.697928
	  108 D(11,7,10,15)   =    107.068873    -0.000002    -0.946925   106.121948
	  109 D(12,7,10,13)   =    -14.909678     0.000001    -1.546895   -16.456574
	  110 D(12,7,10,14)   =    108.245027     0.000005    -0.490470   107.754556
	  111 D(12,7,10,15)   =   -136.443519     0.000005    -0.982048  -137.425568
	  112 D(13,16,19,22)  =    179.735931     0.000003     0.166942   179.902872
	  113 D(13,16,19,23)  =    -58.215034     0.000003     0.155955   -58.059080
	  114 D(13,16,19,24)  =     57.693499     0.000003     0.169520    57.863019
	  115 D(14,10,13,16)  =    -56.660202    -0.000010     8.058708   -48.601494
	  116 D(14,10,13,17)  =     64.900851    -0.000018     7.465316    72.366167
	  117 D(14,10,13,18)  =   -179.966014    -0.000017     7.481731  -172.484283
	  118 D(15,10,13,16)  =   -171.970805     0.000028     9.955233  -162.015572
	  119 D(15,10,13,17)  =    -50.409752     0.000019     9.361841   -41.047911
	  120 D(15,10,13,18)  =     64.723383     0.000020     9.378256    74.101639
	  121 D(16,19,22,25)  =     59.831367     0.000000    -0.006021    59.825346
	  122 D(16,19,22,26)  =    179.886405    -0.000000    -0.016331   179.870074
	  123 D(16,19,22,27)  =    -60.065781    -0.000000    -0.015641   -60.081422
	  124 D(17,13,16,19)  =     54.245409     0.000002     1.898943    56.144351
	  125 D(17,13,16,20)  =    -67.489723     0.000002     2.025840   -65.463883
	  126 D(17,13,16,21)  =    176.143802     0.000001     2.025528   178.169330
	  127 D(18,13,16,19)  =    -61.076739     0.000004     1.992578   -59.084161
	  128 D(18,13,16,20)  =    177.188129     0.000004     2.119476   179.307605
	  129 D(18,13,16,21)  =     60.821654     0.000003     2.119164    62.940818
	  130 D(20,16,19,22)  =    -58.505327    -0.000000    -0.000347   -58.505674
	  131 D(20,16,19,23)  =     63.543708    -0.000000    -0.011334    63.532375
	  132 D(20,16,19,24)  =    179.452242     0.000000     0.002232   179.454474
	  133 D(21,16,19,22)  =     57.109037    -0.000003    -0.135260    56.973778
	  134 D(21,16,19,23)  =    179.158073    -0.000003    -0.146247   179.011826
	  135 D(21,16,19,24)  =    -64.933394    -0.000002    -0.132681   -65.066075
	  136 D(23,19,22,25)  =    -62.198247     0.000000    -0.000948   -62.199195
	  137 D(23,19,22,26)  =     57.856791    -0.000000    -0.011258    57.845533
	  138 D(23,19,22,27)  =    177.904605    -0.000000    -0.010568   177.894036
	  139 D(24,19,22,25)  =   -178.150870     0.000000     0.002932  -178.147937
	  140 D(24,19,22,26)  =    -58.095831     0.000000    -0.007378   -58.103210
	  141 D(24,19,22,27)  =     61.951982     0.000000    -0.006688    61.945294
	 ---------------------------------------------------------------------------

  ==> Convergence Check <==

  Measures of convergence in internal coordinates in au.
  Criteria marked as inactive (o), active & met (*), and active & unmet ( ).
  --------------------------------------------------------------------------------------------- ~
   Step     Total Energy     Delta E     MAX Force     RMS Force      MAX Disp      RMS Disp    ~
  --------------------------------------------------------------------------------------------- ~
    Convergence Criteria    1.00e-06 *    3.00e-04 *             o    1.20e-03 *             o  ~
  --------------------------------------------------------------------------------------------- ~
      1    -388.27641755   -3.88e+02      1.06e-02      1.07e-03 o    1.76e-01      4.21e-02 o  ~
  ---------------------------------------------------------------------------------------------

	Writing optimization data to binary file.
	Structure for next step:
	Cartesian Geometry (in Angstrom)
	    H     2.1554881858   3.0845583918  -0.6850298330
	    O     2.8686159250   2.7298471519  -1.1956448018
	    C     3.0795790954   1.3860151332  -0.8441489989
	    C     1.9901848636   0.4532810725  -1.3617013237
	    H     4.0325963387   1.1143591786  -1.2798358583
	    H     3.1779079482   1.2853944464   0.2361974988
	    C     0.6016010359   0.7233646108  -0.7740826010
	    H     1.9466150531   0.5385700626  -2.4441400802
	    H     2.2843980336  -0.5707210486  -1.1355740190
	    C    -0.4726266701  -0.2870773039  -1.2521292806
	    H     0.3000351721   1.7300111994  -1.0486141604
	    H     0.6767833171   0.7189677387   0.3101049282
	    C    -0.9048886542  -1.3298425900  -0.2132993701
	    H    -1.3544905186   0.2343019275  -1.6153447515
	    H    -0.0852583376  -0.8220393475  -2.1151453814
	    C    -1.8552521588  -0.8066132014   0.8676405779
	    H    -1.4012127162  -2.1455650091  -0.7348759456
	    H    -0.0213923230  -1.7642167305   0.2533217237
	    C    -2.3112836460  -1.8980448040   1.8385071647
	    H    -2.7287926363  -0.3636970480   0.3913428978
	    H    -1.3820783788  -0.0089406688   1.4346289989
	    C    -3.2579934069  -1.3784988665   2.9198891857
	    H    -2.8020560313  -2.6931652340   1.2815206631
	    H    -1.4397220666  -2.3488883760   2.3086414348
	    H    -4.1555418906  -0.9503629536   2.4824470723
	    H    -3.5649275166  -2.1753050348   3.5903119852
	    H    -2.7833265394  -0.6067235036   3.5194279204
			--------------------------
			 OPTKING Finished Execution 
			--------------------------

    Structure for next step:
    Molecular point group: c1
    Full point group: C1

    Geometry (in Angstrom), charge = 0, multiplicity = 1:

    H            2.146925981002     3.082819388067    -0.683726656392
    O            2.860053665770     2.728108175248    -1.194341586209
    C            3.071016819989     1.384276259220    -0.842845810145
    C            1.981622671451     0.451542269671    -1.360398095482
    H            4.024033990542     1.112620325312    -1.278532636307
    H            3.169345665267     1.283655580107     0.237500605012
    C            0.593038949794     0.721625787434    -0.772779417660
    H            1.938052864236     0.536831253260    -2.442836769247
    H            2.275835818914    -0.572459773224    -1.134270807973
    C           -0.481188674235    -0.288816050181    -1.250826060685
    H            0.291473108972     1.728272299139    -1.047310956028
    H            0.668221225206     0.717228915631     0.311408028805
    C           -0.913450625301    -1.331581256590    -0.211996229582
    H           -1.363052455343     0.232563141469    -1.614041503860
    H           -0.093820371271    -0.823778052918    -2.113842095635
    C           -1.863814057328    -0.808351907978     0.868943635924
    H           -1.409774649406    -2.147303613447    -0.733572765169
    H           -0.029954361570    -1.765955363903     0.254624828583
    C           -2.319845509755    -1.899783427201     1.839810148616
    H           -2.737354468168    -0.365435788390     0.392645992175
    H           -1.390640313486    -0.010679436259     1.435932013612
    C           -3.266555198359    -1.380237529419     2.921192087044
    H           -2.810617857578    -2.694903796551     1.282823689489
    H           -1.448283996839    -2.350626964796     2.309944382779
    H           -4.164103613510    -0.952101649188     2.483750007028
    H           -3.573489284560    -2.177043636824     3.591614835273
    H           -2.791888367019    -0.608462225486     3.520730775871

gradient() will perform analytic gradient computation.

*** tstart() called on cx1-1-1-4.cx1.hpc.ic.ac.uk
*** at Fri Sep  2 11:41:58 2016


         ---------------------------------------------------------
                                   SCF
            by Justin Turney, Rob Parrish, and Andy Simmonett
                              RHF Reference
                        4 Threads,   2000 MiB Core
         ---------------------------------------------------------

  ==> Geometry <==

    Molecular point group: c1
    Full point group: C1

    Geometry (in Angstrom), charge = 0, multiplicity = 1:

       Center              X                  Y                   Z               Mass       
    ------------   -----------------  -----------------  -----------------  -----------------
           H          2.146925981002     3.082819388067    -0.683726656392     1.007825032070
           O          2.860053665770     2.728108175248    -1.194341586209    15.994914619560
           C          3.071016819989     1.384276259220    -0.842845810145    12.000000000000
           C          1.981622671451     0.451542269671    -1.360398095482    12.000000000000
           H          4.024033990542     1.112620325312    -1.278532636307     1.007825032070
           H          3.169345665267     1.283655580107     0.237500605012     1.007825032070
           C          0.593038949794     0.721625787434    -0.772779417660    12.000000000000
           H          1.938052864236     0.536831253260    -2.442836769247     1.007825032070
           H          2.275835818914    -0.572459773224    -1.134270807973     1.007825032070
           C         -0.481188674235    -0.288816050181    -1.250826060685    12.000000000000
           H          0.291473108972     1.728272299139    -1.047310956028     1.007825032070
           H          0.668221225206     0.717228915631     0.311408028805     1.007825032070
           C         -0.913450625301    -1.331581256590    -0.211996229582    12.000000000000
           H         -1.363052455343     0.232563141469    -1.614041503860     1.007825032070
           H         -0.093820371271    -0.823778052918    -2.113842095635     1.007825032070
           C         -1.863814057328    -0.808351907978     0.868943635924    12.000000000000
           H         -1.409774649406    -2.147303613447    -0.733572765169     1.007825032070
           H         -0.029954361570    -1.765955363903     0.254624828583     1.007825032070
           C         -2.319845509755    -1.899783427201     1.839810148616    12.000000000000
           H         -2.737354468168    -0.365435788390     0.392645992175     1.007825032070
           H         -1.390640313486    -0.010679436259     1.435932013612     1.007825032070
           C         -3.266555198359    -1.380237529419     2.921192087044    12.000000000000
           H         -2.810617857578    -2.694903796551     1.282823689489     1.007825032070
           H         -1.448283996839    -2.350626964796     2.309944382779     1.007825032070
           H         -4.164103613510    -0.952101649188     2.483750007028     1.007825032070
           H         -3.573489284560    -2.177043636824     3.591614835273     1.007825032070
           H         -2.791888367019    -0.608462225486     3.520730775871     1.007825032070

  Running in c1 symmetry.

  Rotational constants: A =      0.12106  B =      0.01492  C =      0.01421 [cm^-1]
  Rotational constants: A =   3629.19122  B =    447.40633  C =    426.03381 [MHz]
  Nuclear repulsion =  458.285639305535540

  Charge       = 0
  Multiplicity = 1
  Electrons    = 74
  Nalpha       = 37
  Nbeta        = 37

  ==> Algorithm <==

  SCF Algorithm Type is DF.
  DIIS enabled.
  MOM disabled.
  Fractional occupation disabled.
  Guess Type is READ.
  Energy threshold   = 1.00e-08
  Density threshold  = 1.00e-08
  Integral threshold = 0.00e+00

  ==> Primary Basis <==

  Basis Set: 6-31G*
    Number of shells: 90
    Number of basis function: 171
    Number of Cartesian functions: 171
    Spherical Harmonics?: false
    Max angular momentum: 2

  ==> Pre-Iterations <==

   -------------------------------------------------------
    Irrep   Nso     Nmo     Nalpha   Nbeta   Ndocc  Nsocc
   -------------------------------------------------------
     A        171     171       0       0       0       0
   -------------------------------------------------------
    Total     171     171      37      37      37       0
   -------------------------------------------------------

 OEINTS: Overlap, kinetic, potential, dipole, and quadrupole integrals
         stored in file 35.

  ==> Integral Setup <==

  ==> DFJK: Density-Fitted J/K Matrices <==

    J tasked:                  Yes
    K tasked:                  Yes
    wK tasked:                  No
    OpenMP threads:              4
    Integrals threads:           4
    Memory (MB):              1430
    Algorithm:                Core
    Integral Cache:           NONE
    Schwarz Cutoff:          1E-12
    Fitting Condition:       1E-12

   => Auxiliary Basis Set <=

  Basis Set: 
    Number of shells: 378
    Number of basis function: 1179
    Number of Cartesian functions: 1179
    Spherical Harmonics?: false
    Max angular momentum: 3

  Minimum eigenvalue in the overlap matrix is 3.5777041769E-03.
  Using Symmetric Orthogonalization.
  SCF Guess: Reading in previously saved MOs, projecting if necessary.

  Using orbitals from previous SCF, no projection.
  Recomputing DOCC and SOCC from number of alpha and beta electrons from previous calculation.
              A 
    DOCC [    37 ]

  ==> Iterations <==

                           Total Energy        Delta E     RMS |[F,P]|

   @DF-RHF iter   0:  -388.22120308394329   -3.88221e+02   1.22979e-03 
   @DF-RHF iter   1:  -388.27435730984649   -5.31542e-02   2.74718e-04 
   @DF-RHF iter   2:  -388.27639264711985   -2.03534e-03   9.43716e-05 DIIS
   @DF-RHF iter   3:  -388.27665952332046   -2.66876e-04   3.46656e-05 DIIS
   @DF-RHF iter   4:  -388.27668492396862   -2.54006e-05   4.97191e-06 DIIS
   @DF-RHF iter   5:  -388.27668597030612   -1.04634e-06   1.94842e-06 DIIS
   @DF-RHF iter   6:  -388.27668608048731   -1.10181e-07   6.48564e-07 DIIS
   @DF-RHF iter   7:  -388.27668609777135   -1.72840e-08   1.88624e-07 DIIS
   @DF-RHF iter   8:  -388.27668609905214   -1.28080e-09   5.86411e-08 DIIS
   @DF-RHF iter   9:  -388.27668609915139   -9.92486e-11   1.21855e-08 DIIS
   @DF-RHF iter  10:  -388.27668609915628   -4.88853e-12   2.53939e-09 DIIS

  ==> Post-Iterations <==

    Orbital Energies (a.u.)
    -----------------------

    Doubly Occupied:                                                      

       1A    -20.552348     2A    -11.267160     3A    -11.220458  
       4A    -11.217585     5A    -11.216421     6A    -11.216308  
       7A    -11.215581     8A    -11.214670     9A    -11.209835  
      10A     -1.359148    11A     -1.093360    12A     -1.060894  
      13A     -1.010930    14A     -0.948169    15A     -0.888287  
      16A     -0.823312    17A     -0.801651    18A     -0.776466  
      19A     -0.693587    20A     -0.654869    21A     -0.630799  
      22A     -0.614808    23A     -0.600131    24A     -0.585465  
      25A     -0.579899    26A     -0.551609    27A     -0.544267  
      28A     -0.527765    29A     -0.504248    30A     -0.503380  
      31A     -0.482009    32A     -0.475452    33A     -0.465438  
      34A     -0.457612    35A     -0.451816    36A     -0.441898  
      37A     -0.423821  

    Virtual:                                                              

      38A      0.217217    39A      0.232482    40A      0.246528  
      41A      0.253916    42A      0.266636    43A      0.277427  
      44A      0.285329    45A      0.299729    46A      0.307198  
      47A      0.311824    48A      0.321643    49A      0.328757  
      50A      0.339012    51A      0.343529    52A      0.354736  
      53A      0.358479    54A      0.360835    55A      0.389795  
      56A      0.404392    57A      0.411943    58A      0.420219  
      59A      0.435435    60A      0.455653    61A      0.470199  
      62A      0.474839    63A      0.496923    64A      0.695426  
      65A      0.708859    66A      0.714424    67A      0.735925  
      68A      0.753459    69A      0.762067    70A      0.785907  
      71A      0.796974    72A      0.820312    73A      0.824260  
      74A      0.854284    75A      0.908231    76A      0.924376  
      77A      0.931353    78A      0.931850    79A      0.964596  
      80A      0.969978    81A      0.996558    82A      1.021546  
      83A      1.054013    84A      1.082716    85A      1.091903  
      86A      1.114716    87A      1.126784    88A      1.140059  
      89A      1.151211    90A      1.158300    91A      1.170317  
      92A      1.176034    93A      1.180342    94A      1.187697  
      95A      1.192696    96A      1.204052    97A      1.213569  
      98A      1.220019    99A      1.224915   100A      1.228187  
     101A      1.242273   102A      1.265139   103A      1.269709  
     104A      1.281822   105A      1.294638   106A      1.319494  
     107A      1.337346   108A      1.392480   109A      1.422625  
     110A      1.484641   111A      1.561965   112A      1.630100  
     113A      1.674694   114A      1.722319   115A      1.747409  
     116A      1.752558   117A      1.794406   118A      1.848217  
     119A      1.851976   120A      1.894840   121A      1.961856  
     122A      1.998318   123A      2.006892   124A      2.073506  
     125A      2.090579   126A      2.126762   127A      2.138292  
     128A      2.157232   129A      2.202731   130A      2.231692  
     131A      2.250078   132A      2.279451   133A      2.291602  
     134A      2.298231   135A      2.310315   136A      2.329758  
     137A      2.385937   138A      2.388282   139A      2.456170  
     140A      2.467310   141A      2.494300   142A      2.566999  
     143A      2.609543   144A      2.616528   145A      2.624705  
     146A      2.676023   147A      2.699543   148A      2.716107  
     149A      2.734082   150A      2.738952   151A      2.768617  
     152A      2.802678   153A      2.844126   154A      2.884618  
     155A      2.927464   156A      2.957802   157A      2.991875  
     158A      3.063849   159A      3.104893   160A      3.112644  
     161A      3.158380   162A      3.216506   163A      4.185193  
     164A      4.542843   165A      4.599257   166A      4.678341  
     167A      4.760922   168A      4.817532   169A      4.886212  
     170A      4.988377   171A      4.997324  

    Final Occupation by Irrep:
              A 
    DOCC [    37 ]

  Energy converged.

  @DF-RHF Final Energy:  -388.27668609915628

   => Energetics <=

    Nuclear Repulsion Energy =            458.2856393055355397
    One-Electron Energy =               -1434.5617369986396170
    Two-Electron Energy =                 587.9994115939480253
    DFT Exchange-Correlation Energy =       0.0000000000000000
    Empirical Dispersion Energy =           0.0000000000000000
    PCM Polarization Energy =               0.0000000000000000
    EFP Energy =                            0.0000000000000000
    Total Energy =                       -388.2766860991559952

    Alert: EFP and PCM quantities not currently incorporated into SCF psivars.

Properties will be evaluated at   0.000000,   0.000000,   0.000000 Bohr
  ==> Properties <==


Properties computed using the SCF density matrix

  Nuclear Dipole Moment: (a.u.)
     X:    -6.8289      Y:    -5.4006      Z:     4.4687

  Electronic Dipole Moment: (a.u.)
     X:     6.3927      Y:     4.9887      Z:    -4.0390

  Dipole Moment: (a.u.)
     X:    -0.4362      Y:    -0.4119      Z:     0.4297     Total:     0.7379

  Dipole Moment: (Debye)
     X:    -1.1088      Y:    -1.0469      Z:     1.0922     Total:     1.8757


  Saving occupied orbitals to File 180.

*** tstop() called on cx1-1-1-4.cx1.hpc.ic.ac.uk at Fri Sep  2 11:42:10 2016
Module time:
	user time   =      36.58 seconds =       0.61 minutes
	system time =       0.46 seconds =       0.01 minutes
	total time  =         12 seconds =       0.20 minutes
Total time:
	user time   =     124.56 seconds =       2.08 minutes
	system time =       1.38 seconds =       0.02 minutes
	total time  =         39 seconds =       0.65 minutes

*** tstart() called on cx1-1-1-4.cx1.hpc.ic.ac.uk
*** at Fri Sep  2 11:42:10 2016


         ------------------------------------------------------------
                                   SCF GRAD                          
                          Rob Parrish, Justin Turney,                
                       Andy Simmonett, and Alex Sokolov              
         ------------------------------------------------------------

  ==> Geometry <==

    Molecular point group: c1
    Full point group: C1

    Geometry (in Angstrom), charge = 0, multiplicity = 1:

       Center              X                  Y                   Z               Mass       
    ------------   -----------------  -----------------  -----------------  -----------------
           H          2.146925981002     3.082819388067    -0.683726656392     1.007825032070
           O          2.860053665770     2.728108175248    -1.194341586209    15.994914619560
           C          3.071016819989     1.384276259220    -0.842845810145    12.000000000000
           C          1.981622671451     0.451542269671    -1.360398095482    12.000000000000
           H          4.024033990542     1.112620325312    -1.278532636307     1.007825032070
           H          3.169345665267     1.283655580107     0.237500605012     1.007825032070
           C          0.593038949794     0.721625787434    -0.772779417660    12.000000000000
           H          1.938052864236     0.536831253260    -2.442836769247     1.007825032070
           H          2.275835818914    -0.572459773224    -1.134270807973     1.007825032070
           C         -0.481188674235    -0.288816050181    -1.250826060685    12.000000000000
           H          0.291473108972     1.728272299139    -1.047310956028     1.007825032070
           H          0.668221225206     0.717228915631     0.311408028805     1.007825032070
           C         -0.913450625301    -1.331581256590    -0.211996229582    12.000000000000
           H         -1.363052455343     0.232563141469    -1.614041503860     1.007825032070
           H         -0.093820371271    -0.823778052918    -2.113842095635     1.007825032070
           C         -1.863814057328    -0.808351907978     0.868943635924    12.000000000000
           H         -1.409774649406    -2.147303613447    -0.733572765169     1.007825032070
           H         -0.029954361570    -1.765955363903     0.254624828583     1.007825032070
           C         -2.319845509755    -1.899783427201     1.839810148616    12.000000000000
           H         -2.737354468168    -0.365435788390     0.392645992175     1.007825032070
           H         -1.390640313486    -0.010679436259     1.435932013612     1.007825032070
           C         -3.266555198359    -1.380237529419     2.921192087044    12.000000000000
           H         -2.810617857578    -2.694903796551     1.282823689489     1.007825032070
           H         -1.448283996839    -2.350626964796     2.309944382779     1.007825032070
           H         -4.164103613510    -0.952101649188     2.483750007028     1.007825032070
           H         -3.573489284560    -2.177043636824     3.591614835273     1.007825032070
           H         -2.791888367019    -0.608462225486     3.520730775871     1.007825032070

  Nuclear repulsion =  458.285639305535597

  ==> Basis Set <==

  Basis Set: 6-31G*
    Number of shells: 90
    Number of basis function: 171
    Number of Cartesian functions: 171
    Spherical Harmonics?: false
    Max angular momentum: 2

  ==> DFJKGrad: Density-Fitted SCF Gradients <==

    Gradient:                    1
    J tasked:                  Yes
    K tasked:                  Yes
    wK tasked:                  No
    OpenMP threads:              4
    Integrals threads:           4
    Memory (MB):              1430
    Schwarz Cutoff:          0E+00
    Fitting Condition:       1E-12

   => Auxiliary Basis Set <=

  Basis Set: 
    Number of shells: 378
    Number of basis function: 1179
    Number of Cartesian functions: 1179
    Spherical Harmonics?: false
    Max angular momentum: 3


  -Total Gradient:
     Atom            X                  Y                   Z
    ------   -----------------  -----------------  -----------------
       1        0.000035176885    -0.000046427619     0.000017577095
       2       -0.000065447963    -0.000131007651    -0.000051664303
       3        0.000568104305    -0.000066610556    -0.000118015182
       4       -0.000052554408     0.001879243856    -0.000078536520
       5        0.000172652658     0.000133318165     0.000042814295
       6       -0.000034215913     0.000007175967    -0.000028372329
       7        0.001930176672    -0.000887743111     0.001439101906
       8       -0.000171674740     0.000085169665     0.000051836755
       9       -0.000164934043     0.000081782805     0.000109985655
      10       -0.002246541444     0.000343294772     0.001121407846
      11        0.000680086386    -0.000070230323     0.000463858110
      12        0.001730290278     0.001094212463    -0.001455400346
      13        0.000156848857     0.000476708999    -0.000174896258
      14       -0.000196894918    -0.001301519042    -0.001755802535
      15       -0.000909409047    -0.000876913331     0.000537487597
      16       -0.000576111926     0.000169866572    -0.000078867059
      17       -0.000079403436     0.000107732100    -0.000099650071
      18        0.000331703253    -0.000082821829    -0.000135390565
      19       -0.000086510494    -0.000106254566    -0.000170197097
      20       -0.000228435191     0.000182537420     0.000141559570
      21       -0.000890507251    -0.001052257139     0.000204097201
      22        0.000039523955     0.000032587525    -0.000021208733
      23        0.000004484305     0.000049908544     0.000052976112
      24        0.000027962377    -0.000026271695    -0.000013104072
      25        0.000006344246    -0.000004144038    -0.000005227340
      26        0.000018637551    -0.000000157325    -0.000014584903
      27        0.000000649041     0.000008819373     0.000018215169


*** tstop() called on cx1-1-1-4.cx1.hpc.ic.ac.uk at Fri Sep  2 11:42:23 2016
Module time:
	user time   =      47.96 seconds =       0.80 minutes
	system time =       0.36 seconds =       0.01 minutes
	total time  =         13 seconds =       0.22 minutes
Total time:
	user time   =     172.53 seconds =       2.88 minutes
	system time =       1.74 seconds =       0.03 minutes
	total time  =         52 seconds =       0.87 minutes
CURRENT ENERGY: -388.2766860992

			-----------------------------------------
			 OPTKING 2.0: for geometry optimizations 
			  - R.A. King,  Bethel University        
			-----------------------------------------

	Previous internal coordinate definitions found.
	---Fragment 1 Geometry and Gradient---
	 H           4.0571021317        5.8256843606       -1.2920561303
	 O           5.4047181537        5.1553773121       -2.2569785071
	 C           5.8033807393        2.6159030222       -1.5927477534
	 C           3.7447241478        0.8532912271       -2.5707798322
	 H           7.6043221915        2.1025477047       -2.4160765346
	 H           5.9891953278        2.4257574954        0.4488110999
	 C           1.1206812012        1.3636751087       -1.4603414605
	 H           3.6623891445        1.0144640482       -4.6162924812
	 H           4.3007064212       -1.0817921935       -2.1434611876
	 C          -0.9093148125       -0.5457832376       -2.3637186946
	 H           0.5508043511        3.2659613284       -1.9791308829
	 H           1.2627551118        1.3553662251        0.5884758900
	 C          -1.7261715177       -2.5163238986       -0.4006148151
	 H          -2.5757958454        0.4394806460       -3.0500964094
	 H          -0.1772948074       -1.5567149143       -3.9945826489
	 C          -3.5220981310       -1.5275637251        1.6420654968
	 H          -2.6640879965       -4.0578157536       -1.3862516247
	 H          -0.0566055399       -3.3371720007        0.4811711927
	 C          -4.3838726840       -3.5900703892        3.4767373174
	 H          -5.1728502735       -0.6905735592        0.7419933924
	 H          -2.6279293418       -0.0201812098        2.7135182512
	 C          -6.1728947229       -2.6082709289        5.5202530261
	 H          -5.3112980150       -5.0926301300        2.4241854499
	 H          -2.7368601167       -4.4420412040        4.3651622656
	 H          -7.8690154185       -1.7992113676        4.6936072958
	 H          -6.7529160866       -4.1140162529        6.7871684135
	 H          -5.2759044073       -1.1498269684        6.6532169540
	             0.0000351769       -0.0000464276        0.0000175771
	            -0.0000654480       -0.0001310077       -0.0000516643
	             0.0005681043       -0.0000666106       -0.0001180152
	            -0.0000525544        0.0018792439       -0.0000785365
	             0.0001726527        0.0001333182        0.0000428143
	            -0.0000342159        0.0000071760       -0.0000283723
	             0.0019301767       -0.0008877431        0.0014391019
	            -0.0001716747        0.0000851697        0.0000518368
	            -0.0001649340        0.0000817828        0.0001099857
	            -0.0022465414        0.0003432948        0.0011214078
	             0.0006800864       -0.0000702303        0.0004638581
	             0.0017302903        0.0010942125       -0.0014554003
	             0.0001568489        0.0004767090       -0.0001748963
	            -0.0001968949       -0.0013015190       -0.0017558025
	            -0.0009094090       -0.0008769133        0.0005374876
	            -0.0005761119        0.0001698666       -0.0000788671
	            -0.0000794034        0.0001077321       -0.0000996501
	             0.0003317033       -0.0000828218       -0.0001353906
	            -0.0000865105       -0.0001062546       -0.0001701971
	            -0.0002284352        0.0001825374        0.0001415596
	            -0.0008905073       -0.0010522571        0.0002040972
	             0.0000395240        0.0000325875       -0.0000212087
	             0.0000044843        0.0000499085        0.0000529761
	             0.0000279624       -0.0000262717       -0.0000131041
	             0.0000063442       -0.0000041440       -0.0000052273
	             0.0000186376       -0.0000001573       -0.0000145849
	             0.0000006490        0.0000088194        0.0000182152

	---Fragment 1 Intrafragment Coordinates---
	 - Coordinate -           - BOHR/RAD -       - ANG/DEG -
	 R(1,2)           =         1.787863	       0.946097
	 R(2,3)           =         2.655007	       1.404969
	 R(3,4)           =         2.881217	       1.524675
	 R(3,5)           =         2.045677	       1.082526
	 R(3,6)           =         2.058797	       1.089469
	 R(4,7)           =         2.894679	       1.531798
	 R(4,8)           =         2.053504	       1.086667
	 R(4,9)           =         2.058219	       1.089163
	 R(7,10)          =         2.929677	       1.550318
	 R(7,11)          =         2.052461	       1.086116
	 R(7,12)          =         2.053754	       1.086800
	 R(10,13)         =         2.898976	       1.534072
	 R(10,14)         =         2.054025	       1.086943
	 R(10,15)         =         2.053668	       1.086755
	 R(13,16)         =         2.894053	       1.531467
	 R(13,17)         =         2.056056	       1.088018
	 R(13,18)         =         2.058832	       1.089487
	 R(16,19)         =         2.891818	       1.530284
	 R(16,20)         =         2.058073	       1.089085
	 R(16,21)         =         2.054203	       1.087038
	 R(19,22)         =         2.887990	       1.528259
	 R(19,23)         =         2.055643	       1.087800
	 R(19,24)         =         2.056162	       1.088074
	 R(22,25)         =         2.052985	       1.086393
	 R(22,26)         =         2.051528	       1.085622
	 R(22,27)         =         2.053109	       1.086459
	 B(1,2,3)         =         1.914273	     109.679743
	 B(2,3,4)         =         1.974609	     113.136778
	 B(2,3,5)         =         1.845775	     105.755143
	 B(2,3,6)         =         1.928342	     110.485869
	 B(3,4,7)         =         1.992839	     114.181250
	 B(3,4,8)         =         1.895221	     108.588144
	 B(3,4,9)         =         1.887753	     108.160256
	 B(4,3,5)         =         1.916533	     109.809268
	 B(4,3,6)         =         1.922604	     110.157103
	 B(4,7,10)        =         1.976775	     113.260886
	 B(4,7,11)        =         1.894573	     108.551044
	 B(4,7,12)        =         1.895754	     108.618676
	 B(5,3,6)         =         1.871790	     107.245674
	 B(7,4,8)         =         1.909151	     109.386323
	 B(7,4,9)         =         1.908157	     109.329344
	 B(7,10,13)       =         2.014695	     115.433498
	 B(7,10,14)       =         1.931122	     110.645119
	 B(7,10,15)       =         1.895178	     108.585674
	 B(8,4,9)         =         1.866517	     106.943571
	 B(10,7,11)       =         1.911070	     109.496259
	 B(10,7,12)       =         1.931475	     110.665381
	 B(10,13,16)      =         2.004886	     114.871499
	 B(10,13,17)      =         1.889709	     108.272363
	 B(10,13,18)      =         1.909790	     109.422909
	 B(11,7,12)       =         1.849505	     105.968822
	 B(13,10,14)      =         1.900463	     108.888492
	 B(13,10,15)      =         1.879254	     107.673305
	 B(13,16,19)      =         1.970399	     112.895545
	 B(13,16,20)      =         1.904987	     109.147715
	 B(13,16,21)      =         1.927016	     110.409896
	 B(14,10,15)      =         1.833767	     105.067093
	 B(16,13,17)      =         1.887488	     108.145077
	 B(16,13,18)      =         1.914679	     109.703016
	 B(16,19,22)      =         1.972578	     113.020419
	 B(16,19,23)      =         1.908077	     109.324776
	 B(16,19,24)      =         1.908100	     109.326100
	 B(17,13,18)      =         1.850764	     106.040987
	 B(19,16,20)      =         1.905505	     109.177421
	 B(19,16,21)      =         1.898814	     108.794020
	 B(19,22,25)      =         1.939973	     111.152289
	 B(19,22,26)      =         1.941846	     111.259568
	 B(19,22,27)      =         1.940479	     111.181259
	 B(20,16,21)      =         1.853362	     106.189848
	 B(22,19,23)      =         1.908498	     109.348857
	 B(22,19,24)      =         1.908509	     109.349521
	 B(23,19,24)      =         1.854337	     106.245680
	 B(25,22,26)      =         1.880026	     107.717544
	 B(25,22,27)      =         1.878847	     107.650005
	 B(26,22,27)      =         1.879809	     107.705118
	 D(1,2,3,4)       =         1.267837	      72.641727
	 D(1,2,3,5)       =        -2.916943	    -167.128551
	 D(1,2,3,6)       =        -0.896951	     -51.391486
	 D(2,3,4,7)       =        -1.114356	     -63.847871
	 D(2,3,4,8)       =         1.020829	      58.489211
	 D(2,3,4,9)       =         3.040444	     174.204597
	 D(3,4,7,10)      =        -3.084033	    -176.702048
	 D(3,4,7,11)      =         1.072774	      61.465415
	 D(3,4,7,12)      =        -0.930672	     -53.323575
	 D(4,7,10,13)     =         1.846363	     105.788835
	*D(4,7,10,14)     =        -2.268929	    -130.000035
	 D(4,7,10,15)     =        -0.264944	     -15.180159
	 D(5,3,4,7)       =         3.111277	     178.263043
	 D(5,3,4,8)       =        -1.036723	     -59.399875
	 D(5,3,4,9)       =         0.982891	      56.315511
	 D(6,3,4,7)       =         1.053568	      60.365017
	 D(6,3,4,8)       =        -3.094432	    -177.297901
	 D(6,3,4,9)       =        -1.074818	     -61.582516
	 D(7,10,13,16)    =         1.335569	      76.522469
	 D(7,10,13,17)    =        -2.836332	    -162.509870
	 D(7,10,13,18)    =        -0.826594	     -47.360320
	 D(8,4,7,10)      =         1.071604	      61.398371
	 D(8,4,7,11)      =        -1.054775	     -60.434165
	 D(8,4,7,12)      =        -3.058221	    -175.223156
	 D(9,4,7,10)      =        -0.966891	     -55.398773
	 D(9,4,7,11)      =        -3.093270	    -177.231309
	 D(9,4,7,12)      =         1.186470	      67.979701
	 D(10,13,16,19)   =         3.092404	     177.181690
	 D(10,13,16,20)   =         0.969940	      55.573457
	 D(10,13,16,21)   =        -1.061044	     -60.793331
	 D(11,7,10,13)    =        -2.319701	    -132.909058
	 D(11,7,10,14)    =        -0.151807	      -8.697928
	 D(11,7,10,15)    =         1.852177	     106.121948
	 D(12,7,10,13)    =        -0.287221	     -16.456574
	 D(12,7,10,14)    =         1.880672	     107.754556
[...]
	   ----------                --------       ------       ------       ------
	    1 R(1,2)          =      0.946136    -0.000055    -0.000003     0.946133
	    2 R(2,3)          =      1.405041    -0.000002     0.000000     1.405041
	    3 R(3,4)          =      1.524290     0.000161     0.000023     1.524313
	    4 R(3,5)          =      1.082456    -0.000007     0.000001     1.082457
	    5 R(3,6)          =      1.089487     0.000005    -0.000002     1.089485
	    6 R(4,7)          =      1.531762    -0.000079    -0.000020     1.531743
	    7 R(4,8)          =      1.086662    -0.000009    -0.000001     1.086662
	    8 R(4,9)          =      1.089235    -0.000035    -0.000009     1.089227
	    9 R(7,10)         =      1.545222    -0.000121    -0.000075     1.545147
	   10 R(7,11)         =      1.086541    -0.000000     0.000001     1.086542
	   11 R(7,12)         =      1.087948    -0.000116    -0.000014     1.087934
	   12 R(10,13)        =      1.533415     0.000086     0.000021     1.533435
	   13 R(10,14)        =      1.086857     0.000045     0.000017     1.086874
	   14 R(10,15)        =      1.087111     0.000039     0.000013     1.087124
	   15 R(13,16)        =      1.530834     0.000248     0.000066     1.530901
	   16 R(13,17)        =      1.087859     0.000003    -0.000005     1.087855
	   17 R(13,18)        =      1.089281    -0.000057    -0.000005     1.089275
	   18 R(16,19)        =      1.530042    -0.000078    -0.000018     1.530024
	   19 R(16,20)        =      1.088914     0.000060     0.000016     1.088929
	   20 R(16,21)        =      1.087940    -0.000157    -0.000040     1.087900
	   21 R(19,22)        =      1.528310    -0.000034    -0.000007     1.528303
	   22 R(19,23)        =      1.087943    -0.000046    -0.000010     1.087933
	   23 R(19,24)        =      1.088008     0.000046     0.000009     1.088018
	   24 R(22,25)        =      1.086372     0.000015     0.000001     1.086373
	   25 R(22,26)        =      1.085633    -0.000005    -0.000001     1.085633
	   26 R(22,27)        =      1.086465    -0.000011    -0.000000     1.086464
	   27 B(1,2,3)        =    109.687047     0.000000     0.000589   109.687637
	   28 B(2,3,4)        =    113.185493     0.000002     0.002565   113.188058
	   29 B(2,3,5)        =    105.755724    -0.000001    -0.002507   105.753217
	   30 B(2,3,6)        =    110.484679    -0.000000     0.000244   110.484923
	   31 B(3,4,7)        =    114.027771     0.000002     0.003423   114.031194
	   32 B(3,4,8)        =    108.617842    -0.000000     0.000316   108.618158
	   33 B(3,4,9)        =    108.174274    -0.000001    -0.001871   108.172403
	   34 B(4,3,5)        =    109.764930    -0.000000     0.000113   109.765043
	   35 B(4,3,6)        =    110.148138    -0.000000     0.000283   110.148422
	   36 B(4,7,10)       =    113.030767     0.000000    -0.001388   113.029379
	   37 B(4,7,11)       =    108.723999    -0.000000     0.004615   108.728614
	   38 B(4,7,12)       =    109.146529    -0.000000    -0.006041   109.140488
	   39 B(5,3,6)        =    107.248283     0.000000    -0.000988   107.247295
	   40 B(7,4,8)        =    109.424116    -0.000000     0.000370   109.424486
	   41 B(7,4,9)        =    109.425778    -0.000001    -0.002626   109.423153
	   42 B(7,10,13)      =    114.613395     0.000004     0.013861   114.627256
	   43 B(7,10,14)      =    110.118889    -0.000001    -0.001804   110.117085
	   44 B(7,10,15)      =    108.605075    -0.000002    -0.011003   108.594072
	   45 B(8,4,9)        =    106.925762     0.000000     0.000204   106.925966
	   46 B(10,7,11)      =    109.413647     0.000000     0.005391   109.419037
	   47 B(10,7,12)      =    110.075514    -0.000000    -0.007060   110.068454
	   48 B(10,13,16)     =    114.192656     0.000003     0.016288   114.208944
	   49 B(10,13,17)     =    108.821967    -0.000001    -0.010274   108.811693
	   50 B(10,13,18)     =    109.281232    -0.000001    -0.001896   109.279335
	   51 B(11,7,12)      =    106.213926     0.000000     0.005031   106.218957
	   52 B(13,10,14)     =    109.393263    -0.000002    -0.007768   109.385495
	   53 B(13,10,15)     =    108.454658    -0.000001    -0.003957   108.450701
	   54 B(13,16,19)     =    113.122900     0.000000    -0.000017   113.122883
	   55 B(13,16,20)     =    108.962730     0.000000     0.009295   108.972025
	   56 B(13,16,21)     =    110.161639     0.000001     0.000685   110.162324
	   57 B(14,10,15)     =    105.217536     0.000001     0.010427   105.227963
	   58 B(16,13,17)     =    108.553672    -0.000001    -0.011477   108.542195
	   59 B(16,13,18)     =    109.559221    -0.000000     0.009607   109.568827
	   60 B(16,19,22)     =    113.036954    -0.000000     0.000020   113.036973
	   61 B(16,19,23)     =    109.326991    -0.000001    -0.006924   109.320067
	   62 B(16,19,24)     =    109.309283     0.000000     0.005665   109.314948
	   63 B(17,13,18)     =    106.116015     0.000000    -0.003907   106.112108
	   64 B(19,16,20)     =    109.225742    -0.000000     0.002309   109.228051
	   65 B(19,16,21)     =    108.981755    -0.000001    -0.013577   108.968177
	   66 B(19,22,25)     =    111.153351     0.000000     0.000166   111.153517
	   67 B(19,22,26)     =    111.269664    -0.000000    -0.000613   111.269050
	   68 B(19,22,27)     =    111.171132    -0.000000    -0.000232   111.170900
	   69 B(20,16,21)     =    106.145143     0.000000     0.001470   106.146614
	   70 B(22,19,23)     =    109.347927     0.000000    -0.001656   109.346270
	   71 B(22,19,24)     =    109.352022    -0.000000     0.002353   109.354375
	   72 B(23,19,24)     =    106.240854     0.000000     0.000579   106.241433
	   73 B(25,22,26)     =    107.718542    -0.000000     0.000323   107.718865
	   74 B(25,22,27)     =    107.646712     0.000000     0.000205   107.646918
	   75 B(26,22,27)     =    107.706298     0.000000     0.000193   107.706491
	   76 D(1,2,3,4)      =     72.291945     0.000000     0.014691    72.306636
	   77 D(1,2,3,5)      =   -167.504470     0.000000     0.014653  -167.489816
	   78 D(1,2,3,6)      =    -51.764604    -0.000000     0.012231   -51.752373
	   79 D(2,3,4,7)      =    -63.730606    -0.000000    -0.028791   -63.759397
	   80 D(2,3,4,8)      =     58.572705    -0.000000    -0.025750    58.546955
	   81 D(2,3,4,9)      =    174.290175    -0.000000    -0.026338   174.263837
	   82 D(3,4,7,10)     =   -176.582340     0.000000     0.105127  -176.477213
	   83 D(3,4,7,11)     =     61.719395     0.000000     0.095916    61.815311
	   84 D(3,4,7,12)     =    -53.733680     0.000000     0.090684   -53.642996
	   85 D(4,7,10,13)    =    106.165903     0.000000     0.001403   106.167305
	   86 *D(4,7,10,14)   =   -130.000035    -0.000000     0.000000  -130.000035
	   87 D(4,7,10,15)    =    -15.274411    -0.000000     0.005331   -15.269079
	   88 D(5,3,4,7)      =    178.378622    -0.000000    -0.027337   178.351285
	   89 D(5,3,4,8)      =    -59.318067     0.000000    -0.024296   -59.342363
	   90 D(5,3,4,9)      =     56.399403    -0.000000    -0.024883    56.374519
	   91 D(6,3,4,7)      =     60.509643    -0.000000    -0.026367    60.483275
	   92 D(6,3,4,8)      =   -177.187046     0.000000    -0.023327  -177.210373
	   93 D(6,3,4,9)      =    -61.469576     0.000000    -0.023914   -61.493490
	   94 D(7,10,13,16)   =     73.013459     0.000000    -0.029582    72.983877
	   95 D(7,10,13,17)   =   -165.542134     0.000000    -0.040926  -165.583060
	   96 D(7,10,13,18)   =    -50.078827    -0.000000    -0.052258   -50.131085
	   97 D(8,4,7,10)     =     61.557764     0.000000     0.102072    61.659836
	   98 D(8,4,7,11)     =    -60.140500     0.000000     0.092861   -60.047639
	   99 D(8,4,7,12)     =   -175.593576     0.000000     0.087629  -175.505947
	  100 D(9,4,7,10)     =    -55.294767     0.000000     0.103120   -55.191647
	  101 D(9,4,7,11)     =   -176.993032     0.000000     0.093909  -176.899123
	  102 D(9,4,7,12)     =     67.553893     0.000000     0.088677    67.642570
	  103 D(10,13,16,19)  =   -179.389232     0.000000    -0.071491  -179.460723
	  104 D(10,13,16,20)  =     58.920822    -0.000000    -0.081063    58.839759
	  105 D(10,13,16,21)  =    -57.143541    -0.000000    -0.088581   -57.232122
	  106 D(11,7,10,13)   =   -132.524798     0.000000     0.010203  -132.514595
	  107 D(11,7,10,14)   =     -8.690736     0.000000     0.008800    -8.681936
	  108 D(11,7,10,15)   =    106.034888     0.000000     0.014132   106.049020
	  109 D(12,7,10,13)   =    -16.164978     0.000000     0.015373   -16.149605
	  110 D(12,7,10,14)   =    107.669084     0.000000     0.013970   107.683054
	  111 D(12,7,10,15)   =   -137.605292     0.000000     0.019302  -137.585990
	  112 D(13,16,19,22)  =   -179.317888     0.000000     0.067741  -179.250147
	  113 D(13,16,19,23)  =    -57.268194     0.000000     0.060638   -57.207557
	  114 D(13,16,19,24)  =     58.639939     0.000000     0.060628    58.700566
	  115 D(14,10,13,16)  =    -51.206588     0.000000    -0.031248   -51.237836
	  116 D(14,10,13,17)  =     70.237818     0.000000    -0.042591    70.195227
	  117 D(14,10,13,18)  =   -174.298874    -0.000000    -0.053923  -174.352798
	  118 D(15,10,13,16)  =   -165.463897     0.000000    -0.037383  -165.501280
	  119 D(15,10,13,17)  =    -44.019490     0.000000    -0.048727   -44.068217
	  120 D(15,10,13,18)  =     71.443818    -0.000000    -0.060059    71.383759
	  121 D(16,19,22,25)  =     59.997518    -0.000000    -0.077315    59.920203
	  122 D(16,19,22,26)  =   -179.948989    -0.000000    -0.077207  -180.026195
	  123 D(16,19,22,27)  =    -59.899023    -0.000000    -0.077530   -59.976553
	  124 D(17,13,16,19)  =     59.018379     0.000000    -0.060782    58.957597
	  125 D(17,13,16,20)  =    -62.671568    -0.000000    -0.070354   -62.741922
	  126 D(17,13,16,21)  =   -178.735931    -0.000000    -0.077872  -178.813803
	  127 D(18,13,16,19)  =    -56.447765     0.000000    -0.054972   -56.502737
	  128 D(18,13,16,20)  =   -178.137711     0.000000    -0.064544  -178.202255
	  129 D(18,13,16,21)  =     65.797926    -0.000000    -0.072062    65.725864
	  130 D(20,16,19,22)  =    -57.775843     0.000000     0.081259   -57.694584
	  131 D(20,16,19,23)  =     64.273850     0.000000     0.074156    64.348006
	  132 D(20,16,19,24)  =   -179.818017     0.000000     0.074146  -179.743871
	  133 D(21,16,19,22)  =     57.779824     0.000000     0.076797    57.856621
	  134 D(21,16,19,23)  =    179.829518    -0.000000     0.069693   179.899211
	  135 D(21,16,19,24)  =    -64.262349    -0.000000     0.069683   -64.192666
	  136 D(23,19,22,25)  =    -62.040438     0.000000    -0.067257   -62.107695
	  137 D(23,19,22,26)  =     58.013055     0.000000    -0.067148    57.945906
	  138 D(23,19,22,27)  =    178.063021     0.000000    -0.067472   177.995549
	  139 D(24,19,22,25)  =   -177.984274     0.000000    -0.068342  -178.052616
	  140 D(24,19,22,26)  =    -57.930781     0.000000    -0.068233   -57.999014
	  141 D(24,19,22,27)  =     62.119185    -0.000000    -0.068557    62.050628
	 ---------------------------------------------------------------------------

  ==> Convergence Check <==

  Measures of convergence in internal coordinates in au.
  Criteria marked as inactive (o), active & met (*), and active & unmet ( ).
  ---------------------------------------------------------------------------------------------
   Step     Total Energy     Delta E     MAX Force     RMS Force      MAX Disp      RMS Disp   
  ---------------------------------------------------------------------------------------------
    Convergence Criteria    1.00e-06 *    3.00e-04 *             o    1.20e-03 *             o
  ---------------------------------------------------------------------------------------------
      9    -388.27699317   -7.17e-08 *    4.64e-05 *    9.09e-06 o    1.83e-03      7.32e-04 o  ~
  ---------------------------------------------------------------------------------------------


  **** Optimization is complete! (in 9 steps) ****

  ==> Optimization Summary <==

  Measures of convergence in internal coordinates in au.
  --------------------------------------------------------------------------------------------------------------- ~
   Step         Total Energy             Delta E       MAX Force       RMS Force        MAX Disp        RMS Disp  ~
  --------------------------------------------------------------------------------------------------------------- ~
      1    -388.276417550400   -388.276417550400      0.01063470      0.00106810      0.17598579      0.04210811  ~
      2    -388.276686099156     -0.000268548756      0.00468272      0.00075929      0.10153259      0.02836637  ~
      3    -388.276947259538     -0.000261160382      0.00190420      0.00022389      0.05391346      0.01753241  ~
      4    -388.276953112050     -0.000005852512      0.00162046      0.00019674      0.05122334      0.01463152  ~
      5    -388.276983255119     -0.000030143069      0.00054936      0.00009043      0.01687420      0.00526425  ~
      6    -388.276992234870     -0.000008979751      0.00024596      0.00003333      0.01075464      0.00386035  ~
      7    -388.276991859557      0.000000375313      0.00036232      0.00004186      0.00605323      0.00232597  ~
      8    -388.276993096539     -0.000001236982      0.00004707      0.00001025      0.00450572      0.00127708  ~
      9    -388.276993168252     -0.000000071713      0.00004640      0.00000909      0.00183481      0.00073168  ~
  --------------------------------------------------------------------------------------------------------------- ~

	Writing optimization data to binary file.
	Final energy is   -388.2769931682522
	Final (previous) structure:
	Cartesian Geometry (in Angstrom)
	    H     2.0960791172   3.0602520986  -0.6106644459
	    O     2.8272748224   2.7208326628  -1.1059633329
	    C     3.0354856357   1.3706779612  -0.7775280043
	    C     1.9651648970   0.4437677782  -1.3420738942
	    H     4.0004620276   1.1122219228  -1.1943395216
	    H     3.1067277158   1.2476514438   0.3026437623
	    C     0.5614607855   0.6996267864  -0.7848963628
	    H     1.9496151387   0.5498321651  -2.4234358305
	    H     2.2580909355  -0.5833427156  -1.1283632336
	    C    -0.4891337173  -0.3054132813  -1.3082102885
	    H     0.2593878883   1.7089639316  -1.0505304492
	    H     0.5980396746   0.6696078884   0.3020220579
	    C    -0.9357525635  -1.3544019603  -0.2827762606
	    H    -1.3598460114   0.2256034809  -1.6838969911
	    H    -0.0756136977  -0.8217366456  -2.1708935874
	    C    -1.8470528737  -0.8067841106   0.8186319634
	    H    -1.4620956494  -2.1518130985  -0.8029076394
	    H    -0.0569094528  -1.8151012687   0.1665822555
	    C    -2.2656762486  -1.8700920097   1.8360603961
	    H    -2.7373381239  -0.3783782728   0.3608175959
	    H    -1.3536505189   0.0092552922   1.3423181544
	    C    -3.1887542490  -1.3249866771   2.9253342295
	    H    -2.7626350870  -2.6878428290   1.3184361000
	    H    -1.3771548699  -2.2968149939   2.2967113386
	    H    -4.1034196265  -0.9227362713   2.4989704487
	    H    -3.4668488237  -2.1017605384   3.6309443508
	    H    -2.7075118782  -0.5274507987   3.4845731498
	Saving final (previous) structure.
			--------------------------
			 OPTKING Finished Execution 
			--------------------------

    Final optimized geometry and variables:
    Molecular point group: c1
    Full point group: C1

    Geometry (in Angstrom), charge = 0, multiplicity = 1:

    H            2.096078957185     3.060251864924    -0.610664399239
    O            2.827274606494     2.720832455044    -1.105963248425
    C            3.035485403946     1.370677856575    -0.777527944957
    C            1.965164746905     0.443767744299    -1.342073791745
    H            4.000461722110     1.112221837827    -1.194339430393
    H            3.106727478607     1.247651348479     0.302643739184
    C            0.561460742651     0.699626732926    -0.784896302880
    H            1.949614989794     0.549832123138    -2.423435645473
    H            2.258090763019    -0.583342671070    -1.128363147460
    C           -0.489133679941    -0.305413257942    -1.308210188640
    H            0.259387868480     1.708963801120    -1.050530368982
    H            0.598039628960     0.669607837232     0.302022034836
    C           -0.935752492056    -1.354401856919    -0.282776239047
    H           -1.359845907544     0.225603463669    -1.683896862540
    H           -0.075613691877    -0.821736582811    -2.170893421580
    C           -1.847052732680    -0.806784048954     0.818631900848
    H           -1.462095537764    -2.151812934139    -0.802907578088
    H           -0.056909448413    -1.815101130080     0.166582242808
    C           -2.265676075597    -1.870091866894     1.836060255893
    H           -2.737337914885    -0.378378243876     0.360817568359
    H           -1.353650415557     0.009255291455     1.342318051907
    C           -3.188754005483    -1.324986575918     2.925334006090
    H           -2.762634876083    -2.687842623792     1.318435999298
    H           -1.377154764686    -2.296814818533     2.296711163193
    H           -4.103419313159    -0.922736200820     2.498970257824
    H           -3.466848559000    -2.101760377858     3.630944073481
    H           -2.707511671409    -0.527450758422     3.484572883730

	Cleaning optimization helper files.


Properties will be evaluated at   0.000000,   0.000000,   0.000000 Bohr

Properties computed using the  density matrix

  Nuclear Dipole Moment: (a.u.)
     X:    -6.7312      Y:    -5.3339      Z:     4.3436

  Electronic Dipole Moment: (a.u.)
     X:     6.2804      Y:     4.9090      Z:    -3.9359

  Dipole Moment: (a.u.)
     X:    -0.4508      Y:    -0.4249      Z:     0.4077     Total:     0.7416

  Dipole Moment: (Debye)
     X:    -1.1458      Y:    -1.0800      Z:     1.0363     Total:     1.8850

  Quadrupole Moment: (Debye Ang)
    XX:   -65.3159     YY:   -63.9518     ZZ:   -62.4944
    XY:    -6.6445     XZ:     4.2379     YZ:     4.3600

  Traceless Quadrupole Moment: (Debye Ang)
    XX:    -1.3952     YY:    -0.0311     ZZ:     1.4263
    XY:    -6.6445     XZ:     4.2379     YZ:     4.3600

  Mulliken Charges: (a.u.)
   Center  Symbol    Alpha    Beta     Spin     Total
       1     H     0.27992  0.27992  0.00000  0.44017
       2     O     4.37099  4.37099  0.00000 -0.74198
       3     C     2.99761  2.99761  0.00000  0.00478
       4     C     3.16300  3.16300  0.00000 -0.32599
       5     H     0.41444  0.41444  0.00000  0.17111
       6     H     0.43217  0.43217  0.00000  0.13567
       7     C     3.16499  3.16499  0.00000 -0.32997
       8     H     0.41444  0.41444  0.00000  0.17112
       9     H     0.42418  0.42418  0.00000  0.15164
      10     C     3.15714  3.15714  0.00000 -0.31427
      11     H     0.42217  0.42217  0.00000  0.15565
      12     H     0.42243  0.42243  0.00000  0.15514
      13     C     3.15488  3.15488  0.00000 -0.30977
      14     H     0.41959  0.41959  0.00000  0.16082
      15     H     0.41770  0.41770  0.00000  0.16461
      16     C     3.15168  3.15168  0.00000 -0.30336
      17     H     0.42124  0.42124  0.00000  0.15753
      18     H     0.42439  0.42439  0.00000  0.15122
      19     C     3.15127  3.15127  0.00000 -0.30254
      20     H     0.42385  0.42385  0.00000  0.15231
      21     H     0.42369  0.42369  0.00000  0.15263
      22     C     3.23921  3.23921  0.00000 -0.47842
      23     H     0.42274  0.42274  0.00000  0.15453
      24     H     0.42333  0.42333  0.00000  0.15334
      25     H     0.42160  0.42160  0.00000  0.15681
      26     H     0.41913  0.41913  0.00000  0.16174
      27     H     0.42225  0.42225  0.00000  0.15549

   Total alpha = 37.00000, Total beta = 37.00000, Total charge =  0.00000


*** PSI4 exiting successfully. Buy a developer a beer!
