    -----------------------------------------------------------------------
          Psi4: An Open-Source Ab Initio Electronic Structure Package
                              Psi4 (no tag) Driver

                          Git: Rev {detached?}  

    J. M. Turney, A. C. Simmonett, R. M. Parrish, E. G. Hohenstein,
    F. A. Evangelista, J. T. Fermann, B. J. Mintz, L. A. Burns, J. J. Wilke,
    M. L. Abrams, N. J. Russ, M. L. Leininger, C. L. Janssen, E. T. Seidl,
    W. D. Allen, H. F. Schaefer, R. A. King, E. F. Valeev, C. D. Sherrill,
    and T. D. Crawford, WIREs Comput. Mol. Sci. 2, 556-565 (2012)
    (doi: 10.1002/wcms.93)

                         Additional Contributions by
    A. E. DePrince, M. Saitow, U. Bozkaya, A. Yu. Sokolov
    -----------------------------------------------------------------------


    Psi4 started on: Thu Sep  1 22:41:57 2016

    Process ID:  15688
    PSI4DATADIR: /export131/home/mjharvey/miniconda3/share
    Memory level set to 256.000 MB

  ==> Input File <==

--------------------------------------------------------------------------
set {
	reference rhf
	basis 6-31G*
}


set_num_threads( 1 )
memory 2 gb

molecule MOL {
0 1

H	 -4.031818	 -0.453427	 -0.000094
C	 -2.967712	 -0.297022	 -0.000064
C	 -2.458620	 0.992929	 0.000032
C	 -2.109895	 -1.385637	 -0.000122
H	 -3.124998	 1.836319	 0.000077
C	 -1.090278	 1.193236	 0.000070
H	 -2.506361	 -2.384847	 -0.000198
C	 -0.739812	 -1.187531	 -0.000085
H	 -0.678594	 2.184290	 0.000146
C	 -0.226438	 0.104061	 0.000012
H	 -0.072310	 -2.027032	 -0.000131
C	 1.239129	 0.373821	 0.000060
O	 1.711345	 0.675833	 1.200228
O	 1.924758	 0.325665	 -0.972798
C	 3.098570	 0.947524	 1.292220
H	 3.673877	 0.087823	 0.981202
H	 3.286290	 1.168659	 2.331312
H	 3.360031	 1.794362	 0.674626

	symmetry c1
}
set optking {
	frozen_dihedral = ("
		12 13 15 16,
		10 12 13 15
	")
}

ee = energy('scf')
oeprop('DIPOLE', 'QUADRUPOLE', 'MULLIKEN_CHARGES')
f=open( 'psi4out.xyz', 'w' )
f.write( "18  " )
f.write( str(ee) + "\n" )
f.write( MOL.save_string_xyz() )
f.close()
--------------------------------------------------------------------------

  Memory set to   2.000 GiB by Python script.

*** tstart() called on cx1-3-4-4.cx1.hpc.ic.ac.uk
*** at Thu Sep  1 22:41:57 2016


         ---------------------------------------------------------
                                   SCF
            by Justin Turney, Rob Parrish, and Andy Simmonett
                              RHF Reference
                        1 Threads,   2000 MiB Core
         ---------------------------------------------------------

  ==> Geometry <==

    Molecular point group: c1
    Full point group: C1

    Geometry (in Angstrom), charge = 0, multiplicity = 1:

       Center              X                  Y                   Z               Mass       
    ------------   -----------------  -----------------  -----------------  -----------------
           H         -3.995095887627    -0.652900521151    -0.170332322470     1.007825032070
           C         -2.930989887627    -0.496495521151    -0.170302322470    12.000000000000
           C         -2.421897887627     0.793455478849    -0.170206322470    12.000000000000
           C         -2.073172887627    -1.585110521151    -0.170360322470    12.000000000000
           H         -3.088275887627     1.636845478849    -0.170161322470     1.007825032070
           C         -1.053555887627     0.993762478849    -0.170168322470    12.000000000000
           H         -2.469638887627    -2.584320521151    -0.170436322470     1.007825032070
           C         -0.703089887627    -1.387004521151    -0.170323322470    12.000000000000
           H         -0.641871887627     1.984816478849    -0.170092322470     1.007825032070
           C         -0.189715887627    -0.095412521151    -0.170226322470    12.000000000000
           H         -0.035587887627    -2.226505521151    -0.170369322470     1.007825032070
           C          1.275851112373     0.174347478849    -0.170178322470    12.000000000000
           O          1.748067112373     0.476359478849     1.029989677530    15.994914619560
           O          1.961480112373     0.126191478849    -1.143036322470    15.994914619560
           C          3.135292112373     0.748050478849     1.121981677530    12.000000000000
           H          3.710599112373    -0.111650521151     0.810963677530     1.007825032070
           H          3.323012112373     0.969185478849     2.161073677530     1.007825032070
           H          3.396753112373     1.594888478849     0.504387677530     1.007825032070

  Running in c1 symmetry.

  Rotational constants: A =      0.11772  B =      0.02639  C =      0.02474 [cm^-1]
  Rotational constants: A =   3529.29147  B =    791.05960  C =    741.64933 [MHz]
  Nuclear repulsion =  491.596868118232521

  Charge       = 0
  Multiplicity = 1
  Electrons    = 72
  Nalpha       = 36
  Nbeta        = 36

  ==> Algorithm <==

  SCF Algorithm Type is DF.
  DIIS enabled.
  MOM disabled.
  Fractional occupation disabled.
  Guess Type is CORE.
  Energy threshold   = 1.00e-06
  Density threshold  = 1.00e-06
  Integral threshold = 0.00e+00

  ==> Primary Basis <==

  Basis Set: 6-31G*
    Number of shells: 76
    Number of basis function: 166
    Number of Cartesian functions: 166
    Spherical Harmonics?: false
    Max angular momentum: 2

  ==> Pre-Iterations <==

   -------------------------------------------------------
    Irrep   Nso     Nmo     Nalpha   Nbeta   Ndocc  Nsocc
   -------------------------------------------------------
     A        166     166       0       0       0       0
   -------------------------------------------------------
    Total     166     166      36      36      36       0
   -------------------------------------------------------

 OEINTS: Overlap, kinetic, potential, dipole, and quadrupole integrals
         stored in file 35.

  ==> Integral Setup <==

  ==> DFJK: Density-Fitted J/K Matrices <==

    J tasked:                  Yes
    K tasked:                  Yes
    wK tasked:                  No
    OpenMP threads:              1
    Integrals threads:           1
    Memory (MB):              1430
    Algorithm:                Core
    Integral Cache:           NONE
    Schwarz Cutoff:          1E-12
    Fitting Condition:       1E-12

   => Auxiliary Basis Set <=

  Basis Set: 
    Number of shells: 312
    Number of basis function: 1010
    Number of Cartesian functions: 1010
    Spherical Harmonics?: false
    Max angular momentum: 3

  Minimum eigenvalue in the overlap matrix is 4.3552120961E-04.
  Using Symmetric Orthogonalization.
  SCF Guess: Core (One-Electron) Hamiltonian.

  ==> Iterations <==

                           Total Energy        Delta E     RMS |[F,P]|

   @DF-RHF iter   1:  -346.26262751540349   -3.46263e+02   6.57209e-02 
   @DF-RHF iter   2:  -303.25496120654685    4.30077e+01   5.65467e-02 DIIS
   @DF-RHF iter   3:  -394.03673050268918   -9.07818e+01   4.81054e-02 DIIS
   @DF-RHF iter   4:  -411.01571738931517   -1.69790e+01   4.29348e-02 DIIS
   @DF-RHF iter   5:  -413.27033327712530   -2.25462e+00   3.70143e-02 DIIS
   @DF-RHF iter   6:  -456.67835521070884   -4.34080e+01   7.33723e-03 DIIS
   @DF-RHF iter   7:  -457.03766383557860   -3.59309e-01   4.86409e-03 DIIS
   @DF-RHF iter   8:  -457.32205772238200   -2.84394e-01   8.66864e-04 DIIS
   @DF-RHF iter   9:  -457.33418912807821   -1.21314e-02   4.70510e-04 DIIS
   @DF-RHF iter  10:  -457.33720230240175   -3.01317e-03   1.67870e-04 DIIS
   @DF-RHF iter  11:  -457.33791881169969   -7.16509e-04   6.10759e-05 DIIS
   @DF-RHF iter  12:  -457.33801341624718   -9.46045e-05   1.89823e-05 DIIS
   @DF-RHF iter  13:  -457.33802952803222   -1.61118e-05   5.88465e-06 DIIS
   @DF-RHF iter  14:  -457.33803174453880   -2.21651e-06   2.50296e-06 DIIS
   @DF-RHF iter  15:  -457.33803218430108   -4.39762e-07   8.98736e-07 DIIS

  ==> Post-Iterations <==

    Orbital Energies (a.u.)
    -----------------------

    Doubly Occupied:                                                      

       1A    -20.609860     2A    -20.550116     3A    -11.380671  
       4A    -11.283368     5A    -11.252146     6A    -11.244971  
       7A    -11.244013     8A    -11.241169     9A    -11.240216  
      10A    -11.239440    11A     -1.474853    12A     -1.365965  
      13A     -1.166679    14A     -1.049528    15A     -1.026566  
      16A     -0.979541    17A     -0.861317    18A     -0.839025  
      19A     -0.780197    20A     -0.738099    21A     -0.686467  
      22A     -0.679903    23A     -0.675980    24A     -0.631533  
      25A     -0.629884    26A     -0.598499    27A     -0.591332  
      28A     -0.546869    29A     -0.536460    30A     -0.517318  
      31A     -0.508306    32A     -0.501758    33A     -0.458764  
      34A     -0.445308    35A     -0.343527    36A     -0.341563  

    Virtual:                                                              

      37A      0.132404    38A      0.137734    39A      0.195557  
      40A      0.231573    41A      0.259128    42A      0.286513  
      43A      0.294687    44A      0.314589    45A      0.321917  
      46A      0.327997    47A      0.330212    48A      0.338912  
      49A      0.362387    50A      0.415634    51A      0.462377  
      52A      0.473212    53A      0.518850    54A      0.527917  
      55A      0.547783    56A      0.592146    57A      0.645182  
      58A      0.727750    59A      0.733656    60A      0.737710  
      61A      0.747282    62A      0.772097    63A      0.777002  
      64A      0.779191    65A      0.803515    66A      0.813101  
      67A      0.819154    68A      0.833309    69A      0.838303  
      70A      0.873278    71A      0.877791    72A      0.899286  
      73A      0.912953    74A      0.942016    75A      0.951433  
      76A      0.990535    77A      1.007857    78A      1.075794  
      79A      1.102658    80A      1.108788    81A      1.113847  
      82A      1.119288    83A      1.126407    84A      1.127730  
      85A      1.139655    86A      1.173369    87A      1.202053  
      88A      1.209906    89A      1.220122    90A      1.237970  
      91A      1.258344    92A      1.285114    93A      1.299445  
      94A      1.344231    95A      1.368515    96A      1.383819  
      97A      1.392344    98A      1.459173    99A      1.468668  
     100A      1.496770   101A      1.505319   102A      1.638889  
     103A      1.659078   104A      1.665581   105A      1.705179  
     106A      1.752878   107A      1.756403   108A      1.783049  
     109A      1.783789   110A      1.812369   111A      1.816395  
     112A      1.940159   113A      1.985271   114A      2.001287  
     115A      2.029544   116A      2.087803   117A      2.108088  
     118A      2.164839   119A      2.172860   120A      2.181292  
     121A      2.193770   122A      2.253965   123A      2.315919  
     124A      2.345378   125A      2.377933   126A      2.396312  
     127A      2.407497   128A      2.429034   129A      2.448782  
     130A      2.451580   131A      2.462734   132A      2.477392  
     133A      2.492261   134A      2.602866   135A      2.611308  
     136A      2.644103   137A      2.654240   138A      2.657309  
     139A      2.710984   140A      2.784848   141A      2.870365  
     142A      2.915687   143A      2.938572   144A      2.978089  
     145A      3.062743   146A      3.069716   147A      3.095435  
     148A      3.110008   149A      3.136917   150A      3.177958  
     151A      3.181628   152A      3.347400   153A      3.394534  
     154A      3.475754   155A      3.567952   156A      3.828310  
     157A      4.448579   158A      4.522878   159A      4.533593  
     160A      4.542653   161A      4.592681   162A      4.658160  
     163A      4.741730   164A      4.772620   165A      4.887768  
     166A      5.167209  

    Final Occupation by Irrep:
              A 
    DOCC [    36 ]

  Energy converged.

  @DF-RHF Final Energy:  -457.33803218430108

   => Energetics <=

    Nuclear Repulsion Energy =            491.5968681182325213
    One-Electron Energy =               -1597.3477693283437020
    Two-Electron Energy =                 648.4128690258094139
    DFT Exchange-Correlation Energy =       0.0000000000000000
    Empirical Dispersion Energy =           0.0000000000000000
    PCM Polarization Energy =               0.0000000000000000
    EFP Energy =                            0.0000000000000000
    Total Energy =                       -457.3380321843017100

    Alert: EFP and PCM quantities not currently incorporated into SCF psivars.

Properties will be evaluated at   0.000000,   0.000000,   0.000000 Bohr
  ==> Properties <==


Properties computed using the SCF density matrix

  Nuclear Dipole Moment: (a.u.)
     X:     0.2052      Y:     0.5751      Z:     2.4603

  Electronic Dipole Moment: (a.u.)
     X:    -0.5474      Y:    -0.5057      Z:    -1.7340

  Dipole Moment: (a.u.)
     X:    -0.3422      Y:     0.0694      Z:     0.7263     Total:     0.8059

  Dipole Moment: (Debye)
     X:    -0.8698      Y:     0.1763      Z:     1.8461     Total:     2.0483


  Saving occupied orbitals to File 180.

*** tstop() called on cx1-3-4-4.cx1.hpc.ic.ac.uk at Thu Sep  1 22:42:18 2016
Module time:
	user time   =      20.19 seconds =       0.34 minutes
	system time =       0.21 seconds =       0.00 minutes
	total time  =         21 seconds =       0.35 minutes
Total time:
	user time   =      20.19 seconds =       0.34 minutes
	system time =       0.21 seconds =       0.00 minutes
	total time  =         21 seconds =       0.35 minutes


Properties will be evaluated at   0.000000,   0.000000,   0.000000 Bohr

Properties computed using the  density matrix

  Nuclear Dipole Moment: (a.u.)
     X:     0.2052      Y:     0.5751      Z:     2.4603

  Electronic Dipole Moment: (a.u.)
     X:    -0.5474      Y:    -0.5057      Z:    -1.7340

  Dipole Moment: (a.u.)
     X:    -0.3422      Y:     0.0694      Z:     0.7263     Total:     0.8059

  Dipole Moment: (Debye)
     X:    -0.8698      Y:     0.1763      Z:     1.8461     Total:     2.0483

  Quadrupole Moment: (Debye Ang)
    XX:   -48.6051     YY:   -50.9540     ZZ:   -64.7807
    XY:     1.7663     XZ:     6.7507     YZ:     0.3922

  Traceless Quadrupole Moment: (Debye Ang)
    XX:     6.1748     YY:     3.8259     ZZ:   -10.0008
    XY:     1.7663     XZ:     6.7507     YZ:     0.3922

  Mulliken Charges: (a.u.)
   Center  Symbol    Alpha    Beta     Spin     Total
       1     H     0.39661  0.39661  0.00000  0.20677
       2     C     3.09765  3.09765  0.00000 -0.19531
       3     C     3.09922  3.09922  0.00000 -0.19844
       4     C     3.10026  3.10026  0.00000 -0.20051
       5     H     0.39555  0.39555  0.00000  0.20890
       6     C     3.09699  3.09699  0.00000 -0.19399
       7     H     0.39530  0.39530  0.00000  0.20940
       8     C     3.09783  3.09783  0.00000 -0.19567
       9     H     0.39133  0.39133  0.00000  0.21734
      10     C     3.00824  3.00824  0.00000 -0.01648
      11     H     0.39043  0.39043  0.00000  0.21914
      12     C     2.64255  2.64255  0.00000  0.71490
      13     O     4.29594  4.29594  0.00000 -0.59188
      14     O     4.27544  4.27544  0.00000 -0.55088
      15     C     3.09375  3.09375  0.00000 -0.18750
      16     H     0.40801  0.40801  0.00000  0.18398
      17     H     0.40660  0.40660  0.00000  0.18680
      18     H     0.40829  0.40829  0.00000  0.18343

   Total alpha = 36.00000, Total beta = 36.00000, Total charge = -0.00000


*** PSI4 exiting successfully. Buy a developer a beer!
