    -----------------------------------------------------------------------
          Psi4: An Open-Source Ab Initio Electronic Structure Package
                              Psi4 (no tag) Driver

                          Git: Rev {detached?}  

    J. M. Turney, A. C. Simmonett, R. M. Parrish, E. G. Hohenstein,
    F. A. Evangelista, J. T. Fermann, B. J. Mintz, L. A. Burns, J. J. Wilke,
    M. L. Abrams, N. J. Russ, M. L. Leininger, C. L. Janssen, E. T. Seidl,
    W. D. Allen, H. F. Schaefer, R. A. King, E. F. Valeev, C. D. Sherrill,
    and T. D. Crawford, WIREs Comput. Mol. Sci. 2, 556-565 (2012)
    (doi: 10.1002/wcms.93)

                         Additional Contributions by
    A. E. DePrince, M. Saitow, U. Bozkaya, A. Yu. Sokolov
    -----------------------------------------------------------------------


    Psi4 started on: Fri Sep  2 13:58:28 2016

    Process ID:  17826
    PSI4DATADIR: /export131/home/mjharvey/miniconda3/share
    Memory level set to 256.000 MB

  ==> Input File <==

--------------------------------------------------------------------------
set {
	reference rhf
	basis 6-31G*
}


set_num_threads( 4 )
memory 2 gb

molecule MOL {
0 1

H	 2.465338	 -2.224223	 0.000000
O	 2.784187	 -1.332015	 0.000000
C	 1.765313	 -0.449364	 0.000000
C	 1.423159	 0.131046	 -1.217374
C	 1.070694	 -0.115020	 1.146234
H	 1.978164	 -0.145245	 -2.094010
C	 0.389176	 1.041939	 -1.282327
H	 1.312891	 -0.546709	 2.097293
C	 0.038007	 0.803204	 1.045040
H	 0.131721	 1.485194	 -2.226307
C	 -0.324134	 1.394422	 -0.144440
N	 -0.693572	 1.153387	 2.260627
H	 -1.128628	 2.099407	 -0.178956
O	 -0.360034	 0.626817	 3.279208
O	 -1.580908	 1.944421	 2.164891

	symmetry c1
}
set optking {
	frozen_dihedral = ("
		4 3 2 1
	")
}

ee = optimize('scf')
oeprop('DIPOLE', 'QUADRUPOLE', 'MULLIKEN_CHARGES')
f=open( 'psi4out.xyz', 'w' )
f.write( "15  " )
f.write( str(ee) + "\n" )
f.write( MOL.save_string_xyz() )
f.close()
--------------------------------------------------------------------------

  Memory set to   2.000 GiB by Python script.
gradient() will perform analytic gradient computation.

*** tstart() called on cx1-1-1-2.cx1.hpc.ic.ac.uk
*** at Fri Sep  2 13:58:28 2016


         ---------------------------------------------------------
                                   SCF
            by Justin Turney, Rob Parrish, and Andy Simmonett
                              RHF Reference
                        4 Threads,   2000 MiB Core
         ---------------------------------------------------------

  ==> Geometry <==

    Molecular point group: c1
    Full point group: C1

    Geometry (in Angstrom), charge = 0, multiplicity = 1:

       Center              X                  Y                   Z               Mass       
    ------------   -----------------  -----------------  -----------------  -----------------
           H          2.027158180029    -2.730028612254    -0.797532074586     1.007825032070
           O          2.346007180029    -1.837820612254    -0.797532074586    15.994914619560
           C          1.327133180029    -0.955169612254    -0.797532074586    12.000000000000
           C          0.984979180029    -0.374759612254    -2.014906074586    12.000000000000
           C          0.632514180029    -0.620825612254     0.348701925414    12.000000000000
           H          1.539984180029    -0.651050612254    -2.891542074586     1.007825032070
           C         -0.049003819971     0.536133387746    -2.079859074586    12.000000000000
           H          0.874711180029    -1.052514612254     1.299760925414     1.007825032070
           C         -0.400172819971     0.297398387746     0.247507925414    12.000000000000
           H         -0.306458819971     0.979388387746    -3.023839074586     1.007825032070
           C         -0.762313819971     0.888616387746    -0.941972074586    12.000000000000
           N         -1.131751819971     0.647581387746     1.463094925414    14.003074004780
           H         -1.566807819971     1.593601387746    -0.976488074586     1.007825032070
           O         -0.798213819971     0.121011387746     2.481675925414    15.994914619560
           O         -2.019087819971     1.438615387746     1.367358925414    15.994914619560

  Running in c1 symmetry.

  Rotational constants: A =      0.09411  B =      0.03325  C =      0.02462 [cm^-1]
  Rotational constants: A =   2821.24265  B =    996.78456  C =    738.12447 [MHz]
  Nuclear repulsion =  503.258853556560609

  Charge       = 0
  Multiplicity = 1
  Electrons    = 72
  Nalpha       = 36
  Nbeta        = 36

  ==> Algorithm <==

  SCF Algorithm Type is DF.
  DIIS enabled.
  MOM disabled.
  Fractional occupation disabled.
  Guess Type is CORE.
  Energy threshold   = 1.00e-08
  Density threshold  = 1.00e-08
  Integral threshold = 0.00e+00

  ==> Primary Basis <==

  Basis Set: 6-31G*
    Number of shells: 70
    Number of basis function: 160
    Number of Cartesian functions: 160
    Spherical Harmonics?: false
    Max angular momentum: 2

  ==> Pre-Iterations <==

   -------------------------------------------------------
    Irrep   Nso     Nmo     Nalpha   Nbeta   Ndocc  Nsocc
   -------------------------------------------------------
     A        160     160       0       0       0       0
   -------------------------------------------------------
    Total     160     160      36      36      36       0
   -------------------------------------------------------

 OEINTS: Overlap, kinetic, potential, dipole, and quadrupole integrals
         stored in file 35.

  ==> Integral Setup <==

  ==> DFJK: Density-Fitted J/K Matrices <==

    J tasked:                  Yes
    K tasked:                  Yes
    wK tasked:                  No
    OpenMP threads:              4
    Integrals threads:           4
    Memory (MB):              1430
    Algorithm:                Core
    Integral Cache:           NONE
    Schwarz Cutoff:          1E-12
    Fitting Condition:       1E-12

   => Auxiliary Basis Set <=

  Basis Set: 
    Number of shells: 285
    Number of basis function: 935
    Number of Cartesian functions: 935
    Spherical Harmonics?: false
    Max angular momentum: 3

  Minimum eigenvalue in the overlap matrix is 4.1384579484E-04.
  Using Symmetric Orthogonalization.
  SCF Guess: Core (One-Electron) Hamiltonian.

  ==> Iterations <==

                           Total Energy        Delta E     RMS |[F,P]|

   @DF-RHF iter   1:  -421.50441096647711   -4.21504e+02   6.02895e-02 
   @DF-RHF iter   2:  -310.66746474411747    1.10837e+02   5.62412e-02 DIIS
   @DF-RHF iter   3:  -327.87547758786849   -1.72080e+01   7.16488e-02 DIIS
   @DF-RHF iter   4:  -494.91492644644467   -1.67039e+02   2.44803e-02 DIIS
   @DF-RHF iter   5:  -501.33652443996624   -6.42160e+00   2.14206e-02 DIIS
   @DF-RHF iter   6:  -508.23260427120584   -6.89608e+00   7.82347e-03 DIIS
   @DF-RHF iter   7:  -508.86324740697188   -6.30643e-01   3.09065e-03 DIIS
   @DF-RHF iter   8:  -508.96797502173530   -1.04728e-01   1.68979e-03 DIIS
   @DF-RHF iter   9:  -509.01883877233257   -5.08638e-02   4.88439e-04 DIIS
   @DF-RHF iter  10:  -509.02202598229536   -3.18721e-03   1.62994e-04 DIIS
   @DF-RHF iter  11:  -509.02255966700233   -5.33685e-04   7.17197e-05 DIIS
   @DF-RHF iter  12:  -509.02266950882216   -1.09842e-04   3.67685e-05 DIIS
   @DF-RHF iter  13:  -509.02270139746287   -3.18886e-05   1.37750e-05 DIIS
   @DF-RHF iter  14:  -509.02270884656599   -7.44910e-06   5.43863e-06 DIIS
   @DF-RHF iter  15:  -509.02271023073666   -1.38417e-06   2.59926e-06 DIIS
   @DF-RHF iter  16:  -509.02271067759824   -4.46862e-07   1.13804e-06 DIIS
   @DF-RHF iter  17:  -509.02271074329377   -6.56955e-08   4.18947e-07 DIIS
   @DF-RHF iter  18:  -509.02271075090886   -7.61509e-09   1.21159e-07 DIIS
   @DF-RHF iter  19:  -509.02271075138623   -4.77371e-10   3.81927e-08 DIIS
   @DF-RHF iter  20:  -509.02271075143636   -5.01359e-11   1.68839e-08 DIIS
   @DF-RHF iter  21:  -509.02271075144830   -1.19371e-11   6.82424e-09 DIIS

  ==> Post-Iterations <==

    Orbital Energies (a.u.)
    -----------------------

    Doubly Occupied:                                                      

       1A    -20.603801     2A    -20.603169     3A    -20.601717  
       4A    -15.858276     5A    -11.320918     6A    -11.308775  
       7A    -11.268994     8A    -11.267459     9A    -11.264972  
      10A    -11.262503    11A     -1.637059    12A     -1.426483  
      13A     -1.420310    14A     -1.200099    15A     -1.093694  
      16A     -1.045516    17A     -0.963600    18A     -0.870311  
      19A     -0.831680    20A     -0.792728    21A     -0.739110  
      22A     -0.736009    23A     -0.722937    24A     -0.709317  
      25A     -0.680046    26A     -0.642095    27A     -0.627036  
      28A     -0.568307    29A     -0.556516    30A     -0.528751  
      31A     -0.509777    32A     -0.489830    33A     -0.484198  
      34A     -0.453814    35A     -0.376500    36A     -0.356572  

    Virtual:                                                              

      37A      0.058302    38A      0.119631    39A      0.178116  
      40A      0.213977    41A      0.228548    42A      0.289178  
      43A      0.295678    44A      0.324846    45A      0.357573  
      46A      0.386004    47A      0.429575    48A      0.430676  
      49A      0.452324    50A      0.521272    51A      0.533487  
      52A      0.563883    53A      0.615603    54A      0.681204  
      55A      0.695631    56A      0.709932    57A      0.716074  
      58A      0.756190    59A      0.785723    60A      0.797546  
      61A      0.803004    62A      0.812202    63A      0.835456  
      64A      0.873707    65A      0.877186    66A      0.886537  
      67A      0.900330    68A      0.947684    69A      0.976520  
      70A      0.982709    71A      1.007290    72A      1.036728  
      73A      1.047983    74A      1.074728    75A      1.081258  
      76A      1.094535    77A      1.119845    78A      1.141061  
      79A      1.171314    80A      1.176696    81A      1.201155  
      82A      1.226230    83A      1.233483    84A      1.266041  
      85A      1.282508    86A      1.290723    87A      1.310210  
      88A      1.356358    89A      1.379630    90A      1.402781  
      91A      1.410566    92A      1.460909    93A      1.464006  
      94A      1.527692    95A      1.548183    96A      1.590062  
      97A      1.623307    98A      1.663501    99A      1.683215  
     100A      1.709768   101A      1.721308   102A      1.734543  
     103A      1.736493   104A      1.762021   105A      1.908797  
     106A      1.984157   107A      2.009978   108A      2.018285  
     109A      2.042763   110A      2.068278   111A      2.078451  
     112A      2.106421   113A      2.115314   114A      2.178177  
     115A      2.217864   116A      2.233126   117A      2.238296  
     118A      2.250737   119A      2.271159   120A      2.292279  
     121A      2.366812   122A      2.389330   123A      2.430907  
     124A      2.460367   125A      2.471572   126A      2.481103  
     127A      2.543827   128A      2.600503   129A      2.608089  
     130A      2.625858   131A      2.699826   132A      2.741917  
     133A      2.843036   134A      2.858100   135A      2.900935  
     136A      2.914480   137A      2.959248   138A      2.967120  
     139A      3.023203   140A      3.094153   141A      3.100106  
     142A      3.113127   143A      3.165978   144A      3.260643  
     145A      3.301188   146A      3.302604   147A      3.419035  
     148A      3.500786   149A      3.611502   150A      3.835283  
     151A      4.165691   152A      4.276405   153A      4.352968  
     154A      4.461570   155A      4.503081   156A      4.534967  
     157A      4.608141   158A      4.758353   159A      4.871893  
     160A      5.160543  

    Final Occupation by Irrep:
              A 
    DOCC [    36 ]

  Energy converged.

  @DF-RHF Final Energy:  -509.02271075144830

   => Energetics <=

    Nuclear Repulsion Energy =            503.2588535565606094
    One-Electron Energy =               -1692.9173655647259693
    Two-Electron Energy =                 680.6358012567170590
    DFT Exchange-Correlation Energy =       0.0000000000000000
    Empirical Dispersion Energy =           0.0000000000000000
    PCM Polarization Energy =               0.0000000000000000
    EFP Energy =                            0.0000000000000000
    Total Energy =                       -509.0227107514483578

    Alert: EFP and PCM quantities not currently incorporated into SCF psivars.

Properties will be evaluated at   0.000000,   0.000000,   0.000000 Bohr
  ==> Properties <==


Properties computed using the SCF density matrix

  Nuclear Dipole Moment: (a.u.)
     X:     2.4090      Y:    -1.7475      Z:    -5.9797

  Electronic Dipole Moment: (a.u.)
     X:    -1.9778      Y:     0.9005      Z:     4.3199

  Dipole Moment: (a.u.)
     X:     0.4312      Y:    -0.8470      Z:    -1.6597     Total:     1.9126

  Dipole Moment: (Debye)
     X:     1.0961      Y:    -2.1529      Z:    -4.2186     Total:     4.8614


  Saving occupied orbitals to File 180.

*** tstop() called on cx1-1-1-2.cx1.hpc.ic.ac.uk at Fri Sep  2 13:58:37 2016
Module time:
	user time   =      28.40 seconds =       0.47 minutes
	system time =       0.34 seconds =       0.01 minutes
	total time  =          9 seconds =       0.15 minutes
Total time:
	user time   =      28.40 seconds =       0.47 minutes
	system time =       0.34 seconds =       0.01 minutes
	total time  =          9 seconds =       0.15 minutes

*** tstart() called on cx1-1-1-2.cx1.hpc.ic.ac.uk
*** at Fri Sep  2 13:58:37 2016


         ------------------------------------------------------------
                                   SCF GRAD                          
                          Rob Parrish, Justin Turney,                
                       Andy Simmonett, and Alex Sokolov              
         ------------------------------------------------------------

  ==> Geometry <==

    Molecular point group: c1
    Full point group: C1

    Geometry (in Angstrom), charge = 0, multiplicity = 1:

       Center              X                  Y                   Z               Mass       
    ------------   -----------------  -----------------  -----------------  -----------------
           H          2.027158180029    -2.730028612254    -0.797532074586     1.007825032070
           O          2.346007180029    -1.837820612254    -0.797532074586    15.994914619560
           C          1.327133180029    -0.955169612254    -0.797532074586    12.000000000000
           C          0.984979180029    -0.374759612254    -2.014906074586    12.000000000000
           C          0.632514180029    -0.620825612254     0.348701925414    12.000000000000
           H          1.539984180029    -0.651050612254    -2.891542074586     1.007825032070
           C         -0.049003819971     0.536133387746    -2.079859074586    12.000000000000
           H          0.874711180029    -1.052514612254     1.299760925414     1.007825032070
           C         -0.400172819971     0.297398387746     0.247507925414    12.000000000000
           H         -0.306458819971     0.979388387746    -3.023839074586     1.007825032070
           C         -0.762313819971     0.888616387746    -0.941972074586    12.000000000000
           N         -1.131751819971     0.647581387746     1.463094925414    14.003074004780
           H         -1.566807819971     1.593601387746    -0.976488074586     1.007825032070
           O         -0.798213819971     0.121011387746     2.481675925414    15.994914619560
           O         -2.019087819971     1.438615387746     1.367358925414    15.994914619560

  Nuclear repulsion =  503.258853556560609

  ==> Basis Set <==

  Basis Set: 6-31G*
    Number of shells: 70
    Number of basis function: 160
    Number of Cartesian functions: 160
    Spherical Harmonics?: false
    Max angular momentum: 2

  ==> DFJKGrad: Density-Fitted SCF Gradients <==

    Gradient:                    1
    J tasked:                  Yes
    K tasked:                  Yes
    wK tasked:                  No
    OpenMP threads:              4
    Integrals threads:           4
    Memory (MB):              1430
    Schwarz Cutoff:          0E+00
    Fitting Condition:       1E-12

   => Auxiliary Basis Set <=

  Basis Set: 
    Number of shells: 285
    Number of basis function: 935
    Number of Cartesian functions: 935
    Spherical Harmonics?: false
    Max angular momentum: 3


  -Total Gradient:
     Atom            X                  Y                   Z
    ------   -----------------  -----------------  -----------------
       1        0.000450577554     0.000816062955    -0.001546343026
       2       -0.012856146800     0.008842582736    -0.006431337666
       3        0.012667418529    -0.006764355788     0.010066332197
       4        0.001999356924    -0.001762497317    -0.004815611804
       5       -0.001898976142     0.001577729072    -0.001501719000
       6       -0.000121695882    -0.000124134813     0.000077001260
       7        0.002740971118    -0.004001208398     0.001961614881
       8       -0.001268604359     0.000304753799     0.001505833045
       9       -0.000510006454     0.000646575189    -0.002599447556
      10        0.000471890077    -0.000345977101    -0.000011673078
      11       -0.001902516905     0.001026344804     0.002970611361
      12       -0.001166373460     0.000866639567    -0.000716745870
      13        0.000075691643    -0.000103304976     0.000090432955
      14        0.000570805488    -0.000358128737     0.000563740581
      15        0.000747608669    -0.000621080994     0.000387311714


*** tstop() called on cx1-1-1-2.cx1.hpc.ic.ac.uk at Fri Sep  2 13:58:44 2016
Module time:
	user time   =      26.55 seconds =       0.44 minutes
	system time =       0.29 seconds =       0.00 minutes
	total time  =          7 seconds =       0.12 minutes
Total time:
	user time   =      54.97 seconds =       0.92 minutes
	system time =       0.63 seconds =       0.01 minutes
	total time  =         16 seconds =       0.27 minutes
CURRENT ENERGY: -509.0227107514

			-----------------------------------------
			 OPTKING 2.0: for geometry optimizations 
			  - R.A. King,  Bethel University        
			-----------------------------------------

	Internal coordinates to be generated automatically.
	Detected frag with atoms:  1 2 3 4 5 6 7 8 9 10 11 12 13 14 15
	---Fragment 1 Bond Connectivity---
	 1 : 2
	 2 : 1 3
	 3 : 2 4 5
	 4 : 3 6 7
	 5 : 3 8 9
	 6 : 4
	 7 : 4 10 11
	 8 : 5
	 9 : 5 11 12
	 10 : 7
	 11 : 7 9 13
	 12 : 9 14 15
	 13 : 11
	 14 : 12
	 15 : 12

	Assuming in current code that numbering for constraints corresponds to unified fragment.
	Frozen dihedral atom list: 
	     4     3     2     1
	---Fragment 1 Geometry and Gradient---
	 H           3.8307737883       -5.1590064121       -1.5071172032
	 O           4.4333110760       -3.4729776385       -1.5071172032
	 C           2.5079182521       -1.8050089776       -1.5071172032
	 C           1.8613408968       -0.7081930328       -3.8076206645
	 C           1.1952785754       -1.1731903834        0.6589511410
	 H           2.9101483492       -1.2303073558       -5.4642226227
	 C          -0.0926037992        1.0131452735       -3.9303640460
	 H           1.6529645756       -1.9889643680        2.4561921873
	 C          -0.7562170356        0.5620015052        0.4677221948
	 H          -0.5791232408        1.8507758306       -5.7142277209
	 C          -1.4405643471        1.6792416100       -1.7800692458
	 N          -2.1387009901        1.2237514716        2.7648487154
	 H          -2.9608376826        3.0114701878       -1.8452950330
	 O          -1.5084055152        0.2286783818        4.6896878496
	 O          -3.8155230180        2.7185890934        2.5839338944
	             0.0004505776        0.0008160630       -0.0015463430
	            -0.0128561468        0.0088425827       -0.0064313377
	             0.0126674185       -0.0067643558        0.0100663322
	             0.0019993569       -0.0017624973       -0.0048156118
	            -0.0018989761        0.0015777291       -0.0015017190
	            -0.0001216959       -0.0001241348        0.0000770013
	             0.0027409711       -0.0040012084        0.0019616149
	            -0.0012686044        0.0003047538        0.0015058330
	            -0.0005100065        0.0006465752       -0.0025994476
	             0.0004718901       -0.0003459771       -0.0000116731
	            -0.0019025169        0.0010263448        0.0029706114
	            -0.0011663735        0.0008666396       -0.0007167459
	             0.0000756916       -0.0001033050        0.0000904330
	             0.0005708055       -0.0003581287        0.0005637406
	             0.0007476087       -0.0006210810        0.0003873117

	Previous optimization step data not found.  Starting new optimization.

	---Fragment 1 Intrafragment Coordinates---
	 - Coordinate -           - BOHR/RAD -       - ANG/DEG -
	 R(1,2)           =         1.790459	       0.947470
	 R(2,3)           =         2.547402	       1.348027
	 R(3,4)           =         2.629331	       1.391382
	 R(3,5)           =         2.610377	       1.381352
	 R(4,6)           =         2.029022	       1.073712
	 R(4,7)           =         2.606908	       1.379517
	 R(5,8)           =         2.026090	       1.072161
	 R(5,9)           =         2.618357	       1.385575
	 R(7,10)          =         2.029900	       1.074177
	 R(7,11)          =         2.623823	       1.388468
	 R(9,11)          =         2.601754	       1.376789
	 R(9,12)          =         2.761515	       1.461331
	 R(11,13)         =         2.022454	       1.070236
	 R(12,14)         =         2.256645	       1.194165
	 R(12,15)         =         2.253664	       1.192588
	 B(1,2,3)         =         1.941452	     111.236997
	 B(2,3,4)         =         2.047666	     117.322641
	 B(2,3,5)         =         2.139514	     122.585141
	 B(3,4,6)         =         2.071330	     118.678471
	 B(3,4,7)         =         2.095495	     120.063011
	 B(3,5,8)         =         2.123533	     121.669495
	 B(3,5,9)         =         2.065286	     118.332151
	 B(4,3,5)         =         2.096005	     120.092217
	 B(4,7,10)        =         2.086895	     119.570257
	 B(4,7,11)        =         2.110755	     120.937359
	 B(5,9,11)        =         2.145655	     122.936980
	 B(5,9,12)        =         2.061419	     118.110632
	 B(6,4,7)         =         2.116360	     121.258518
	 B(7,11,9)        =         2.053175	     117.638281
	 B(7,11,13)       =         2.125829	     121.801057
	 B(8,5,9)         =         2.094366	     119.998354
	 B(9,11,13)       =         2.104180	     120.560661
	 B(9,12,14)       =         2.053338	     117.647592
	 B(9,12,15)       =         2.054043	     117.688011
	 B(10,7,11)       =         2.085536	     119.492384
	 B(11,9,12)       =         2.076111	     118.952389
	 B(14,12,15)      =         2.175804	     124.664397
	*D(1,2,3,4)       =        -1.745329	    -100.000005
	 D(1,2,3,5)       =         1.396264	      80.000024
	 D(2,3,4,6)       =         0.000000	       0.000000
	 D(2,3,4,7)       =         3.141593	     180.000000
	 D(2,3,5,8)       =        -0.000000	      -0.000000
	 D(2,3,5,9)       =         3.141593	     180.000000
	 D(3,4,7,10)      =         3.141593	     180.000000
	 D(3,4,7,11)      =         0.000000	       0.000000
	 D(3,5,9,11)      =        -0.000000	      -0.000000
	 D(3,5,9,12)      =         3.141593	     180.000000
	 D(4,3,5,8)       =         3.141593	     180.000000
	 D(4,3,5,9)       =         0.000000	       0.000000
	 D(4,7,11,9)      =        -0.000000	      -0.000000
	 D(4,7,11,13)     =         3.141593	     180.000000
	 D(5,3,4,6)       =         3.141593	     180.000000
	 D(5,3,4,7)       =        -0.000000	      -0.000000
	 D(5,9,11,7)      =         0.000000	       0.000000
	 D(5,9,11,13)     =         3.141593	     180.000000
	 D(5,9,12,14)     =        -0.000000	      -0.000000
	 D(5,9,12,15)     =         3.141593	     180.000000
	 D(6,4,7,10)      =        -0.000000	      -0.000000
	 D(6,4,7,11)      =         3.141593	     180.000000
	 D(7,11,9,12)     =         3.141593	     180.000000
	 D(8,5,9,11)      =         3.141593	     180.000000
	 D(8,5,9,12)      =         0.000000	       0.000000
	 D(9,11,7,10)     =         3.141593	     180.000000
	 D(10,7,11,13)    =         0.000000	       0.000000
	 D(11,9,12,14)    =         3.141593	     180.000000
	 D(11,9,12,15)    =         0.000000	       0.000000
	 D(12,9,11,13)    =        -0.000000	      -0.000000

	Current energy   :      -509.0227107514

	Generating empirical Hessian (Schlegel '84) for each fragment.
	Taking RFO optimization step.
	Going to follow RFO solution 1.
	Using RFO vector 1.
	Norm of target step-size    0.13222
	Projected energy change by RFO approximation:        -0.0012629724

	Back-transformation to cartesian coordinates...
	Successfully converged to displaced geometry.

	Back-transformation to cartesian coordinates to adjust frozen coordinates...
	Successfully converged to displaced geometry.

	--- Internal Coordinate Step in ANG or DEG, aJ/ANG or AJ/DEG ---
	 ---------------------------------------------------------------------------
	   Coordinate                Previous        Force       Change         New 
	   ----------                --------       ------       ------       ------
	    1 R(1,2)          =      0.947470     0.007580     0.000833     0.948304
	    2 R(2,3)          =      1.348027     0.129353     0.014940     1.362968
	    3 R(3,4)          =      1.391382     0.006246     0.000841     1.392223
	    4 R(3,5)          =      1.381352    -0.016049    -0.002169     1.379183
	    5 R(4,6)          =      1.073712     0.000773     0.000134     1.073847
	    6 R(4,7)          =      1.379517     0.021267     0.002826     1.382343
	    7 R(5,8)          =      1.072161    -0.007633    -0.001321     1.070840
	    8 R(5,9)          =      1.385575     0.001832     0.000186     1.385761
	    9 R(7,10)         =      1.074177     0.002024     0.000352     1.074530
	   10 R(7,11)         =      1.388468    -0.017880    -0.002337     1.386131
	   11 R(9,11)         =      1.376789     0.020508     0.002647     1.379436
	   12 R(9,12)         =      1.461331    -0.000756    -0.000131     1.461199
	   13 R(11,13)        =      1.070236     0.001053     0.000181     1.070417
	   14 R(12,14)        =      1.194165    -0.006576    -0.000391     1.193774
	   15 R(12,15)        =      1.192588     0.008233     0.000486     1.193074
	   16 B(1,2,3)        =    111.236997    -0.000020    -0.094971   111.142026
	   17 B(2,3,4)        =    117.322641     0.000811     2.418145   119.740786
	   18 B(2,3,5)        =    122.585141    -0.000763    -2.285340   120.299801
	   19 B(3,4,6)        =    118.678471    -0.000068    -0.230386   118.448085
	   20 B(3,4,7)        =    120.063011     0.000143     0.490703   120.553714
	   21 B(3,5,8)        =    121.669495    -0.000142    -0.634139   121.035356
	   22 B(3,5,9)        =    118.332151     0.000017     0.020287   118.352438
	   23 B(4,3,5)        =    120.092217    -0.000049    -0.184672   119.907545
	   24 B(4,7,10)       =    119.570257     0.000135     0.494385   120.064642
	   25 B(4,7,11)       =    120.937359    -0.000188    -0.608271   120.329088
	   26 B(5,9,11)       =    122.936980    -0.000018    -0.062695   122.874285
	   27 B(5,9,12)       =    118.110632     0.000090     0.275262   118.385894
	   28 B(6,4,7)        =    121.258518    -0.000075    -0.267197   120.991320
	   29 B(7,11,9)       =    117.638281     0.000094     0.341826   117.980108
	   30 B(7,11,13)      =    121.801057    -0.000054    -0.203405   121.597652
	   31 B(8,5,9)        =    119.998354     0.000125     0.610432   120.608785
	   32 B(9,11,13)      =    120.560661    -0.000040    -0.138973   120.421688
	   33 B(9,12,14)      =    117.647592     0.000052     0.128019   117.775610
	   34 B(9,12,15)      =    117.688011    -0.000052    -0.182954   117.505057
	   35 B(10,7,11)      =    119.492384     0.000053     0.113626   119.606010
	   36 B(11,9,12)      =    118.952389    -0.000073    -0.212668   118.739720
	   37 B(14,12,15)     =    124.664397    -0.000001    -0.030382   124.634015
	   38 *D(1,2,3,4)     =   -100.000005    -0.000000    -0.000000  -100.000005
	   39 D(1,2,3,5)      =     80.000024     0.000015     2.621400    82.621425
	   40 D(2,3,4,6)      =      0.000000     0.000009     1.625440     1.625440
	   41 D(2,3,4,7)      =    180.000000     0.000016     2.570233   182.570233
	   42 D(2,3,5,8)      =      0.000000    -0.000009    -1.527098    -1.527098
	   43 D(2,3,5,9)      =    180.000000    -0.000014    -2.195916   177.804084
	   44 D(3,4,7,10)     =    180.000000    -0.000002    -0.237797   179.762203
	   45 D(3,4,7,11)     =      0.000000    -0.000003    -0.424254    -0.424254
	   46 D(3,5,9,11)     =      0.000000    -0.000002    -0.378487    -0.378487
	   47 D(3,5,9,12)     =    180.000000    -0.000002    -0.261518   179.738482
	   48 D(4,3,5,8)      =    180.000000     0.000007     1.098712   181.098712
	   49 D(4,3,5,9)      =      0.000000     0.000002     0.429894     0.429894
	   50 D(4,7,11,9)     =      0.000000     0.000003     0.474613     0.474613
	   51 D(4,7,11,13)    =    180.000000     0.000001     0.205397   180.205397
	   52 D(5,3,4,6)      =    180.000000    -0.000006    -0.985599   179.014401
	   53 D(5,3,4,7)      =      0.000000     0.000001    -0.040805    -0.040805
	   54 D(5,9,11,7)     =      0.000000    -0.000000    -0.073976    -0.073976
	   55 D(5,9,11,13)    =    180.000000     0.000001     0.191939   180.191939
	   56 D(5,9,12,14)    =      0.000000    -0.000004    -2.285956    -2.285956
	   57 D(5,9,12,15)    =    180.000000     0.000001     0.915261   180.915261
	   58 D(6,4,7,10)     =      0.000000     0.000005     0.731250     0.731250
	   59 D(6,4,7,11)     =    180.000000     0.000003     0.544793   180.544793
	   60 D(7,11,9,12)    =    180.000000    -0.000001    -0.191339   179.808661
	   61 D(8,5,9,11)     =    180.000000    -0.000007    -1.044341   178.955659
	   62 D(8,5,9,12)     =      0.000000    -0.000006    -0.927372    -0.927372
	   63 D(9,11,7,10)    =    180.000000     0.000002     0.289010   180.289010
	   64 D(10,7,11,13)   =      0.000000     0.000000     0.019794     0.019794
	   65 D(11,9,12,14)   =    180.000000    -0.000003    -2.173916   177.826084
	   66 D(11,9,12,15)   =      0.000000     0.000002     1.027301     1.027301
	   67 D(12,9,11,13)   =      0.000000     0.000001     0.074576     0.074576
	 ---------------------------------------------------------------------------

  ==> Convergence Check <==

  Measures of convergence in internal coordinates in au.
  Criteria marked as inactive (o), active & met (*), and active & unmet ( ).
  --------------------------------------------------------------------------------------------- ~
   Step     Total Energy     Delta E     MAX Force     RMS Force      MAX Disp      RMS Disp    ~
  --------------------------------------------------------------------------------------------- ~
    Convergence Criteria    1.00e-06 *    3.00e-04 *             o    1.20e-03 *             o  ~
  --------------------------------------------------------------------------------------------- ~
      1    -509.02271075   -5.09e+02      1.57e-02      2.78e-03 o    4.58e-02      1.61e-02 o  ~
  ---------------------------------------------------------------------------------------------

	Writing optimization data to binary file.
	Structure for next step:
	Cartesian Geometry (in Angstrom)
	    H     2.0559916247  -2.7388090184  -0.7603903972
	    O     2.3589482592  -1.8402034653  -0.7581225586
	    C     1.3125295785  -0.9684944603  -0.8111512923
	    C     0.9655162814  -0.3789495570  -2.0237125060
	    C     0.6319029325  -0.6275971217   0.3389283481
	    H     1.5214654121  -0.6495181834  -2.9016988541
	    C    -0.0585758403   0.5473829231  -2.0870816393
	    H     0.8951781607  -1.0567697550   1.2840184031
	    C    -0.3956885033   0.2974502371   0.2457813416
	    H    -0.3173251316   1.0003773323  -3.0264743744
	    C    -0.7598559520   0.8948718228  -0.9430467340
	    N    -1.1211016355   0.6548102344   1.4628160756
	    H    -1.5584213815   1.6071871098  -0.9693863428
	    O    -0.8182621096   0.0983762519   2.4746294778
	    O    -2.0136247889   1.4400623346   1.3617883904
			--------------------------
			 OPTKING Finished Execution 
			--------------------------

    Structure for next step:
    Molecular point group: c1
    Full point group: C1

    Geometry (in Angstrom), charge = 0, multiplicity = 1:

    H            2.058122931682    -2.736411486765    -0.759914135411
    O            2.361079542980    -1.837806002298    -0.757646297002
    C            1.314660942255    -0.966097063906    -0.810675026610
    C            0.967647671587    -0.376552205648    -2.023236147770
    C            0.634034348204    -0.625199751310     0.339404525966
    H            1.523596759866    -0.647120811331    -2.901222428751
    C           -0.056444371845     0.549780203777    -2.086605276169
    H            0.897309556321    -1.054372351871     1.284494508814
    C           -0.393557009110     0.299847536819     0.246257526603
    H           -0.315193643448     1.002774578365    -3.025997939572
    C           -0.757724430041     0.897269076884    -0.942570458217
    N           -1.118970085898     0.657207506894     1.463292167591
    H           -1.556289798585     1.609584309518    -0.968910065039
    O           -0.816130583128     0.100773566830     2.475105492510
    O           -2.011493171154     1.442459547097     1.362264490184

gradient() will perform analytic gradient computation.

*** tstart() called on cx1-1-1-2.cx1.hpc.ic.ac.uk
*** at Fri Sep  2 13:58:45 2016


         ---------------------------------------------------------
                                   SCF
            by Justin Turney, Rob Parrish, and Andy Simmonett
                              RHF Reference
                        4 Threads,   2000 MiB Core
         ---------------------------------------------------------

  ==> Geometry <==

    Molecular point group: c1
    Full point group: C1

    Geometry (in Angstrom), charge = 0, multiplicity = 1:

       Center              X                  Y                   Z               Mass       
    ------------   -----------------  -----------------  -----------------  -----------------
           H          2.058122931682    -2.736411486765    -0.759914135411     1.007825032070
           O          2.361079542980    -1.837806002298    -0.757646297002    15.994914619560
           C          1.314660942255    -0.966097063906    -0.810675026610    12.000000000000
           C          0.967647671587    -0.376552205648    -2.023236147770    12.000000000000
           C          0.634034348204    -0.625199751310     0.339404525966    12.000000000000
           H          1.523596759866    -0.647120811331    -2.901222428751     1.007825032070
           C         -0.056444371845     0.549780203777    -2.086605276169    12.000000000000
           H          0.897309556321    -1.054372351871     1.284494508814     1.007825032070
           C         -0.393557009110     0.299847536819     0.246257526603    12.000000000000
           H         -0.315193643448     1.002774578365    -3.025997939572     1.007825032070
           C         -0.757724430041     0.897269076884    -0.942570458217    12.000000000000
           N         -1.118970085898     0.657207506894     1.463292167591    14.003074004780
           H         -1.556289798585     1.609584309518    -0.968910065039     1.007825032070
           O         -0.816130583128     0.100773566830     2.475105492510    15.994914619560
           O         -2.011493171154     1.442459547097     1.362264490184    15.994914619560

  Running in c1 symmetry.

  Rotational constants: A =      0.09271  B =      0.03342  C =      0.02461 [cm^-1]
  Rotational constants: A =   2779.47609  B =   1001.82339  C =    737.93580 [MHz]
  Nuclear repulsion =  502.759972189879136

  Charge       = 0
  Multiplicity = 1
  Electrons    = 72
  Nalpha       = 36
  Nbeta        = 36

  ==> Algorithm <==

  SCF Algorithm Type is DF.
  DIIS enabled.
  MOM disabled.
  Fractional occupation disabled.
  Guess Type is READ.
  Energy threshold   = 1.00e-08
  Density threshold  = 1.00e-08
  Integral threshold = 0.00e+00

  ==> Primary Basis <==

  Basis Set: 6-31G*
    Number of shells: 70
    Number of basis function: 160
    Number of Cartesian functions: 160
    Spherical Harmonics?: false
    Max angular momentum: 2

  ==> Pre-Iterations <==

   -------------------------------------------------------
    Irrep   Nso     Nmo     Nalpha   Nbeta   Ndocc  Nsocc
   -------------------------------------------------------
     A        160     160       0       0       0       0
   -------------------------------------------------------
    Total     160     160      36      36      36       0
   -------------------------------------------------------

 OEINTS: Overlap, kinetic, potential, dipole, and quadrupole integrals
         stored in file 35.

  ==> Integral Setup <==

  ==> DFJK: Density-Fitted J/K Matrices <==

    J tasked:                  Yes
    K tasked:                  Yes
    wK tasked:                  No
    OpenMP threads:              4
    Integrals threads:           4
    Memory (MB):              1430
    Algorithm:                Core
    Integral Cache:           NONE
    Schwarz Cutoff:          1E-12
    Fitting Condition:       1E-12

   => Auxiliary Basis Set <=

  Basis Set: 
    Number of shells: 285
    Number of basis function: 935
    Number of Cartesian functions: 935
    Spherical Harmonics?: false
    Max angular momentum: 3

  Minimum eigenvalue in the overlap matrix is 4.1203510043E-04.
  Using Symmetric Orthogonalization.
  SCF Guess: Reading in previously saved MOs, projecting if necessary.

  Using orbitals from previous SCF, no projection.
  Recomputing DOCC and SOCC from number of alpha and beta electrons from previous calculation.
              A 
    DOCC [    36 ]

  ==> Iterations <==

                           Total Energy        Delta E     RMS |[F,P]|

   @DF-RHF iter   0:  -509.01272476275199   -5.09013e+02   7.50755e-04 
   @DF-RHF iter   1:  -509.02297025767143   -1.02455e-02   9.99869e-05 
   @DF-RHF iter   2:  -509.02321694240004   -2.46685e-04   3.92030e-05 DIIS
   @DF-RHF iter   3:  -509.02326065310172   -4.37107e-05   1.94755e-05 DIIS
   @DF-RHF iter   4:  -509.02326917275354   -8.51965e-06   5.84657e-06 DIIS
   @DF-RHF iter   5:  -509.02327071495233   -1.54220e-06   3.29440e-06 DIIS
   @DF-RHF iter   6:  -509.02327133377935   -6.18827e-07   1.65166e-06 DIIS
   @DF-RHF iter   7:  -509.02327151184784   -1.78068e-07   6.38536e-07 DIIS
   @DF-RHF iter   8:  -509.02327153722013   -2.53723e-08   2.51495e-07 DIIS
   @DF-RHF iter   9:  -509.02327153983856   -2.61844e-09   8.46061e-08 DIIS
   @DF-RHF iter  10:  -509.02327154010072   -2.62162e-10   4.12666e-08 DIIS
   @DF-RHF iter  11:  -509.02327154014370   -4.29736e-11   1.34892e-08 DIIS
   @DF-RHF iter  12:  -509.02327154015461   -1.09139e-11   6.88608e-09 DIIS

  ==> Post-Iterations <==

    Orbital Energies (a.u.)
    -----------------------

    Doubly Occupied:                                                      

       1A    -20.603414     2A    -20.603357     3A    -20.601751  
       4A    -15.858239     5A    -11.321465     6A    -11.308998  
       7A    -11.269623     8A    -11.267716     9A    -11.266349  
      10A    -11.264971    11A     -1.636967    12A     -1.420247  
      13A     -1.419444    14A     -1.200375    15A     -1.093812  
      16A     -1.046901    17A     -0.963355    18A     -0.868565  
      19A     -0.832146    20A     -0.791983    21A     -0.737359  
      22A     -0.735782    23A     -0.721582    24A     -0.709402  
      25A     -0.679622    26A     -0.642044    27A     -0.625397  
      28A     -0.567513    29A     -0.555482    30A     -0.529130  
      31A     -0.510884    32A     -0.489806    33A     -0.484536  
      34A     -0.453682    35A     -0.376706    36A     -0.358199  

    Virtual:                                                              

      37A      0.057956    38A      0.119104    39A      0.177640  
      40A      0.213316    41A      0.228101    42A      0.288720  
      43A      0.294945    44A      0.324379    45A      0.355783  
      46A      0.386134    47A      0.425624    48A      0.431763  
      49A      0.453323    50A      0.520707    51A      0.530127  
      52A      0.558994    53A      0.616303    54A      0.681328  
      55A      0.696290    56A      0.708336    57A      0.716566  
      58A      0.756566    59A      0.785268    60A      0.797335  
      61A      0.801051    62A      0.810487    63A      0.834751  
      64A      0.872459    65A      0.876704    66A      0.886185  
      67A      0.899301    68A      0.947277    69A      0.978065  
      70A      0.986033    71A      1.006327    72A      1.034948  
      73A      1.050315    74A      1.073400    75A      1.081560  
      76A      1.094593    77A      1.121547    78A      1.141663  
      79A      1.171947    80A      1.177915    81A      1.200120  
      82A      1.226625    83A      1.233385    84A      1.266493  
      85A      1.281699    86A      1.291290    87A      1.301835  
      88A      1.352959    89A      1.381299    90A      1.398183  
      91A      1.408723    92A      1.458862    93A      1.465656  
      94A      1.525063    95A      1.552738    96A      1.579454  
      97A      1.614248    98A      1.667253    99A      1.679261  
     100A      1.704748   101A      1.727939   102A      1.730989  
     103A      1.737331   104A      1.771871   105A      1.903411  
     106A      1.984388   107A      2.011972   108A      2.016790  
     109A      2.040800   110A      2.064925   111A      2.077957  
     112A      2.109413   113A      2.114056   114A      2.172552  
     115A      2.216135   116A      2.230426   117A      2.238215  
     118A      2.250490   119A      2.271825   120A      2.287101  
     121A      2.361478   122A      2.389076   123A      2.433724  
     124A      2.461466   125A      2.463981   126A      2.479461  
     127A      2.541870   128A      2.598409   129A      2.604984  
     130A      2.622694   131A      2.697155   132A      2.740609  
     133A      2.835335   134A      2.858303   135A      2.898664  
     136A      2.912338   137A      2.952769   138A      2.968377  
     139A      3.021919   140A      3.093266   141A      3.097467  
     142A      3.109517   143A      3.163660   144A      3.259113  
     145A      3.300509   146A      3.301857   147A      3.406712  
     148A      3.496204   149A      3.609661   150A      3.833127  
     151A      4.162152   152A      4.275813   153A      4.351459  
     154A      4.455960   155A      4.501322   156A      4.534958  
     157A      4.598137   158A      4.753801   159A      4.865926  
     160A      5.159181  

    Final Occupation by Irrep:
              A 
    DOCC [    36 ]

  Energy converged.

  @DF-RHF Final Energy:  -509.02327154015461

   => Energetics <=

    Nuclear Repulsion Energy =            502.7599721898791358
    One-Electron Energy =               -1691.9328838224564606
    Two-Electron Energy =                 680.1496400924227146
    DFT Exchange-Correlation Energy =       0.0000000000000000
    Empirical Dispersion Energy =           0.0000000000000000
    PCM Polarization Energy =               0.0000000000000000
    EFP Energy =                            0.0000000000000000
    Total Energy =                       -509.0232715401546102

    Alert: EFP and PCM quantities not currently incorporated into SCF psivars.

Properties will be evaluated at   0.000000,   0.000000,   0.000000 Bohr
  ==> Properties <==


Properties computed using the SCF density matrix

  Nuclear Dipole Moment: (a.u.)
     X:     2.4455      Y:    -1.7147      Z:    -5.9626

  Electronic Dipole Moment: (a.u.)
     X:    -2.0026      Y:     0.9024      Z:     4.2934

  Dipole Moment: (a.u.)
     X:     0.4429      Y:    -0.8123      Z:    -1.6692     Total:     1.9085

  Dipole Moment: (Debye)
     X:     1.1257      Y:    -2.0646      Z:    -4.2428     Total:     4.8509


  Saving occupied orbitals to File 180.

*** tstop() called on cx1-1-1-2.cx1.hpc.ic.ac.uk at Fri Sep  2 13:58:52 2016
Module time:
	user time   =      22.82 seconds =       0.38 minutes
	system time =       0.32 seconds =       0.01 minutes
	total time  =          7 seconds =       0.12 minutes
Total time:
	user time   =      78.82 seconds =       1.31 minutes
	system time =       0.99 seconds =       0.02 minutes
	total time  =         24 seconds =       0.40 minutes

*** tstart() called on cx1-1-1-2.cx1.hpc.ic.ac.uk
*** at Fri Sep  2 13:58:52 2016


         ------------------------------------------------------------
                                   SCF GRAD                          
                          Rob Parrish, Justin Turney,                
                       Andy Simmonett, and Alex Sokolov              
         ------------------------------------------------------------

  ==> Geometry <==

    Molecular point group: c1
    Full point group: C1

    Geometry (in Angstrom), charge = 0, multiplicity = 1:

       Center              X                  Y                   Z               Mass       
    ------------   -----------------  -----------------  -----------------  -----------------
           H          2.058122931682    -2.736411486765    -0.759914135411     1.007825032070
           O          2.361079542980    -1.837806002298    -0.757646297002    15.994914619560
           C          1.314660942255    -0.966097063906    -0.810675026610    12.000000000000
           C          0.967647671587    -0.376552205648    -2.023236147770    12.000000000000
           C          0.634034348204    -0.625199751310     0.339404525966    12.000000000000
           H          1.523596759866    -0.647120811331    -2.901222428751     1.007825032070
           C         -0.056444371845     0.549780203777    -2.086605276169    12.000000000000
           H          0.897309556321    -1.054372351871     1.284494508814     1.007825032070
           C         -0.393557009110     0.299847536819     0.246257526603    12.000000000000
           H         -0.315193643448     1.002774578365    -3.025997939572     1.007825032070
           C         -0.757724430041     0.897269076884    -0.942570458217    12.000000000000
           N         -1.118970085898     0.657207506894     1.463292167591    14.003074004780
           H         -1.556289798585     1.609584309518    -0.968910065039     1.007825032070
           O         -0.816130583128     0.100773566830     2.475105492510    15.994914619560
           O         -2.011493171154     1.442459547097     1.362264490184    15.994914619560

  Nuclear repulsion =  502.759972189879136

  ==> Basis Set <==

  Basis Set: 6-31G*
    Number of shells: 70
    Number of basis function: 160
    Number of Cartesian functions: 160
    Spherical Harmonics?: false
    Max angular momentum: 2

  ==> DFJKGrad: Density-Fitted SCF Gradients <==

    Gradient:                    1
    J tasked:                  Yes
    K tasked:                  Yes
    wK tasked:                  No
    OpenMP threads:              4
    Integrals threads:           4
    Memory (MB):              1430
    Schwarz Cutoff:          0E+00
    Fitting Condition:       1E-12

   => Auxiliary Basis Set <=

  Basis Set: 
    Number of shells: 285
    Number of basis function: 935
    Number of Cartesian functions: 935
    Spherical Harmonics?: false
    Max angular momentum: 3


  -Total Gradient:
     Atom            X                  Y                   Z
    ------   -----------------  -----------------  -----------------
       1        0.000754968784    -0.000136225789    -0.000772437332
       2       -0.001816564002     0.000553341000     0.001285842649
       3        0.003127006412    -0.002701737404     0.004023489398
       4       -0.003637113418     0.002186727920    -0.002145524125
       5        0.001697219794    -0.001589810706    -0.001685032670
       6        0.000058205659     0.000062583696     0.000560427212
       7        0.001306088302     0.000034850154    -0.000936797241
       8       -0.000308942377     0.000248680622     0.000134665810
       9       -0.001906447699    -0.000847781605    -0.002093574608
      10       -0.000342499502     0.000337863284    -0.000192393282
      11       -0.000923902483    -0.000195231644     0.001153749433
      12        0.006524052220     0.008185092105     0.002078705404
      13       -0.000001770490    -0.000024135576    -0.000227279455
      14       -0.002679603299    -0.002747404561    -0.000246094613
      15       -0.001850697907    -0.003366811497    -0.000937746578


*** tstop() called on cx1-1-1-2.cx1.hpc.ic.ac.uk at Fri Sep  2 13:58:59 2016
Module time:
	user time   =      26.38 seconds =       0.44 minutes
	system time =       0.28 seconds =       0.00 minutes
	total time  =          7 seconds =       0.12 minutes
Total time:
	user time   =     105.22 seconds =       1.75 minutes
	system time =       1.27 seconds =       0.02 minutes
	total time  =         31 seconds =       0.52 minutes
CURRENT ENERGY: -509.0232715402

			-----------------------------------------
			 OPTKING 2.0: for geometry optimizations 
			  - R.A. King,  Bethel University        
			-----------------------------------------

	Previous internal coordinate definitions found.
	---Fragment 1 Geometry and Gradient---
	 H           3.8892886887       -5.1710682969       -1.4360296004
	 O           4.4617937142       -3.4729500297       -1.4317440069
	 C           2.4843491385       -1.8256588686       -1.5319537831
	 C           1.8285890924       -0.7115805434       -3.8233622214
	 C           1.1981512769       -1.1814563083        0.6413816023
	 H           2.8791806131       -1.2228811083       -5.4825158409
	 C          -0.1066644045        1.0389340184       -3.9431125194
	 H           1.6956693179       -1.9924749871        2.4273428409
	 C          -0.7437149649        0.5666297262        0.4653592834
	 H          -0.5956296649        1.8949693261       -5.7183073845
	 C          -1.4318916570        1.6955928228       -1.7812000270
	 N          -2.1145470132        1.2419422005        2.7652214491
	 H          -2.9409615027        3.0416735328       -1.8309746703
	 O          -1.5422632908        0.1904344427        4.6772715308
	 O          -3.8011712117        2.7258535018        2.5743068070
	             0.0007549688       -0.0001362258       -0.0007724373
	            -0.0018165640        0.0005533410        0.0012858426
	             0.0031270064       -0.0027017374        0.0040234894
	            -0.0036371134        0.0021867279       -0.0021455241
	             0.0016972198       -0.0015898107       -0.0016850327
	             0.0000582057        0.0000625837        0.0005604272
	             0.0013060883        0.0000348502       -0.0009367972
	            -0.0003089424        0.0002486806        0.0001346658
	            -0.0019064477       -0.0008477816       -0.0020935746
	            -0.0003424995        0.0003378633       -0.0001923933
	            -0.0009239025       -0.0001952316        0.0011537494
	             0.0065240522        0.0081850921        0.0020787054
	            -0.0000017705       -0.0000241356       -0.0002272795
	            -0.0026796033       -0.0027474046       -0.0002460946
	            -0.0018506979       -0.0033668115       -0.0009377466

	---Fragment 1 Intrafragment Coordinates---
	 - Coordinate -           - BOHR/RAD -       - ANG/DEG -
	 R(1,2)           =         1.792034	       0.948304
	 R(2,3)           =         2.575635	       1.362968
	 R(3,4)           =         2.630921	       1.392223
	 R(3,5)           =         2.606279	       1.379183
	 R(4,6)           =         2.029276	       1.073847
	 R(4,7)           =         2.612250	       1.382343
	 R(5,8)           =         2.023594	       1.070840
	 R(5,9)           =         2.618708	       1.385761
	 R(7,10)          =         2.030566	       1.074530
	 R(7,11)          =         2.619407	       1.386131
	 R(9,11)          =         2.606755	       1.379436
	 R(9,12)          =         2.761267	       1.461199
	 R(11,13)         =         2.022796	       1.070417
	 R(12,14)         =         2.255906	       1.193774
	 R(12,15)         =         2.254583	       1.193074
	 B(1,2,3)         =         1.939794	     111.142026
	 B(2,3,4)         =         2.089871	     119.740786
	 B(2,3,5)         =         2.099628	     120.299801
	 B(3,4,6)         =         2.067309	     118.448085
	 B(3,4,7)         =         2.104059	     120.553714
	 B(3,5,8)         =         2.112465	     121.035356
	 B(3,5,9)         =         2.065640	     118.352438
	 B(4,3,5)         =         2.092781	     119.907545
	 B(4,7,10)        =         2.095523	     120.064642
	 B(4,7,11)        =         2.100139	     120.329088
	 B(5,9,11)        =         2.144561	     122.874285
	 B(5,9,12)        =         2.066224	     118.385894
	 B(6,4,7)         =         2.111697	     120.991320
	 B(7,11,9)        =         2.059141	     117.980108
	 B(7,11,13)       =         2.122279	     121.597652
	 B(8,5,9)         =         2.105020	     120.608785
	 B(9,11,13)       =         2.101755	     120.421688
	 B(9,12,14)       =         2.055572	     117.775610
	 B(9,12,15)       =         2.050850	     117.505057
	 B(10,7,11)       =         2.087519	     119.606010
	 B(11,9,12)       =         2.072399	     118.739720
	 B(14,12,15)      =         2.175274	     124.634015
	*D(1,2,3,4)       =        -1.745329	    -100.000005
	 D(1,2,3,5)       =         1.442016	      82.621425
	 D(2,3,4,6)       =         0.028369	       1.625440
	 D(2,3,4,7)       =        -3.096734	    -177.429767
	 D(2,3,5,8)       =        -0.026653	      -1.527098
	 D(2,3,5,9)       =         3.103267	     177.804084
	 D(3,4,7,10)      =         3.137442	     179.762203
	 D(3,4,7,11)      =        -0.007405	      -0.424254
	 D(3,5,9,11)      =        -0.006606	      -0.378487
	 D(3,5,9,12)      =         3.137028	     179.738482
	 D(4,3,5,8)       =        -3.122417	    -178.901288
	 D(4,3,5,9)       =         0.007503	       0.429894
	 D(4,7,11,9)      =         0.008284	       0.474613
	 D(4,7,11,13)     =        -3.138008	    -179.794603
	 D(5,3,4,6)       =         3.124391	     179.014401
	 D(5,3,4,7)       =        -0.000712	      -0.040805
	 D(5,9,11,7)      =        -0.001291	      -0.073976
	 D(5,9,11,13)     =        -3.138243	    -179.808061
	 D(5,9,12,14)     =        -0.039897	      -2.285956
	 D(5,9,12,15)     =        -3.125618	    -179.084739
	 D(6,4,7,10)      =         0.012763	       0.731250
	 D(6,4,7,11)      =        -3.132084	    -179.455207
	 D(7,11,9,12)     =         3.138253	     179.808661
	 D(8,5,9,11)      =         3.123365	     178.955659
	 D(8,5,9,12)      =        -0.016186	      -0.927372
	 D(9,11,7,10)     =        -3.136548	    -179.710990
	 D(10,7,11,13)    =         0.000345	       0.019794
	 D(11,9,12,14)    =         3.103651	     177.826084
	 D(11,9,12,15)    =         0.017930	       1.027301
	 D(12,9,11,13)    =         0.001302	       0.074576

	Current energy   :      -509.0232715402

	Energy change for the previous step:
		Projected    :        -0.0012629724
		Actual       :        -0.0005607887

	Performing BFGS update.
	Previous computed or guess Hessian on step 1.
	Steps to be used in Hessian update: 1
	Taking RFO optimization step.
	Going to follow RFO solution 1.
	Using RFO vector 1.

	Determining step-restricting scale parameter for RS-RFO.
	Maximum step size allowed    0.50000

	 Iter      |step|        alpha        rfo_root  
	------------------------------------------------
	    0     0.70182       1.00000           1
	    1     0.56198       1.80984           1
	    2     0.50909       2.31831           1
	    3     0.50025       2.42039           1
	    4     0.50000       2.42334           1
	------------------------------------------------
	Norm of target step-size    0.50000
	Projected energy change by RFO approximation:        -0.0080111931

	Back-transformation to cartesian coordinates...
	Successfully converged to displaced geometry.

	Back-transformation to cartesian coordinates to adjust frozen coordinates...
	Successfully converged to displaced geometry.

	--- Internal Coordinate Step in ANG or DEG, aJ/ANG or AJ/DEG ---
	 ---------------------------------------------------------------------------
	   Coordinate                Previous        Force       Change         New 
	   ----------                --------       ------       ------       ------
	    1 R(1,2)          =      0.948304     0.000908     0.001774     0.950077
	    2 R(2,3)          =      1.362968     0.008748     0.031173     1.394141
	    3 R(3,4)          =      1.392223    -0.032588    -0.001688     1.390536
	    4 R(3,5)          =      1.379183     0.015613    -0.002814     1.376370
	    5 R(4,6)          =      1.073847     0.003657     0.000758     1.074605
	    6 R(4,7)          =      1.382343     0.004640     0.006193     1.388536
	    7 R(5,8)          =      1.070840     0.000468    -0.002605     1.068235
	    8 R(5,9)          =      1.385761    -0.012040    -0.000838     1.384923
	    9 R(7,10)         =      1.074530    -0.003239     0.000280     1.074810
	   10 R(7,11)         =      1.386131    -0.000164    -0.004784     1.381347
	   11 R(9,11)         =      1.379436     0.003932     0.005756     1.385191
	   12 R(9,12)         =      1.461199    -0.002159    -0.000552     1.460647
	   13 R(11,13)        =      1.070417     0.000075     0.000376     1.070793
	   14 R(12,14)        =      1.193774    -0.003232    -0.000950     1.192824
	   15 R(12,15)        =      1.193074     0.006196     0.001279     1.194353
	   16 B(1,2,3)        =    111.142026    -0.000099    -0.530716   110.611311
	   17 B(2,3,4)        =    119.740786    -0.000093     4.569083   124.309869
	   18 B(2,3,5)        =    120.299801    -0.000026    -4.650820   115.648981
	   19 B(3,4,6)        =    118.448085     0.000074    -0.250242   118.197843
	   20 B(3,4,7)        =    120.553714    -0.000102     0.710572   121.264287
	   21 B(3,5,8)        =    121.035356    -0.000030    -1.359133   119.676224
	   22 B(3,5,9)        =    118.352438    -0.000004     0.040033   118.392471
	   23 B(4,3,5)        =    119.907545     0.000120    -0.123797   119.783748
	   24 B(4,7,10)       =    120.064642    -0.000052     0.819180   120.883821
	   25 B(4,7,11)       =    120.329088     0.000052    -1.072835   119.256253
	   26 B(5,9,11)       =    122.874285    -0.000087    -0.310300   122.563985
	   27 B(5,9,12)       =    118.385894     0.000015     0.576341   118.962235
	   28 B(6,4,7)        =    120.991320     0.000028    -0.485865   120.505455
	   29 B(7,11,9)       =    117.980108     0.000022     0.745425   118.725532
	   30 B(7,11,13)      =    121.597652     0.000006    -0.377095   121.220558
	   31 B(8,5,9)        =    120.608785     0.000034     1.308458   121.917243
	   32 B(9,11,13)      =    120.421688    -0.000028    -0.368923   120.052765
	   33 B(9,12,14)      =    117.775610    -0.000046    -1.183697   116.591913
	   34 B(9,12,15)      =    117.505057     0.000071    -1.539607   115.965450
	   35 B(10,7,11)      =    119.606010    -0.000000     0.253241   119.859250
	   36 B(11,9,12)      =    118.739720     0.000073    -0.266717   118.473004
	   37 B(14,12,15)     =    124.634015     0.000006    -1.562654   123.071361
	   38 *D(1,2,3,4)     =   -100.000005     0.000000    -0.000000  -100.000005
	   39 D(1,2,3,5)      =     82.621425    -0.000005     3.240812    85.862237
	   40 D(2,3,4,6)      =      1.625440    -0.000002     2.292651     3.918090
	   41 D(2,3,4,7)      =   -177.429767    -0.000005     3.408931  -174.020836
	   42 D(2,3,5,8)      =     -1.527098     0.000002    -1.669635    -3.196733
	   43 D(2,3,5,9)      =    177.804084     0.000005    -2.338544   175.465540
	   44 D(3,4,7,10)     =    179.762203     0.000001    -0.291078   179.471125
	   45 D(3,4,7,11)     =     -0.424254     0.000002    -0.404056    -0.828310
	   46 D(3,5,9,11)     =     -0.378487    -0.000003    -0.712306    -1.090793
	   47 D(3,5,9,12)     =    179.738482    -0.000002    -0.503549   179.234933
	   48 D(4,3,5,8)      =   -178.901288    -0.000002     1.282829  -177.618459
	   49 D(4,3,5,9)      =      0.429894     0.000001     0.613920     1.043814
	   50 D(4,7,11,9)     =      0.474613    -0.000004     0.317038     0.791652
	   51 D(4,7,11,13)    =   -179.794603    -0.000001     0.197125  -179.597478
	   52 D(5,3,4,6)      =    179.014401     0.000003    -1.186050   177.828351
	   53 D(5,3,4,7)      =     -0.040805    -0.000001    -0.069770    -0.110575
	   54 D(5,9,11,7)     =     -0.073976     0.000004     0.237600     0.163624
	   55 D(5,9,11,13)    =   -179.808061     0.000001     0.356145  -179.451915
	   56 D(5,9,12,14)    =     -2.285956     0.000066    12.348938    10.062982
	   57 D(5,9,12,15)    =   -179.084739    -0.000068   -13.553738  -192.638477
	   58 D(6,4,7,10)     =      0.731250    -0.000003     0.848193     1.579443
	   59 D(6,4,7,11)     =   -179.455207    -0.000002     0.735215  -178.719992
	   60 D(7,11,9,12)    =    179.808661     0.000003     0.030757   179.839418
	   61 D(8,5,9,11)     =    178.955659     0.000000    -1.415744   177.539916
	   62 D(8,5,9,12)     =     -0.927372     0.000001    -1.206986    -2.134358
	   63 D(9,11,7,10)    =   -179.710990    -0.000002     0.206328  -179.504662
	   64 D(10,7,11,13)   =      0.019794     0.000001     0.086415     0.106209
	   65 D(11,9,12,14)   =    177.826084     0.000067    12.549192   190.375276
	   66 D(11,9,12,15)   =      1.027301    -0.000067   -13.353484   -12.326183
	   67 D(12,9,11,13)   =      0.074576     0.000000     0.149302     0.223878
	 ---------------------------------------------------------------------------

  ==> Convergence Check <==

  Measures of convergence in internal coordinates in au.
  Criteria marked as inactive (o), active & met (*), and active & unmet ( ).
  ---------------------------------------------------------------------------------------------
   Step     Total Energy     Delta E     MAX Force     RMS Force      MAX Disp      RMS Disp   
  ---------------------------------------------------------------------------------------------
    Convergence Criteria    1.00e-06 *    3.00e-04 *             o    1.20e-03 *             o
  ---------------------------------------------------------------------------------------------
      2    -509.02327154   -5.61e-04      3.96e-03      1.20e-03 o    2.37e-01      5.98e-02 o  ~
  ---------------------------------------------------------------------------------------------

	Writing optimization data to binary file.
	Structure for next step:
	Cartesian Geometry (in Angstrom)
	    H     2.1049116279  -2.7402171864  -0.6948255103
	    O     2.3830074448  -1.8320958023  -0.6698268084
	    C     1.2918738969  -0.9799869201  -0.8340402069
	    C     0.9550046035  -0.3598701474  -2.0321903586
	    C     0.6011216832  -0.6683353630   0.3149280306
	    H     1.5339220346  -0.5956412101  -2.9062851666
	    C    -0.0719565083   0.5724106961  -2.0972817639
	    H     0.8861059737  -1.1170360314   1.2415226148
	    C    -0.4337896715   0.2483195120   0.2329885177
	    H    -0.3216593975   1.0542738733  -3.0250061584
	    C    -0.7822114695   0.8754639626  -0.9519365214
	    N    -1.1861581065   0.5755233591   1.4414460571
	    H    -1.5842974360   1.5846965343  -0.9675947789
	    O    -0.7441296925   0.1690394569   2.4720819953
	    O    -1.9010961146   1.5295917909   1.3700604524
			--------------------------
			 OPTKING Finished Execution 
			--------------------------

    Structure for next step:
    Molecular point group: c1
    Full point group: C1

    Geometry (in Angstrom), charge = 0, multiplicity = 1:

    H            2.100912481628    -2.742750621707    -0.695640485544
    O            2.379008277337    -1.834629306984    -0.670641785550
    C            1.287874812687    -0.982520489831    -0.834855171500
    C            0.951005545016    -0.362403764493    -2.033005231641
    C            0.597122651761    -0.670868956471     0.314112978304
    H            1.529922931985    -0.598174809149    -2.907099972938
    C           -0.075955488313     0.569877007803    -2.098096632011
    H            0.882106920548    -1.119569590623     1.240707491690
    C           -0.437788623915     0.245785848520     0.232173471665
    H           -0.325658358442     1.051740148246    -3.025820955651
    C           -0.786210395258     0.872930251229    -0.952751476987
    N           -1.190157001483     0.572989670563     1.440630918738
    H           -1.588296300537     1.582162768688    -0.968409733319
    O           -0.748128621154     0.166505799459     2.471266778292
    O           -1.905094954988     1.527058029573     1.369245319545

gradient() will perform analytic gradient computation.

*** tstart() called on cx1-1-1-2.cx1.hpc.ic.ac.uk
*** at Fri Sep  2 13:58:59 2016


         ---------------------------------------------------------
                                   SCF
            by Justin Turney, Rob Parrish, and Andy Simmonett
                              RHF Reference
                        4 Threads,   2000 MiB Core
         ---------------------------------------------------------

  ==> Geometry <==

    Molecular point group: c1
    Full point group: C1

    Geometry (in Angstrom), charge = 0, multiplicity = 1:

       Center              X                  Y                   Z               Mass       
    ------------   -----------------  -----------------  -----------------  -----------------
           H          2.100912481628    -2.742750621707    -0.695640485544     1.007825032070
           O          2.379008277337    -1.834629306984    -0.670641785550    15.994914619560
           C          1.287874812687    -0.982520489831    -0.834855171500    12.000000000000
           C          0.951005545016    -0.362403764493    -2.033005231641    12.000000000000
           C          0.597122651761    -0.670868956471     0.314112978304    12.000000000000
           H          1.529922931985    -0.598174809149    -2.907099972938     1.007825032070
           C         -0.075955488313     0.569877007803    -2.098096632011    12.000000000000
           H          0.882106920548    -1.119569590623     1.240707491690     1.007825032070
           C         -0.437788623915     0.245785848520     0.232173471665    12.000000000000
           H         -0.325658358442     1.051740148246    -3.025820955651     1.007825032070
           C         -0.786210395258     0.872930251229    -0.952751476987    12.000000000000
           N         -1.190157001483     0.572989670563     1.440630918738    14.003074004780
           H         -1.588296300537     1.582162768688    -0.968409733319     1.007825032070
           O         -0.748128621154     0.166505799459     2.471266778292    15.994914619560
           O         -1.905094954988     1.527058029573     1.369245319545    15.994914619560

  Running in c1 symmetry.

  Rotational constants: A =      0.09017  B =      0.03397  C =      0.02477 [cm^-1]
  Rotational constants: A =   2703.36057  B =   1018.40810  C =    742.45136 [MHz]
  Nuclear repulsion =  502.641653608867841

  Charge       = 0
  Multiplicity = 1
  Electrons    = 72
  Nalpha       = 36
  Nbeta        = 36

  ==> Algorithm <==

  SCF Algorithm Type is DF.
  DIIS enabled.
  MOM disabled.
  Fractional occupation disabled.
  Guess Type is READ.
  Energy threshold   = 1.00e-08
  Density threshold  = 1.00e-08
  Integral threshold = 0.00e+00

  ==> Primary Basis <==

  Basis Set: 6-31G*
    Number of shells: 70
    Number of basis function: 160
    Number of Cartesian functions: 160
    Spherical Harmonics?: false
    Max angular momentum: 2

  ==> Pre-Iterations <==

   -------------------------------------------------------
    Irrep   Nso     Nmo     Nalpha   Nbeta   Ndocc  Nsocc
   -------------------------------------------------------
     A        160     160       0       0       0       0
   -------------------------------------------------------
    Total     160     160      36      36      36       0
   -------------------------------------------------------

 OEINTS: Overlap, kinetic, potential, dipole, and quadrupole integrals
         stored in file 35.

  ==> Integral Setup <==

  ==> DFJK: Density-Fitted J/K Matrices <==

    J tasked:                  Yes
    K tasked:                  Yes
    wK tasked:                  No
    OpenMP threads:              4
    Integrals threads:           4
    Memory (MB):              1430
    Algorithm:                Core
    Integral Cache:           NONE
    Schwarz Cutoff:          1E-12
    Fitting Condition:       1E-12

   => Auxiliary Basis Set <=

  Basis Set: 
    Number of shells: 285
    Number of basis function: 935
    Number of Cartesian functions: 935
    Spherical Harmonics?: false
    Max angular momentum: 3

  Minimum eigenvalue in the overlap matrix is 4.1339214711E-04.
  Using Symmetric Orthogonalization.
  SCF Guess: Reading in previously saved MOs, projecting if necessary.

  Using orbitals from previous SCF, no projection.
  Recomputing DOCC and SOCC from number of alpha and beta electrons from previous calculation.
              A 
    DOCC [    36 ]

  ==> Iterations <==

                           Total Energy        Delta E     RMS |[F,P]|

   @DF-RHF iter   0:  -508.85809502847667   -5.08858e+02   3.39460e-03 
   @DF-RHF iter   1:  -508.99687205259886   -1.38777e-01   7.04914e-04 
   @DF-RHF iter   2:  -509.00610048563510   -9.22843e-03   3.43883e-04 DIIS
   @DF-RHF iter   3:  -509.00793494796892   -1.83446e-03   1.49450e-04 DIIS
   @DF-RHF iter   4:  -509.00856210673680   -6.27159e-04   6.35057e-05 DIIS
   @DF-RHF iter   5:  -509.00868511084707   -1.23004e-04   2.74974e-05 DIIS
   @DF-RHF iter   6:  -509.00874521879155   -6.01079e-05   1.39820e-05 DIIS
   @DF-RHF iter   7:  -509.00875846270503   -1.32439e-05   6.08481e-06 DIIS
   @DF-RHF iter   8:  -509.00875996119953   -1.49849e-06   1.80341e-06 DIIS
   @DF-RHF iter   9:  -509.00876005590396   -9.47044e-08   6.85840e-07 DIIS
   @DF-RHF iter  10:  -509.00876006890996   -1.30060e-08   2.20305e-07 DIIS
   @DF-RHF iter  11:  -509.00876007057548   -1.66551e-09   8.55760e-08 DIIS
   @DF-RHF iter  12:  -509.00876007083468   -2.59206e-10   2.35497e-08 DIIS
   @DF-RHF iter  13:  -509.00876007086993   -3.52429e-11   1.14878e-08 DIIS
   @DF-RHF iter  14:  -509.00876007087732   -7.38964e-12   6.36643e-09 DIIS

  ==> Post-Iterations <==

    Orbital Energies (a.u.)
    -----------------------

    Doubly Occupied:                                                      

       1A    -20.604137     2A    -20.602948     3A    -20.600879  
       4A    -15.856723     5A    -11.321583     6A    -11.309936  
       7A    -11.269724     8A    -11.269185     9A    -11.267166  
      10A    -11.266922    11A     -1.639235    12A     -1.418031  
      13A     -1.405830    14A     -1.199987    15A     -1.093205  
      16A     -1.048232    17A     -0.962844    18A     -0.865074  
      19A     -0.832939    20A     -0.790620    21A     -0.737885  
      22A     -0.733951    23A     -0.716147    24A     -0.708604  
      25A     -0.678179    26A     -0.642752    27A     -0.619700  
      28A     -0.564930    29A     -0.552866    30A     -0.528644  
      31A     -0.512728    32A     -0.489416    33A     -0.484324  
      34A     -0.451734    35A     -0.375755    36A     -0.360220  

    Virtual:                                                              

      37A      0.054848    38A      0.118452    39A      0.164950  
      40A      0.213133    41A      0.228116    42A      0.289658  
      43A      0.294252    44A      0.323696    45A      0.349171  
      46A      0.388013    47A      0.413616    48A      0.435790  
      49A      0.458417    50A      0.516381    51A      0.542063  
      52A      0.551517    53A      0.618233    54A      0.680615  
      55A      0.692693    56A      0.707655    57A      0.716201  
      58A      0.757043    59A      0.785377    60A      0.796285  
      61A      0.798372    62A      0.807813    63A      0.834731  
      64A      0.870439    65A      0.875656    66A      0.885801  
      67A      0.897490    68A      0.942601    69A      0.978371  
      70A      0.981605    71A      1.010171    72A      1.033403  
      73A      1.051594    74A      1.074022    75A      1.080739  
      76A      1.093929    77A      1.122123    78A      1.142053  
      79A      1.172259    80A      1.182016    81A      1.198074  
      82A      1.217467    83A      1.233512    84A      1.259032  
      85A      1.270328    86A      1.290430    87A      1.298722  
      88A      1.336269    89A      1.379621    90A      1.384313  
      91A      1.402177    92A      1.450358    93A      1.464311  
      94A      1.500452    95A      1.517839    96A      1.562137  
      97A      1.575912    98A      1.655728    99A      1.681086  
     100A      1.722206   101A      1.729274   102A      1.740212  
     103A      1.768984   104A      1.788544   105A      1.896474  
     106A      1.961585   107A      1.987224   108A      2.019891  
     109A      2.035492   110A      2.052348   111A      2.062235  
     112A      2.112535   113A      2.146284   114A      2.158823  
     115A      2.206007   116A      2.233191   117A      2.237660  
     118A      2.262385   119A      2.270811   120A      2.278793  
     121A      2.357997   122A      2.392489   123A      2.437703  
     124A      2.443029   125A      2.446374   126A      2.487198  
     127A      2.544256   128A      2.594027   129A      2.596930  
     130A      2.625644   131A      2.699271   132A      2.739882  
     133A      2.816444   134A      2.845351   135A      2.878722  
     136A      2.910561   137A      2.946819   138A      2.970446  
     139A      3.019857   140A      3.079028   141A      3.095560  
     142A      3.106716   143A      3.161321   144A      3.253941  
     145A      3.262274   146A      3.296873   147A      3.380633  
     148A      3.464089   149A      3.595693   150A      3.826280  
     151A      4.135648   152A      4.269517   153A      4.308540  
     154A      4.365137   155A      4.498734   156A      4.533246  
     157A      4.580840   158A      4.746960   159A      4.846616  
     160A      5.153175  

    Final Occupation by Irrep:
              A 
    DOCC [    36 ]

  Energy converged.

  @DF-RHF Final Energy:  -509.00876007087732

   => Energetics <=

    Nuclear Repulsion Energy =            502.6416536088678413
    One-Electron Energy =               -1691.7347579744305222
    Two-Electron Energy =                 680.0843442946850246
    DFT Exchange-Correlation Energy =       0.0000000000000000
    Empirical Dispersion Energy =           0.0000000000000000
    PCM Polarization Energy =               0.0000000000000000
    EFP Energy =                            0.0000000000000000
    Total Energy =                       -509.0087600708777700

    Alert: EFP and PCM quantities not currently incorporated into SCF psivars.

Properties will be evaluated at   0.000000,   0.000000,   0.000000 Bohr
  ==> Properties <==


Properties computed using the SCF density matrix

  Nuclear Dipole Moment: (a.u.)
     X:     2.4386      Y:    -1.7147      Z:    -5.9478

  Electronic Dipole Moment: (a.u.)
     X:    -2.2026      Y:     0.7704      Z:     4.2375

  Dipole Moment: (a.u.)
     X:     0.2360      Y:    -0.9443      Z:    -1.7103     Total:     1.9679

  Dipole Moment: (Debye)
     X:     0.5999      Y:    -2.4002      Z:    -4.3471     Total:     5.0018


  Saving occupied orbitals to File 180.

*** tstop() called on cx1-1-1-2.cx1.hpc.ic.ac.uk at Fri Sep  2 13:59:07 2016
Module time:
	user time   =      23.91 seconds =       0.40 minutes
	system time =       0.36 seconds =       0.01 minutes
	total time  =          8 seconds =       0.13 minutes
Total time:
	user time   =     129.74 seconds =       2.16 minutes
	system time =       1.66 seconds =       0.03 minutes
	total time  =         39 seconds =       0.65 minutes

*** tstart() called on cx1-1-1-2.cx1.hpc.ic.ac.uk
*** at Fri Sep  2 13:59:07 2016


         ------------------------------------------------------------
                                   SCF GRAD                          
                          Rob Parrish, Justin Turney,                
                       Andy Simmonett, and Alex Sokolov              
         ------------------------------------------------------------

  ==> Geometry <==

    Molecular point group: c1
    Full point group: C1

    Geometry (in Angstrom), charge = 0, multiplicity = 1:

       Center              X                  Y                   Z               Mass       
    ------------   -----------------  -----------------  -----------------  -----------------
           H          2.100912481628    -2.742750621707    -0.695640485544     1.007825032070
           O          2.379008277337    -1.834629306984    -0.670641785550    15.994914619560
           C          1.287874812687    -0.982520489831    -0.834855171500    12.000000000000
           C          0.951005545016    -0.362403764493    -2.033005231641    12.000000000000
           C          0.597122651761    -0.670868956471     0.314112978304    12.000000000000
           H          1.529922931985    -0.598174809149    -2.907099972938     1.007825032070
           C         -0.075955488313     0.569877007803    -2.098096632011    12.000000000000
           H          0.882106920548    -1.119569590623     1.240707491690     1.007825032070
           C         -0.437788623915     0.245785848520     0.232173471665    12.000000000000
           H         -0.325658358442     1.051740148246    -3.025820955651     1.007825032070
           C         -0.786210395258     0.872930251229    -0.952751476987    12.000000000000
           N         -1.190157001483     0.572989670563     1.440630918738    14.003074004780
           H         -1.588296300537     1.582162768688    -0.968409733319     1.007825032070
           O         -0.748128621154     0.166505799459     2.471266778292    15.994914619560
           O         -1.905094954988     1.527058029573     1.369245319545    15.994914619560

  Nuclear repulsion =  502.641653608867841

  ==> Basis Set <==

  Basis Set: 6-31G*
    Number of shells: 70
    Number of basis function: 160
    Number of Cartesian functions: 160
    Spherical Harmonics?: false
    Max angular momentum: 2

  ==> DFJKGrad: Density-Fitted SCF Gradients <==

    Gradient:                    1
    J tasked:                  Yes
    K tasked:                  Yes
    wK tasked:                  No
    OpenMP threads:              4
    Integrals threads:           4
    Memory (MB):              1430
    Schwarz Cutoff:          0E+00
    Fitting Condition:       1E-12

   => Auxiliary Basis Set <=

  Basis Set: 
    Number of shells: 285
    Number of basis function: 935
    Number of Cartesian functions: 935
    Spherical Harmonics?: false
    Max angular momentum: 3


  -Total Gradient:
[...]
       5        0.000183468788    -0.000146699736    -0.000123549006
       6        0.000012002813    -0.000003042408     0.000017320399
       7        0.000140005493    -0.000143783218    -0.000126915043
       8       -0.000003856669     0.000012728148     0.000002747368
       9       -0.000152503797     0.000126562641    -0.000131621912
      10       -0.000016431286     0.000012745410     0.000004282564
      11        0.000021190857     0.000009959344     0.000212110801
      12        0.000084302808     0.000028578189    -0.000021872831
      13        0.000006951853    -0.000014483077    -0.000025613160
      14       -0.000094294627     0.000056502333    -0.000032224221
      15       -0.000007360547    -0.000061147709     0.000109387575


*** tstop() called on cx1-1-1-2.cx1.hpc.ic.ac.uk at Fri Sep  2 14:00:10 2016
Module time:
	user time   =      26.40 seconds =       0.44 minutes
	system time =       0.29 seconds =       0.00 minutes
	total time  =          7 seconds =       0.12 minutes
Total time:
	user time   =     349.28 seconds =       5.82 minutes
	system time =       4.33 seconds =       0.07 minutes
	total time  =        102 seconds =       1.70 minutes
CURRENT ENERGY: -509.0235550801

			-----------------------------------------
			 OPTKING 2.0: for geometry optimizations 
			  - R.A. King,  Bethel University        
			-----------------------------------------

	Previous internal coordinate definitions found.
	---Fragment 1 Geometry and Gradient---
	 H           3.8658876125       -5.1623989482       -1.4348123153
	 O           4.4601883235       -3.4714589724       -1.4336056683
	 C           2.4857686987       -1.8132203258       -1.5378030357
	 C           1.8419554925       -0.7092620483       -3.8251520901
	 C           1.1917723297       -1.1800545170        0.6409542413
	 H           2.8910378619       -1.2182498867       -5.4867767956
	 C          -0.1074351619        1.0322532273       -3.9429139682
	 H           1.6958614135       -2.0024861270        2.4198725651
	 C          -0.7543904406        0.5559438901        0.4669376680
	 H          -0.5956146419        1.8847256805       -5.7191053696
	 C          -1.4365316381        1.6845465282       -1.7860892551
	 N          -2.1336886093        1.2212044012        2.7624721860
	 H          -2.9508251386        3.0249593806       -1.8377844903
	 O          -1.5393678045        0.1896861141        4.6779162585
	 O          -3.7786063605        2.7539509160        2.5874592209
	             0.0000325590       -0.0000139776       -0.0008300788
	            -0.0001705663       -0.0002508735        0.0009599233
	             0.0004805416        0.0006896788        0.0002321579
	            -0.0005160099       -0.0003027477       -0.0002460550
	             0.0001834688       -0.0001466997       -0.0001235490
	             0.0000120028       -0.0000030424        0.0000173204
	             0.0001400055       -0.0001437832       -0.0001269150
	            -0.0000038567        0.0000127281        0.0000027474
	            -0.0001525038        0.0001265626       -0.0001316219
	            -0.0000164313        0.0000127454        0.0000042826
	             0.0000211909        0.0000099593        0.0002121108
	             0.0000843028        0.0000285782       -0.0000218728
	             0.0000069519       -0.0000144831       -0.0000256132
	            -0.0000942946        0.0000565023       -0.0000322242
	            -0.0000073605       -0.0000611477        0.0001093876

	---Fragment 1 Intrafragment Coordinates---
	 - Coordinate -           - BOHR/RAD -       - ANG/DEG -
	 R(1,2)           =         1.792337	       0.948464
	 R(2,3)           =         2.580493	       1.365538
	 R(3,4)           =         2.620150	       1.386524
	 R(3,5)           =         2.611955	       1.382187
	 R(4,6)           =         2.029936	       1.074196
	 R(4,7)           =         2.616652	       1.384673
	 R(5,8)           =         2.023623	       1.070855
	 R(5,9)           =         2.613718	       1.383120
	 R(7,10)          =         2.029750	       1.074097
	 R(7,11)          =         2.616080	       1.384370
	 R(9,11)          =         2.610592	       1.381466
	 R(9,12)          =         2.759441	       1.460233
	 R(11,13)         =         2.022984	       1.070517
	 R(12,14)         =         2.255255	       1.193429
	 R(12,15)         =         2.255149	       1.193373
	 B(1,2,3)         =         1.931062	     110.641687
	 B(2,3,4)         =         2.087489	     119.604296
	 B(2,3,5)         =         2.095722	     120.076052
	 B(3,4,6)         =         2.073683	     118.813287
	 B(3,4,7)         =         2.097591	     120.183093
	 B(3,5,8)         =         2.107553	     120.753901
	 B(3,5,9)         =         2.065025	     118.317189
	 B(4,3,5)         =         2.099404	     120.286963
	 B(4,7,10)        =         2.092188	     119.873515
	 B(4,7,11)        =         2.102889	     120.486658
	 B(5,9,11)        =         2.140235	     122.626435
	 B(5,9,12)        =         2.067948	     118.484715
	 B(6,4,7)         =         2.111873	     121.001397
	 B(7,11,9)        =         2.061199	     118.097986
	 B(7,11,13)       =         2.122853	     121.630541
	 B(8,5,9)         =         2.110572	     120.926877
	 B(9,11,13)       =         2.099132	     120.271382
	 B(9,12,14)       =         2.053920	     117.680969
	 B(9,12,15)       =         2.053177	     117.638361
	 B(10,7,11)       =         2.088109	     119.639819
	 B(11,9,12)       =         2.074999	     118.888672
	 B(14,12,15)      =         2.176085	     124.680463
	*D(1,2,3,4)       =        -1.745329	    -100.000005
	 D(1,2,3,5)       =         1.432451	      82.073381
	 D(2,3,4,6)       =         0.024289	       1.391655
	 D(2,3,4,7)       =        -3.107934	    -178.071475
	 D(2,3,5,8)       =        -0.019827	      -1.135997
	 D(2,3,5,9)       =         3.112796	     178.350089
	 D(3,4,7,10)      =         3.139258	     179.866230
	 D(3,4,7,11)      =        -0.002934	      -0.168081
	 D(3,5,9,11)      =        -0.007534	      -0.431671
	 D(3,5,9,12)      =         3.136770	     179.723694
	 D(4,3,5,8)       =        -3.124983	    -179.048324
	 D(4,3,5,9)       =         0.007640	       0.437762
	 D(4,7,11,9)      =         0.003153	       0.180638
	 D(4,7,11,13)     =        -3.140354	    -179.929002
	 D(5,3,4,6)       =         3.129617	     179.313824
	 D(5,3,4,7)       =        -0.002606	      -0.149307
	 D(5,9,11,7)      =         0.002153	       0.123384
	 D(5,9,11,13)     =        -3.137553	    -179.768525
	 D(5,9,12,14)     =        -0.024659	      -1.412857
	 D(5,9,12,15)     =         3.119684	     178.744737
	 D(6,4,7,10)      =         0.007244	       0.415025
	 D(6,4,7,11)      =        -3.134948	    -179.619286
	 D(7,11,9,12)     =         3.141024	     179.967418
	 D(8,5,9,11)      =         3.125073	     179.053488
	 D(8,5,9,12)      =        -0.013808	      -0.791147
	 D(9,11,7,10)     =        -3.139037	    -179.853592
	 D(10,7,11,13)    =         0.000642	       0.036768
	 D(11,9,12,14)    =         3.119542	     178.736589
	 D(11,9,12,15)    =        -0.019300	      -1.105817
	 D(12,9,11,13)    =         0.001318	       0.075510

	Current energy   :      -509.0235550801

	Energy change for the previous step:
		Projected    :         0.0000146656
		Actual       :        -0.0000024087

	Performing BFGS update.
	Previous computed or guess Hessian on step 1.
	Steps to be used in Hessian update: 6 5
	Taking RFO optimization step.
	Going to follow RFO solution 1.
	Using RFO vector 1.
	Norm of target step-size    0.00231
	Projected energy change by RFO approximation:        -0.0000007142

	Back-transformation to cartesian coordinates...
	Successfully converged to displaced geometry.

	Back-transformation to cartesian coordinates to adjust frozen coordinates...
	Successfully converged to displaced geometry.

	--- Internal Coordinate Step in ANG or DEG, aJ/ANG or AJ/DEG ---
	 ---------------------------------------------------------------------------
	   Coordinate                Previous        Force       Change         New 
	   ----------                --------       ------       ------       ------
	    1 R(1,2)          =      0.948464    -0.000024    -0.000001     0.948463
	    2 R(2,3)          =      1.365538    -0.000575    -0.000036     1.365502
	    3 R(3,4)          =      1.386524    -0.001161    -0.000271     1.386253
	    4 R(3,5)          =      1.382187     0.001197     0.000260     1.382448
	    5 R(4,6)          =      1.074196     0.000059    -0.000001     1.074195
	    6 R(4,7)          =      1.384673     0.001063     0.000254     1.384927
	    7 R(5,8)          =      1.070855     0.000031     0.000009     1.070865
	    8 R(5,9)          =      1.383120    -0.001260    -0.000271     1.382849
	    9 R(7,10)         =      1.074097    -0.000046    -0.000005     1.074093
	   10 R(7,11)         =      1.384370    -0.000989    -0.000245     1.384125
	   11 R(9,11)         =      1.381466     0.000800     0.000211     1.381677
	   12 R(9,12)         =      1.460233    -0.000498    -0.000077     1.460157
	   13 R(11,13)        =      1.070517     0.000117     0.000019     1.070536
	   14 R(12,14)        =      1.193429     0.000643     0.000041     1.193470
	   15 R(12,15)        =      1.193373     0.000368     0.000029     1.193403
	   16 B(1,2,3)        =    110.641687     0.000000    -0.000812   110.640874
	   17 B(2,3,4)        =    119.604296     0.000002     0.007935   119.612230
	   18 B(2,3,5)        =    120.076052    -0.000002    -0.009714   120.066338
	   19 B(3,4,6)        =    118.813287     0.000002     0.013839   118.827126
	   20 B(3,4,7)        =    120.183093    -0.000001    -0.005050   120.178043
	   21 B(3,5,8)        =    120.753901    -0.000001    -0.009746   120.744155
	   22 B(3,5,9)        =    118.317189    -0.000001    -0.000830   118.316360
	   23 B(4,3,5)        =    120.286963    -0.000000     0.001776   120.288739
	   24 B(4,7,10)       =    119.873515    -0.000002    -0.012883   119.860632
	   25 B(4,7,11)       =    120.486658     0.000001     0.005295   120.491952
	   26 B(5,9,11)       =    122.626435     0.000002     0.002409   122.628844
	   27 B(5,9,12)       =    118.484715     0.000002     0.009095   118.493810
	   28 B(6,4,7)        =    121.001397    -0.000001    -0.008800   120.992597
	   29 B(7,11,9)       =    118.097986    -0.000001    -0.003728   118.094258
	   30 B(7,11,13)      =    121.630541     0.000003     0.013484   121.644024
	   31 B(8,5,9)        =    120.926877     0.000001     0.010660   120.937537
	   32 B(9,11,13)      =    120.271382    -0.000001    -0.009831   120.261551
	   33 B(9,12,14)      =    117.680969    -0.000003    -0.005713   117.675256
	   34 B(9,12,15)      =    117.638361    -0.000008    -0.021744   117.616617
	   35 B(10,7,11)      =    119.639819     0.000001     0.007571   119.647389
	   36 B(11,9,12)      =    118.888672    -0.000004    -0.011509   118.877163
	   37 B(14,12,15)     =    124.680463     0.000011     0.027483   124.707946
	   38 *D(1,2,3,4)     =   -100.000005     0.000000    -0.000000  -100.000005
	   39 D(1,2,3,5)      =     82.073381    -0.000000     0.000052    82.073433
	   40 D(2,3,4,6)      =      1.391655    -0.000000     0.001770     1.393425
	   41 D(2,3,4,7)      =   -178.071475    -0.000000     0.003150  -178.068325
	   42 D(2,3,5,8)      =     -1.135997     0.000000    -0.000767    -1.136764
	   43 D(2,3,5,9)      =    178.350089     0.000000     0.010050   178.360138
	   44 D(3,4,7,10)     =    179.866230    -0.000000    -0.003157   179.863073
	   45 D(3,4,7,11)     =     -0.168081    -0.000000    -0.027486    -0.195566
	   46 D(3,5,9,11)     =     -0.431671     0.000000     0.001514    -0.430157
	   47 D(3,5,9,12)     =    179.723694     0.000000     0.003581   179.727275
	   48 D(4,3,5,8)      =   -179.048324    -0.000000    -0.000841  -179.049165
	   49 D(4,3,5,9)      =      0.437762     0.000000     0.009975     0.447737
	   50 D(4,7,11,9)     =      0.180638     0.000000     0.037995     0.218633
	   51 D(4,7,11,13)    =   -179.929002    -0.000000    -0.000353  -179.929355
	   52 D(5,3,4,6)      =    179.313824     0.000000     0.001476   179.315300
	   53 D(5,3,4,7)      =     -0.149307     0.000000     0.002857    -0.146451
	   54 D(5,9,11,7)     =      0.123384    -0.000000    -0.025315     0.098069
	   55 D(5,9,11,13)    =   -179.768525     0.000000     0.012455  -179.756070
	   56 D(5,9,12,14)    =     -1.412857     0.000000    -0.027768    -1.440625
	   57 D(5,9,12,15)    =    178.744737    -0.000001    -0.038219   178.706518
	   58 D(6,4,7,10)     =      0.415025    -0.000000    -0.001870     0.413155
	   59 D(6,4,7,11)     =   -179.619286    -0.000000    -0.026198  -179.645484
	   60 D(7,11,9,12)    =    179.967418    -0.000000    -0.027359   179.940059
	   61 D(8,5,9,11)     =    179.053488     0.000000     0.012243   179.065731
	   62 D(8,5,9,12)     =     -0.791147     0.000000     0.014310    -0.776837
	   63 D(9,11,7,10)    =   -179.853592     0.000000     0.013710  -179.839882
	   64 D(10,7,11,13)   =      0.036768    -0.000000    -0.024637     0.012131
	   65 D(11,9,12,14)   =    178.736589     0.000000    -0.025801   178.710788
	   66 D(11,9,12,15)   =     -1.105817    -0.000001    -0.036252    -1.142068
	   67 D(12,9,11,13)   =      0.075510     0.000000     0.010411     0.085921
	 ---------------------------------------------------------------------------

  ==> Convergence Check <==

  Measures of convergence in internal coordinates in au.
  Criteria marked as inactive (o), active & met (*), and active & unmet ( ).
  ---------------------------------------------------------------------------------------------
   Step     Total Energy     Delta E     MAX Force     RMS Force      MAX Disp      RMS Disp   
  ---------------------------------------------------------------------------------------------
    Convergence Criteria    1.00e-06 *    3.00e-04 *             o    1.20e-03 *             o
  ---------------------------------------------------------------------------------------------
      7    -509.02355508   -2.41e-06      1.53e-04 *    5.04e-05 o    6.67e-04 *    2.82e-04 o  ~
  ---------------------------------------------------------------------------------------------


  **** Optimization is complete! (in 7 steps) ****

  ==> Optimization Summary <==

  Measures of convergence in internal coordinates in au.
  --------------------------------------------------------------------------------------------------------------- ~
   Step         Total Energy             Delta E       MAX Force       RMS Force        MAX Disp        RMS Disp  ~
  --------------------------------------------------------------------------------------------------------------- ~
      1    -509.022710751448   -509.022710751448      0.01570067      0.00277794      0.04575207      0.01614614  ~
      2    -509.023271540155     -0.000560788706      0.00395546      0.00120488      0.23655736      0.05980169  ~
      3    -509.008760070877      0.014511469277      0.02968492      0.00919045      0.16809813      0.04414281  ~
      4    -509.023089872875     -0.014329801998      0.00460335      0.00143023      0.05071923      0.01500509  ~
      5    -509.023542845013     -0.000452972138      0.00072107      0.00024740      0.01349443      0.00382601  ~
      6    -509.023552671375     -0.000009826362      0.00034755      0.00011054      0.00393846      0.00120856  ~
      7    -509.023555080061     -0.000002408686      0.00015289      0.00005043      0.00066705      0.00028173  ~
  --------------------------------------------------------------------------------------------------------------- ~

	Writing optimization data to binary file.
	Final energy is   -509.0235550800613
	Final (previous) structure:
	Cartesian Geometry (in Angstrom)
	    H     2.0457397717  -2.7318240737  -0.7592700338
	    O     2.3602301871  -1.8370171090  -0.7586315037
	    C     1.3154122416  -0.9595149439  -0.8137703799
	    C     0.9747209403  -0.3753253395  -2.0241834600
	    C     0.6306588029  -0.6244580030   0.3391784021
	    H     1.5298714625  -0.6446701236  -2.9034774506
	    C    -0.0568522434   0.5462449231  -2.0865003668
	    H     0.8974112775  -1.0596700999   1.2805415069
	    C    -0.3992062580   0.2941928584   0.2470927906
	    H    -0.3151857177   0.9973539507  -3.0264204462
	    C    -0.7601798603   0.8914236976  -0.9451577985
	    N    -1.1290994685   0.6462335855   1.4618374318
	    H    -1.5615095291   1.6007396834  -0.9725137408
	    O    -0.8145984200   0.1003775761   2.4754468567
	    O    -1.9995525189   1.4573281696   1.3692245524
	Saving final (previous) structure.
			--------------------------
			 OPTKING Finished Execution 
			--------------------------

    Final optimized geometry and variables:
    Molecular point group: c1
    Full point group: C1

    Geometry (in Angstrom), charge = 0, multiplicity = 1:

    H            2.045739615511    -2.731823865047    -0.759269975865
    O            2.360230006841    -1.837016968755    -0.758631445746
    C            1.315412141172    -0.959514870589    -0.813770317806
    C            0.974720865843    -0.375325310875    -2.024183305476
    C            0.630658754703    -0.624457955303     0.339178376248
    H            1.529871345698    -0.644670074392    -2.903477228866
    C           -0.056852239064     0.546244881373    -2.086500207423
    H            0.897411208952    -1.059670018930     1.280541409145
    C           -0.399206227525     0.294192835908     0.247092771716
    H           -0.315185693595     0.997353874554    -3.026420215095
    C           -0.760179802288     0.891423629521    -0.945157726311
    N           -1.129099382294     0.646233536154     1.461837320171
    H           -1.561509409884     1.600739561125    -0.972513666584
    O           -0.814598357760     0.100377568389     2.475446667677
    O           -1.999552366196     1.457328058334     1.369224447879

	Cleaning optimization helper files.


Properties will be evaluated at   0.000000,   0.000000,   0.000000 Bohr

Properties computed using the  density matrix

  Nuclear Dipole Moment: (a.u.)
     X:     2.4351      Y:    -1.7264      Z:    -5.9715

  Electronic Dipole Moment: (a.u.)
     X:    -2.0191      Y:     0.9004      Z:     4.2994

  Dipole Moment: (a.u.)
     X:     0.4159      Y:    -0.8259      Z:    -1.6721     Total:     1.9108

  Dipole Moment: (Debye)
     X:     1.0572      Y:    -2.0992      Z:    -4.2501     Total:     4.8567

  Quadrupole Moment: (Debye Ang)
    XX:   -64.6548     YY:   -50.5767     ZZ:   -58.1421
    XY:     0.1947     XZ:     4.9518     YZ:    -2.5071

  Traceless Quadrupole Moment: (Debye Ang)
    XX:    -6.8636     YY:     7.2145     ZZ:    -0.3509
    XY:     0.1947     XZ:     4.9518     YZ:    -2.5071

  Mulliken Charges: (a.u.)
   Center  Symbol    Alpha    Beta     Spin     Total
       1     H     0.26741  0.26741  0.00000  0.46518
       2     O     4.38481  4.38481  0.00000 -0.76962
       3     C     2.82002  2.82002  0.00000  0.35996
       4     C     3.10223  3.10223  0.00000 -0.20446
       5     C     3.11017  3.11017  0.00000 -0.22033
       6     H     0.38285  0.38285  0.00000  0.23431
       7     C     3.10581  3.10581  0.00000 -0.21161
       8     H     0.36043  0.36043  0.00000  0.27914
       9     C     2.91805  2.91805  0.00000  0.16391
      10     H     0.38653  0.38653  0.00000  0.22694
      11     C     3.09018  3.09018  0.00000 -0.18035
      12     N     3.24070  3.24070  0.00000  0.51861
      13     H     0.36405  0.36405  0.00000  0.27189
      14     O     4.23337  4.23337  0.00000 -0.46674
      15     O     4.23342  4.23342  0.00000 -0.46684

   Total alpha = 36.00000, Total beta = 36.00000, Total charge = -0.00000


*** PSI4 exiting successfully. Buy a developer a beer!
