    -----------------------------------------------------------------------
          Psi4: An Open-Source Ab Initio Electronic Structure Package
                              Psi4 (no tag) Driver

                          Git: Rev {detached?}  

    J. M. Turney, A. C. Simmonett, R. M. Parrish, E. G. Hohenstein,
    F. A. Evangelista, J. T. Fermann, B. J. Mintz, L. A. Burns, J. J. Wilke,
    M. L. Abrams, N. J. Russ, M. L. Leininger, C. L. Janssen, E. T. Seidl,
    W. D. Allen, H. F. Schaefer, R. A. King, E. F. Valeev, C. D. Sherrill,
    and T. D. Crawford, WIREs Comput. Mol. Sci. 2, 556-565 (2012)
    (doi: 10.1002/wcms.93)

                         Additional Contributions by
    A. E. DePrince, M. Saitow, U. Bozkaya, A. Yu. Sokolov
    -----------------------------------------------------------------------


    Psi4 started on: Fri Sep  2 12:31:10 2016

    Process ID:  11713
    PSI4DATADIR: /export131/home/mjharvey/miniconda3/share
    Memory level set to 256.000 MB

  ==> Input File <==

--------------------------------------------------------------------------
set {
	reference rhf
	basis 6-31G*
}


set_num_threads( 4 )
memory 2 gb

molecule MOL {
0 1

H	 2.591676	 2.013956	 0.335017
O	 3.341076	 1.666752	 -0.126416
C	 3.569581	 0.339145	 0.272707
C	 2.539767	 -0.640285	 -0.279495
H	 4.553106	 0.084646	 -0.100901
H	 3.608576	 0.269204	 1.359154
C	 1.115811	 -0.397273	 0.226630
H	 2.556196	 -0.582511	 -1.364741
H	 2.852081	 -1.648031	 -0.010655
C	 0.115918	 -1.429151	 -0.302766
H	 0.797950	 0.599468	 -0.066350
H	 1.109961	 -0.420744	 1.316472
C	 -0.434124	 -1.133401	 -1.702882
H	 0.581373	 -2.413117	 -0.299457
H	 -0.720615	 -1.487732	 0.390402
C	 0.598874	 -1.209856	 -2.830511
H	 -1.230944	 -1.843557	 -1.914009
H	 -0.899097	 -0.148704	 -1.705746
C	 -0.016728	 -1.011774	 -4.217318
H	 1.098168	 -2.177097	 -2.795014
H	 1.373269	 -0.461538	 -2.680063
C	 1.013244	 -1.081234	 -5.344259
H	 -0.782864	 -1.766339	 -4.382112
H	 -0.524390	 -0.050010	 -4.251583
H	 1.515888	 -2.044253	 -5.357182
H	 0.546116	 -0.939242	 -6.313931
H	 1.773972	 -0.314251	 -5.228526

	symmetry c1
}
set optking {
	frozen_dihedral = ("
		14 10 7 4
	")
}

ee = optimize('scf')
oeprop('DIPOLE', 'QUADRUPOLE', 'MULLIKEN_CHARGES')
f=open( 'psi4out.xyz', 'w' )
f.write( "27  " )
f.write( str(ee) + "\n" )
f.write( MOL.save_string_xyz() )
f.close()
--------------------------------------------------------------------------

  Memory set to   2.000 GiB by Python script.
gradient() will perform analytic gradient computation.

*** tstart() called on cx1-1-1-4.cx1.hpc.ic.ac.uk
*** at Fri Sep  2 12:31:11 2016


         ---------------------------------------------------------
                                   SCF
            by Justin Turney, Rob Parrish, and Andy Simmonett
                              RHF Reference
                        4 Threads,   2000 MiB Core
         ---------------------------------------------------------

  ==> Geometry <==

    Molecular point group: c1
    Full point group: C1

    Geometry (in Angstrom), charge = 0, multiplicity = 1:

       Center              X                  Y                   Z               Mass       
    ------------   -----------------  -----------------  -----------------  -----------------
           H          1.235926279238     2.517588114417     1.914019771159     1.007825032070
           O          1.985326279238     2.170384114417     1.452586771159    15.994914619560
           C          2.213831279238     0.842777114417     1.851709771159    12.000000000000
           C          1.184017279238    -0.136652885583     1.299507771159    12.000000000000
           H          3.197356279238     0.588278114417     1.478101771159     1.007825032070
           H          2.252826279238     0.772836114417     2.938156771159     1.007825032070
           C         -0.239938720762     0.106359114417     1.805632771159    12.000000000000
           H          1.200446279238    -0.078878885583     0.214261771159     1.007825032070
           H          1.496331279238    -1.144398885583     1.568347771159     1.007825032070
           C         -1.239831720762    -0.925518885583     1.276236771159    12.000000000000
           H         -0.557799720762     1.103100114417     1.512652771159     1.007825032070
           H         -0.245788720762     0.082888114417     2.895474771159     1.007825032070
           C         -1.789873720762    -0.629768885583    -0.123879228841    12.000000000000
           H         -0.774376720762    -1.909484885583     1.279545771159     1.007825032070
           H         -2.076364720762    -0.984099885583     1.969404771159     1.007825032070
           C         -0.756875720762    -0.706223885583    -1.251508228841    12.000000000000
           H         -2.586693720762    -1.339924885583    -0.335006228841     1.007825032070
           H         -2.254846720762     0.354928114417    -0.126743228841     1.007825032070
           C         -1.372477720762    -0.508141885583    -2.638315228841    12.000000000000
           H         -0.257581720762    -1.673464885583    -1.216011228841     1.007825032070
           H          0.017519279238     0.042094114417    -1.101060228841     1.007825032070
           C         -0.342505720762    -0.577601885583    -3.765256228841    12.000000000000
           H         -2.138613720762    -1.262706885583    -2.803109228841     1.007825032070
           H         -1.880139720762     0.453622114417    -2.672580228841     1.007825032070
           H          0.160138279238    -1.540620885583    -3.778179228841     1.007825032070
           H         -0.809633720762    -0.435609885583    -4.734928228841     1.007825032070
           H          0.418222279238     0.189381114417    -3.649523228841     1.007825032070

  Running in c1 symmetry.

  Rotational constants: A =      0.06678  B =      0.02312  C =      0.01883 [cm^-1]
  Rotational constants: A =   2002.10299  B =    693.18766  C =    564.39350 [MHz]
  Nuclear repulsion =  474.945468093401814

  Charge       = 0
  Multiplicity = 1
  Electrons    = 74
  Nalpha       = 37
  Nbeta        = 37

  ==> Algorithm <==

  SCF Algorithm Type is DF.
  DIIS enabled.
  MOM disabled.
  Fractional occupation disabled.
  Guess Type is CORE.
  Energy threshold   = 1.00e-08
  Density threshold  = 1.00e-08
  Integral threshold = 0.00e+00

  ==> Primary Basis <==

  Basis Set: 6-31G*
    Number of shells: 90
    Number of basis function: 171
    Number of Cartesian functions: 171
    Spherical Harmonics?: false
    Max angular momentum: 2

  ==> Pre-Iterations <==

   -------------------------------------------------------
    Irrep   Nso     Nmo     Nalpha   Nbeta   Ndocc  Nsocc
   -------------------------------------------------------
     A        171     171       0       0       0       0
   -------------------------------------------------------
    Total     171     171      37      37      37       0
   -------------------------------------------------------

 OEINTS: Overlap, kinetic, potential, dipole, and quadrupole integrals
         stored in file 35.

  ==> Integral Setup <==

  ==> DFJK: Density-Fitted J/K Matrices <==

    J tasked:                  Yes
    K tasked:                  Yes
    wK tasked:                  No
    OpenMP threads:              4
    Integrals threads:           4
    Memory (MB):              1430
    Algorithm:                Core
    Integral Cache:           NONE
    Schwarz Cutoff:          1E-12
    Fitting Condition:       1E-12

   => Auxiliary Basis Set <=

  Basis Set: 
    Number of shells: 378
    Number of basis function: 1179
    Number of Cartesian functions: 1179
    Spherical Harmonics?: false
    Max angular momentum: 3

  Minimum eigenvalue in the overlap matrix is 3.4548523841E-03.
  Using Symmetric Orthogonalization.
  SCF Guess: Core (One-Electron) Hamiltonian.

  ==> Iterations <==

                           Total Energy        Delta E     RMS |[F,P]|

   @DF-RHF iter   1:  -286.27469667298260   -2.86275e+02   5.98203e-02 
   @DF-RHF iter   2:     2.50334356842006    2.88778e+02   6.54742e-02 DIIS
   @DF-RHF iter   3:  -264.70501098534919   -2.67208e+02   4.80860e-02 DIIS
   @DF-RHF iter   4:  -235.07522026142249    2.96298e+01   6.87051e-02 DIIS
   @DF-RHF iter   5:  -380.78738060698845   -1.45712e+02   1.50188e-02 DIIS
   @DF-RHF iter   6:  -363.97070253518382    1.68167e+01   2.60819e-02 DIIS
   @DF-RHF iter   7:  -388.08798139092755   -2.41173e+01   3.44883e-03 DIIS
   @DF-RHF iter   8:  -388.25636450024069   -1.68383e-01   1.04003e-03 DIIS
   @DF-RHF iter   9:  -388.27135751806009   -1.49930e-02   3.74002e-04 DIIS
   @DF-RHF iter  10:  -388.27342344171905   -2.06592e-03   8.79244e-05 DIIS
   @DF-RHF iter  11:  -388.27361034811099   -1.86906e-04   3.09754e-05 DIIS
   @DF-RHF iter  12:  -388.27362855514946   -1.82070e-05   1.52596e-05 DIIS
   @DF-RHF iter  13:  -388.27363354409931   -4.98895e-06   4.78969e-06 DIIS
   @DF-RHF iter  14:  -388.27363415422838   -6.10129e-07   1.15517e-06 DIIS
   @DF-RHF iter  15:  -388.27363419213521   -3.79068e-08   3.01618e-07 DIIS
   @DF-RHF iter  16:  -388.27363419484504   -2.70984e-09   8.49708e-08 DIIS
   @DF-RHF iter  17:  -388.27363419505514   -2.10093e-10   1.83787e-08 DIIS
   @DF-RHF iter  18:  -388.27363419506401   -8.86757e-12   4.56308e-09 DIIS

  ==> Post-Iterations <==

    Orbital Energies (a.u.)
    -----------------------

    Doubly Occupied:                                                      

       1A    -20.551996     2A    -11.265773     3A    -11.219608  
       4A    -11.216673     5A    -11.214597     6A    -11.213328  
       7A    -11.211965     8A    -11.211338     9A    -11.206796  
      10A     -1.358714    11A     -1.096422    12A     -1.058119  
      13A     -1.008578    14A     -0.949700    15A     -0.887651  
      16A     -0.826025    17A     -0.790289    18A     -0.779834  
      19A     -0.695071    20A     -0.649807    21A     -0.630691  
      22A     -0.616781    23A     -0.610170    24A     -0.583218  
      25A     -0.568672    26A     -0.553634    27A     -0.542419  
      28A     -0.525066    29A     -0.511188    30A     -0.497001  
      31A     -0.485070    32A     -0.472085    33A     -0.463620  
      34A     -0.457792    35A     -0.455598    36A     -0.434527  
      37A     -0.419251  

    Virtual:                                                              

      38A      0.220316    39A      0.233958    40A      0.244926  
      41A      0.254368    42A      0.270826    43A      0.280596  
      44A      0.287612    45A      0.309008    46A      0.312224  
      47A      0.320558    48A      0.322550    49A      0.336076  
      50A      0.339062    51A      0.347490    52A      0.354788  
      53A      0.361830    54A      0.371408    55A      0.392640  
      56A      0.406384    57A      0.415372    58A      0.435945  
      59A      0.441631    60A      0.458568    61A      0.465699  
      62A      0.472129    63A      0.503454    64A      0.696643  
      65A      0.704318    66A      0.720042    67A      0.737321  
      68A      0.748599    69A      0.756680    70A      0.780272  
      71A      0.811847    72A      0.827752    73A      0.858029  
      74A      0.874394    75A      0.893996    76A      0.908941  
      77A      0.930092    78A      0.951469    79A      0.979484  
      80A      0.985740    81A      1.015840    82A      1.037856  
      83A      1.068394    84A      1.084382    85A      1.099315  
      86A      1.115939    87A      1.135755    88A      1.146818  
      89A      1.153858    90A      1.163702    91A      1.178000  
      92A      1.182003    93A      1.188875    94A      1.196811  
      95A      1.205109    96A      1.211836    97A      1.220278  
      98A      1.225762    99A      1.230033   100A      1.247575  
     101A      1.254450   102A      1.270459   103A      1.277762  
     104A      1.299039   105A      1.316950   106A      1.350609  
     107A      1.364073   108A      1.392463   109A      1.435447  
     110A      1.489447   111A      1.585029   112A      1.628711  
     113A      1.670135   114A      1.698020   115A      1.751644  
     116A      1.767377   117A      1.805846   118A      1.829154  
     119A      1.875399   120A      1.905466   121A      1.953013  
     122A      2.002382   123A      2.011427   124A      2.071924  
     125A      2.085072   126A      2.138059   127A      2.157555  
     128A      2.194768   129A      2.202552   130A      2.226587  
     131A      2.248408   132A      2.276472   133A      2.305657  
     134A      2.309974   135A      2.337740   136A      2.346510  
     137A      2.382274   138A      2.398195   139A      2.449898  
     140A      2.461570   141A      2.495370   142A      2.571427  
     143A      2.605948   144A      2.613070   145A      2.638812  
     146A      2.671487   147A      2.691208   148A      2.723683  
     149A      2.748977   150A      2.753193   151A      2.772367  
     152A      2.804172   153A      2.830175   154A      2.897372  
     155A      2.941965   156A      2.947978   157A      2.989479  
     158A      3.074285   159A      3.096477   160A      3.119655  
     161A      3.173901   162A      3.222510   163A      4.187155  
     164A      4.549930   165A      4.619763   166A      4.694603  
     167A      4.767548   168A      4.822452   169A      4.884583  
     170A      4.985963   171A      5.017249  

    Final Occupation by Irrep:
              A 
    DOCC [    37 ]

  Energy converged.

  @DF-RHF Final Energy:  -388.27363419506401

   => Energetics <=

    Nuclear Repulsion Energy =            474.9454680934018143
    One-Electron Energy =               -1467.9600710218023778
    Two-Electron Energy =                 604.7409687333362172
    DFT Exchange-Correlation Energy =       0.0000000000000000
    Empirical Dispersion Energy =           0.0000000000000000
    PCM Polarization Energy =               0.0000000000000000
    EFP Energy =                            0.0000000000000000
    Total Energy =                       -388.2736341950643464

    Alert: EFP and PCM quantities not currently incorporated into SCF psivars.

Properties will be evaluated at   0.000000,   0.000000,   0.000000 Bohr
  ==> Properties <==


Properties computed using the SCF density matrix

  Nuclear Dipole Moment: (a.u.)
     X:    -3.3682      Y:    -3.9874      Z:    -4.3496

  Electronic Dipole Moment: (a.u.)
     X:     2.9066      Y:     3.6037      Z:     4.7600

  Dipole Moment: (a.u.)
     X:    -0.4617      Y:    -0.3836      Z:     0.4104     Total:     0.7272

  Dipole Moment: (Debye)
     X:    -1.1734      Y:    -0.9751      Z:     1.0431     Total:     1.8482


  Saving occupied orbitals to File 180.

*** tstop() called on cx1-1-1-4.cx1.hpc.ic.ac.uk at Fri Sep  2 12:31:23 2016
Module time:
	user time   =      38.12 seconds =       0.64 minutes
	system time =       0.46 seconds =       0.01 minutes
	total time  =         12 seconds =       0.20 minutes
Total time:
	user time   =      38.12 seconds =       0.64 minutes
	system time =       0.46 seconds =       0.01 minutes
	total time  =         12 seconds =       0.20 minutes

*** tstart() called on cx1-1-1-4.cx1.hpc.ic.ac.uk
*** at Fri Sep  2 12:31:23 2016


         ------------------------------------------------------------
                                   SCF GRAD                          
                          Rob Parrish, Justin Turney,                
                       Andy Simmonett, and Alex Sokolov              
         ------------------------------------------------------------

  ==> Geometry <==

    Molecular point group: c1
    Full point group: C1

    Geometry (in Angstrom), charge = 0, multiplicity = 1:

       Center              X                  Y                   Z               Mass       
    ------------   -----------------  -----------------  -----------------  -----------------
           H          1.235926279238     2.517588114417     1.914019771159     1.007825032070
           O          1.985326279238     2.170384114417     1.452586771159    15.994914619560
           C          2.213831279238     0.842777114417     1.851709771159    12.000000000000
           C          1.184017279238    -0.136652885583     1.299507771159    12.000000000000
           H          3.197356279238     0.588278114417     1.478101771159     1.007825032070
           H          2.252826279238     0.772836114417     2.938156771159     1.007825032070
           C         -0.239938720762     0.106359114417     1.805632771159    12.000000000000
           H          1.200446279238    -0.078878885583     0.214261771159     1.007825032070
           H          1.496331279238    -1.144398885583     1.568347771159     1.007825032070
           C         -1.239831720762    -0.925518885583     1.276236771159    12.000000000000
           H         -0.557799720762     1.103100114417     1.512652771159     1.007825032070
           H         -0.245788720762     0.082888114417     2.895474771159     1.007825032070
           C         -1.789873720762    -0.629768885583    -0.123879228841    12.000000000000
           H         -0.774376720762    -1.909484885583     1.279545771159     1.007825032070
           H         -2.076364720762    -0.984099885583     1.969404771159     1.007825032070
           C         -0.756875720762    -0.706223885583    -1.251508228841    12.000000000000
           H         -2.586693720762    -1.339924885583    -0.335006228841     1.007825032070
           H         -2.254846720762     0.354928114417    -0.126743228841     1.007825032070
           C         -1.372477720762    -0.508141885583    -2.638315228841    12.000000000000
           H         -0.257581720762    -1.673464885583    -1.216011228841     1.007825032070
           H          0.017519279238     0.042094114417    -1.101060228841     1.007825032070
           C         -0.342505720762    -0.577601885583    -3.765256228841    12.000000000000
           H         -2.138613720762    -1.262706885583    -2.803109228841     1.007825032070
           H         -1.880139720762     0.453622114417    -2.672580228841     1.007825032070
           H          0.160138279238    -1.540620885583    -3.778179228841     1.007825032070
           H         -0.809633720762    -0.435609885583    -4.734928228841     1.007825032070
           H          0.418222279238     0.189381114417    -3.649523228841     1.007825032070

  Nuclear repulsion =  474.945468093401814

  ==> Basis Set <==

  Basis Set: 6-31G*
    Number of shells: 90
    Number of basis function: 171
    Number of Cartesian functions: 171
    Spherical Harmonics?: false
    Max angular momentum: 2

  ==> DFJKGrad: Density-Fitted SCF Gradients <==

    Gradient:                    1
    J tasked:                  Yes
    K tasked:                  Yes
    wK tasked:                  No
    OpenMP threads:              4
    Integrals threads:           4
    Memory (MB):              1430
    Schwarz Cutoff:          0E+00
    Fitting Condition:       1E-12

   => Auxiliary Basis Set <=

  Basis Set: 
    Number of shells: 378
    Number of basis function: 1179
    Number of Cartesian functions: 1179
    Spherical Harmonics?: false
    Max angular momentum: 3


  -Total Gradient:
     Atom            X                  Y                   Z
    ------   -----------------  -----------------  -----------------
       1       -0.000026835367     0.000002327428    -0.000085310610
       2        0.000133419612    -0.000328035120     0.000377756130
       3        0.000034472608     0.000864567754    -0.000787415743
       4       -0.004708180121    -0.002758835407     0.000640196973
       5       -0.000067052290    -0.000057268242    -0.000025166463
       6       -0.000164649815    -0.000241632430    -0.000171542566
       7       -0.004164456496     0.001941720212     0.000390963549
       8       -0.004935360107     0.000296854631    -0.009089559430
       9        0.000191842350    -0.000097451803    -0.000441942053
      10        0.004208094505    -0.000461839147    -0.000894538067
      11        0.001997139592    -0.000883604239    -0.000511297315
      12       -0.001226335403     0.000091456684     0.001098603601
      13        0.000000841647     0.001139028694     0.000431733922
      14        0.000802965645     0.000144340589    -0.000705880512
      15        0.000469149167    -0.000012282041     0.001526700039
      16        0.001238919581    -0.002022103488     0.003735632997
      17        0.000033062996     0.000170636177     0.000177539894
      18       -0.000173227068     0.000199172534    -0.000249566609
      19        0.000608519216     0.000570491463    -0.000161595091
      20       -0.000232473735    -0.000065771996     0.000038441552
      21        0.005908042037     0.001504144319     0.004619011153
      22       -0.000126426379    -0.000164636739    -0.000095752410
      23        0.000178672413     0.000039608794     0.000211936261
      24       -0.000072609930    -0.000007225506    -0.000038702533
      25        0.000002381145     0.000076948380     0.000014905946
      26        0.000020563100     0.000023145283     0.000010360064
      27        0.000069521095     0.000036243214    -0.000015512681


*** tstop() called on cx1-1-1-4.cx1.hpc.ic.ac.uk at Fri Sep  2 12:31:36 2016
Module time:
	user time   =      46.85 seconds =       0.78 minutes
	system time =       0.41 seconds =       0.01 minutes
	total time  =         13 seconds =       0.22 minutes
Total time:
	user time   =      84.98 seconds =       1.42 minutes
	system time =       0.87 seconds =       0.01 minutes
	total time  =         25 seconds =       0.42 minutes
CURRENT ENERGY: -388.2736341951

			-----------------------------------------
			 OPTKING 2.0: for geometry optimizations 
			  - R.A. King,  Bethel University        
			-----------------------------------------

	Internal coordinates to be generated automatically.
	Detected frag with atoms:  1 2 3 4 5 6 7 8 9 10 11 12 13 14 15 16 17 18 19 20
	 21 22 23 24 25 26 27
	---Fragment 1 Bond Connectivity---
	 1 : 2
	 2 : 1 3
	 3 : 2 4 5 6
	 4 : 3 7 8 9
	 5 : 3
	 6 : 3
	 7 : 4 10 11 12
	 8 : 4
	 9 : 4
	 10 : 7 13 14 15
	 11 : 7
	 12 : 7
	 13 : 10 16 17 18
	 14 : 10
	 15 : 10
	 16 : 13 19 20 21
	 17 : 13
	 18 : 13
	 19 : 16 22 23 24
	 20 : 16
	 21 : 16
	 22 : 19 25 26 27
	 23 : 19
	 24 : 19
	 25 : 22
	 26 : 22
	 27 : 22

	Assuming in current code that numbering for constraints corresponds to unified fragment.
	Frozen dihedral atom list: 
	    14    10     7     4
	---Fragment 1 Geometry and Gradient---
	 H           2.3355621882        4.7575520517        3.6169731804
	 O           3.7517229522        4.1014315794        2.7449911817
	 C           4.1835348222        1.5926179373        3.4992243451
	 C           2.2374683944       -0.2582365290        2.4557137950
	 H           6.0421277170        1.1116845262        2.7932075440
	 H           4.2572246927        1.4604486019        5.5523116330
	 C          -0.4534184709        0.2009895980        3.4121514341
	 H           2.2685147050       -0.1490594914        0.4048960682
	 H           2.8276563218       -2.1626004805        2.9637477686
	 C          -2.3429424031       -1.7489772246        2.4117379782
	 H          -1.0540887092        2.0845571134        2.8584994716
	 H          -0.4644733688        0.1566358359        5.4716543422
	 C          -3.3823711447       -1.1900907208       -0.2340978161
	 H          -1.4633599259       -3.6084034886        2.4179910820
	 H          -3.9237606742       -1.8596792712        3.7216356623
	 C          -1.4302878289       -1.3345697323       -2.3650078056
	 H          -4.8881427219       -2.5320910724       -0.6330700253
	 H          -4.2610427739        0.6707169331       -0.2395099917
	 C          -2.5936070157       -0.9602490004       -4.9856932347
	 H          -0.4867589091       -3.1623903268       -2.2979281970
	 H           0.0331066398        0.0795463481       -2.0807022883
	 C          -0.6472420112       -1.0915093776       -7.1153030927
	 H          -4.0413942363       -2.3861701999       -5.2971087631
	 H          -3.5529491638        0.8572215641       -5.0504447007
	 H           0.3026174912       -2.9113515484       -7.1397240235
	 H          -1.5299860002       -0.8231833845       -8.9477176114
	 H           0.7903255704        0.3578784410       -6.8965994181
	            -0.0000268354        0.0000023274       -0.0000853106
	             0.0001334196       -0.0003280351        0.0003777561
	             0.0000344726        0.0008645678       -0.0007874157
	            -0.0047081801       -0.0027588354        0.0006401970
	            -0.0000670523       -0.0000572682       -0.0000251665
	            -0.0001646498       -0.0002416324       -0.0001715426
	            -0.0041644565        0.0019417202        0.0003909635
	            -0.0049353601        0.0002968546       -0.0090895594
	             0.0001918423       -0.0000974518       -0.0004419421
	             0.0042080945       -0.0004618391       -0.0008945381
	             0.0019971396       -0.0008836042       -0.0005112973
	            -0.0012263354        0.0000914567        0.0010986036
	             0.0000008416        0.0011390287        0.0004317339
	             0.0008029656        0.0001443406       -0.0007058805
	             0.0004691492       -0.0000122820        0.0015267000
	             0.0012389196       -0.0020221035        0.0037356330
	             0.0000330630        0.0001706362        0.0001775399
	            -0.0001732271        0.0001991725       -0.0002495666
	             0.0006085192        0.0005704915       -0.0001615951
	            -0.0002324737       -0.0000657720        0.0000384416
	             0.0059080420        0.0015041443        0.0046190112
	            -0.0001264264       -0.0001646367       -0.0000957524
	             0.0001786724        0.0000396088        0.0002119363
	            -0.0000726099       -0.0000072255       -0.0000387025
	             0.0000023811        0.0000769484        0.0000149059
	             0.0000205631        0.0000231453        0.0000103601
	             0.0000695211        0.0000362432       -0.0000155127

	Previous optimization step data not found.  Starting new optimization.

	---Fragment 1 Intrafragment Coordinates---
	 - Coordinate -           - BOHR/RAD -       - ANG/DEG -
	 R(1,2)           =         1.787836	       0.946082
	 R(2,3)           =         2.655085	       1.405010
	 R(3,4)           =         2.881276	       1.524706
	 R(3,5)           =         2.045513	       1.082439
	 R(3,6)           =         2.058656	       1.089394
	 R(4,7)           =         2.892496	       1.530643
	 R(4,8)           =         2.053956	       1.086907
	 R(4,9)           =         2.057431	       1.088746
	 R(7,10)          =         2.893700	       1.531280
	 R(7,11)          =         2.053086	       1.086446
	 R(7,12)          =         2.060010	       1.090110
	 R(10,13)         =         2.897104	       1.533082
	 R(10,14)         =         2.056981	       1.088507
	 R(10,15)         =         2.055985	       1.087980
	 R(13,16)         =         2.893489	       1.531169
	 R(13,17)         =         2.056087	       1.088034
	 R(13,18)         =         2.057838	       1.088961
	 R(16,19)         =         2.891612	       1.530175
	 R(16,20)         =         2.058075	       1.089087
	 R(16,21)         =         2.054769	       1.087337
	 R(19,22)         =         2.888045	       1.528288
	 R(19,23)         =         2.055801	       1.087883
	 R(19,24)         =         2.056144	       1.088065
	 R(22,25)         =         2.052962	       1.086381
	 R(22,26)         =         2.051580	       1.085649
	 R(22,27)         =         2.053085	       1.086446
	 B(1,2,3)         =         1.914577	     109.697160
	 B(2,3,4)         =         1.976053	     113.219525
	 B(2,3,5)         =         1.846152	     105.776719
	 B(2,3,6)         =         1.928142	     110.474417
	 B(3,4,7)         =         1.989525	     113.991388
	 B(3,4,8)         =         1.893637	     108.497419
	 B(3,4,9)         =         1.887467	     108.143920
	 B(4,3,5)         =         1.915228	     109.734464
	 B(4,3,6)         =         1.922103	     110.128394
	 B(4,7,10)        =         1.967264	     112.715931
	 B(4,7,11)        =         1.905685	     109.187708
	 B(4,7,12)        =         1.909383	     109.399586
	 B(5,3,6)         =         1.871928	     107.253573
	 B(7,4,8)         =         1.913229	     109.619925
	 B(7,4,9)         =         1.909396	     109.400326
	 B(7,10,13)       =         2.004260	     114.835627
	 B(7,10,14)       =         1.905911	     109.200648
	 B(7,10,15)       =         1.894506	     108.547197
	 B(8,4,9)         =         1.866500	     106.942573
	 B(10,7,11)       =         1.911293	     109.509016
	 B(10,7,12)       =         1.904583	     109.124567
	 B(10,13,16)      =         2.005226	     114.890996
	 B(10,13,17)      =         1.890258	     108.303783
	 B(10,13,18)      =         1.907141	     109.271135
	 B(11,7,12)       =         1.862709	     106.725384
	 B(13,10,14)      =         1.907713	     109.303929
	 B(13,10,15)      =         1.892709	     108.444240
	 B(13,16,19)      =         1.970960	     112.927703
	 B(13,16,20)      =         1.906714	     109.246677
	 B(13,16,21)      =         1.922201	     110.134029
	 B(14,10,15)      =         1.852688	     106.151186
	 B(16,13,17)      =         1.895029	     108.577174
	 B(16,13,18)      =         1.908457	     109.346521
	 B(16,19,22)      =         1.972824	     113.034464
	 B(16,19,23)      =         1.907973	     109.318790
	 B(16,19,24)      =         1.907811	     109.309540
	 B(17,13,18)      =         1.851455	     106.080582
	 B(19,16,20)      =         1.905984	     109.204836
	 B(19,16,21)      =         1.899517	     108.834279
	 B(19,22,25)      =         1.940004	     111.154028
	 B(19,22,26)      =         1.941951	     111.265568
	 B(19,22,27)      =         1.940411	     111.177339
	 B(20,16,21)      =         1.854798	     106.272069
	 B(22,19,23)      =         1.908576	     109.353346
	 B(22,19,24)      =         1.908577	     109.353410
	 B(23,19,24)      =         1.854323	     106.244888
	 B(25,22,26)      =         1.880097	     107.721609
	 B(25,22,27)      =         1.878734	     107.643504
	 B(26,22,27)      =         1.879780	     107.703484
	 D(1,2,3,4)       =         1.271027	      72.824501
	 D(1,2,3,5)       =        -2.914280	    -166.975951
	 D(1,2,3,6)       =        -0.894016	     -51.223364
	 D(2,3,4,7)       =        -1.117499	     -64.027957
	 D(2,3,4,8)       =         1.019513	      58.413809
	 D(2,3,4,9)       =         3.038125	     174.071719
	 D(3,4,7,10)      =        -3.102764	    -177.775309
	 D(3,4,7,11)      =         1.052182	      60.285610
	 D(3,4,7,12)      =        -0.980458	     -56.176119
	 D(4,7,10,13)     =        -1.451323	     -83.154707
	*D(4,7,10,14)     =         0.698132	      39.999992
	 D(4,7,10,15)     =         2.710694	     155.311346
	 D(5,3,4,7)       =         3.107626	     178.053858
	 D(5,3,4,8)       =        -1.038547	     -59.504375
	 D(5,3,4,9)       =         0.980064	      56.153534
	 D(6,3,4,7)       =         1.050840	      60.208675
	 D(6,3,4,8)       =        -3.095334	    -177.349559
	 D(6,3,4,9)       =        -1.076722	     -61.691649
	 D(7,10,13,16)    =         1.159583	      66.439221
	 D(7,10,13,17)    =        -3.001962	    -171.999745
	 D(7,10,13,18)    =        -0.992510	     -56.866637
	 D(8,4,7,10)      =         1.054185	      60.400347
	 D(8,4,7,11)      =        -1.074054	     -61.538735
	 D(8,4,7,12)      =        -3.106694	    -178.000464
	 D(9,4,7,10)      =        -0.987340	     -56.570426
	 D(9,4,7,11)      =        -3.115579	    -178.509507
	 D(9,4,7,12)      =         1.134966	      65.028764
	 D(10,13,16,19)   =         3.065805	     175.657670
	 D(10,13,16,20)   =         0.941125	      53.922518
	 D(10,13,16,21)   =        -1.089852	     -62.443894
	 D(11,7,10,13)    =         0.673745	      38.602747
	 D(11,7,10,14)    =         2.823200	     161.757446
	 D(11,7,10,15)    =        -1.447422	     -82.931200
	 D(12,7,10,13)    =         2.706837	     155.090355
	 D(12,7,10,14)    =        -1.426893	     -81.754946
	 D(12,7,10,15)    =         0.585670	      33.556408
	 D(13,16,19,22)   =         3.136984	     179.735915
	 D(13,16,19,23)   =        -1.016044	     -58.215052
	 D(13,16,19,24)   =         1.006941	      57.693469
	 D(14,10,13,16)   =        -0.988907	     -56.660201
	 D(14,10,13,17)   =         1.132733	      64.900832
	 D(14,10,13,18)   =        -3.141000	    -179.966059
	 D(15,10,13,16)   =        -3.001456	    -171.970767
	 D(15,10,13,17)   =        -0.879816	     -50.409734
	 D(15,10,13,18)   =         1.129636	      64.723375
	 D(16,19,22,25)   =         1.044253	      59.831312
	 D(16,19,22,26)   =         3.139610	     179.886391
	 D(16,19,22,27)   =        -1.048346	     -60.065780
	 D(17,13,16,19)   =         0.946762	      54.245474
	 D(17,13,16,20)   =        -1.177917	     -67.489678
	 D(17,13,16,21)   =         3.074291	     176.143911
	 D(18,13,16,19)   =        -1.065990	     -61.076702
	 D(18,13,16,20)   =         3.092517	     177.188145
	 D(18,13,16,21)   =         1.061540	      60.821734
	 D(20,16,19,22)   =        -1.021111	     -58.505350
	 D(20,16,19,23)   =         1.109046	      63.543683
	 D(20,16,19,24)   =         3.132032	     179.452204
	 D(21,16,19,22)   =         0.996740	      57.108980
	 D(21,16,19,23)   =         3.126897	     179.158012
	 D(21,16,19,24)   =        -1.133303	     -64.933467
	 D(23,19,22,25)   =        -1.085566	     -62.198346
	 D(23,19,22,26)   =         1.009790	      57.856734
	 D(23,19,22,27)   =         3.105020	     177.904563
	 D(24,19,22,25)   =        -3.109319	    -178.150842
	 D(24,19,22,26)   =        -1.013962	     -58.095763
	 D(24,19,22,27)   =         1.081268	      61.952066
	 R(4,16)          =         6.152259	       3.255635

	Current energy   :      -388.2736341951

	Generating empirical Hessian (Schlegel '84) for each fragment.
	Taking RFO optimization step.
	Going to follow RFO solution 1.
	Using RFO vector 1.

	Determining step-restricting scale parameter for RS-RFO.
	Maximum step size allowed    0.50000

	 Iter      |step|        alpha        rfo_root  
	------------------------------------------------
	    0     0.61414       1.00000           1
	    1     0.52817       1.46784           1
	    2     0.50244       1.66857           1
	    3     0.50002       1.68940           1
	    4     0.50000       1.68958           1
	------------------------------------------------
	Norm of target step-size    0.50000
	Projected energy change by RFO approximation:        -0.0103007320

	Back-transformation to cartesian coordinates...
	Successfully converged to displaced geometry.

	Back-transformation to cartesian coordinates to adjust frozen coordinates...
	Successfully converged to displaced geometry.

	--- Internal Coordinate Step in ANG or DEG, aJ/ANG or AJ/DEG ---
	 ---------------------------------------------------------------------------
	   Coordinate                Previous        Force       Change         New 
	   ----------                --------       ------       ------       ------
	    1 R(1,2)          =      0.946082     0.000161     0.000017     0.946099
	    2 R(2,3)          =      1.405010     0.003363     0.000468     1.405478
	    3 R(3,4)          =      1.524706     0.001298     0.000266     1.524972
	    4 R(3,5)          =      1.082439     0.000319     0.000055     1.082494
	    5 R(3,6)          =      1.089394     0.001330     0.000236     1.089630
	    6 R(4,7)          =      1.530643     0.013606     0.004538     1.535181
	    7 R(4,8)          =      1.086907    -0.074287    -0.013048     1.073859
	    8 R(4,9)          =      1.088746    -0.000297    -0.000053     1.088693
	    9 R(7,10)         =      1.531280     0.012278     0.007501     1.538781
	   10 R(7,11)         =      1.086446     0.010357     0.001816     1.088263
	   11 R(7,12)         =      1.090110    -0.009087    -0.001612     1.088498
	   12 R(10,13)        =      1.533082    -0.016722     0.002192     1.535274
	   13 R(10,14)        =      1.088507    -0.001736    -0.000307     1.088201
	   14 R(10,15)        =      1.087980    -0.005047    -0.000890     1.087091
	   15 R(13,16)        =      1.531169    -0.012586    -0.001467     1.529702
	   16 R(13,17)        =      1.088034     0.001401     0.000247     1.088281
	   17 R(13,18)        =      1.088961    -0.002099    -0.000371     1.088590
	   18 R(16,19)        =      1.530175     0.001088     0.000227     1.530402
	   19 R(16,20)        =      1.089087     0.000386     0.000068     1.089155
	   20 R(16,21)        =      1.087337    -0.048460    -0.008523     1.078814
	   21 R(19,22)        =      1.528288    -0.000344    -0.000071     1.528216
	   22 R(19,23)        =      1.087883     0.001528     0.000269     1.088152
	   23 R(19,24)        =      1.088065    -0.000237    -0.000042     1.088023
	   24 R(22,25)        =      1.086381     0.000554     0.000097     1.086478
	   25 R(22,26)        =      1.085649     0.000124     0.000022     1.085671
	   26 R(22,27)        =      1.086446    -0.000598    -0.000105     1.086341
	   27 B(1,2,3)        =    109.697160    -0.000005    -0.023372   109.673788
	   28 B(2,3,4)        =    113.219525    -0.000030    -0.101665   113.117860
	   29 B(2,3,5)        =    105.776719     0.000003    -0.051438   105.725281
	   30 B(2,3,6)        =    110.474417    -0.000003    -0.021003   110.453414
	   31 B(3,4,7)        =    113.991388    -0.000179    -0.600741   113.390647
	   32 B(3,4,8)        =    108.497419    -0.000169    -0.855138   107.642281
	   33 B(3,4,9)        =    108.143920     0.000066    -0.483859   107.660060
	   34 B(4,3,5)        =    109.734464     0.000006     0.006381   109.740845
	   35 B(4,3,6)        =    110.128394     0.000033     0.181073   110.309467
	   36 B(4,7,10)       =    112.715931     0.000279     2.416096   115.132027
	   37 B(4,7,11)       =    109.187708     0.000021     0.663097   109.850805
	   38 B(4,7,12)       =    109.399586    -0.000162    -1.584878   107.814709
	   39 B(5,3,6)        =    107.253573    -0.000010    -0.020150   107.233423
	   40 B(7,4,8)        =    109.619925     0.000369     2.583776   112.203701
	   41 B(7,4,9)        =    109.400326    -0.000038    -0.558891   108.841435
	   42 B(7,10,13)      =    114.835627     0.000132     2.518455   117.354082
	   43 B(7,10,14)      =    109.200648    -0.000150    -0.522741   108.677908
	   44 B(7,10,15)      =    108.547197     0.000117    -0.381867   108.165330
	   45 B(8,4,9)        =    106.942573    -0.000047    -0.136382   106.806190
	   46 B(10,7,11)      =    109.509016    -0.000136    -0.493310   109.015705
	   47 B(10,7,12)      =    109.124567    -0.000049    -0.801863   108.322704
	   48 B(10,13,16)     =    114.890996     0.000078     2.011014   116.902010
	   49 B(10,13,17)     =    108.303783    -0.000124    -1.237083   107.066700
	   50 B(10,13,18)     =    109.271135     0.000071     0.202989   109.474124
	   51 B(11,7,12)      =    106.725384     0.000034    -0.396452   106.328932
	   52 B(13,10,14)     =    109.303929     0.000068     1.078445   110.382375
	   53 B(13,10,15)     =    108.444240    -0.000151    -1.907411   106.536829
	   54 B(13,16,19)     =    112.927703    -0.000160    -0.727777   112.199926
	   55 B(13,16,20)     =    109.246677     0.000061     0.404210   109.650887
	   56 B(13,16,21)     =    110.134029     0.000172     0.882345   111.016374
	   57 B(14,10,15)     =    106.151186    -0.000028    -1.168493   104.982693
	   58 B(16,13,17)     =    108.577174     0.000076    -0.345662   108.231512
	   59 B(16,13,18)     =    109.346521    -0.000121    -0.620642   108.725879
	   60 B(16,19,22)     =    113.034464    -0.000017    -0.056208   112.978256
	   61 B(16,19,23)     =    109.318790     0.000019     0.129468   109.448258
	   62 B(16,19,24)     =    109.309540    -0.000001    -0.044906   109.264634
	   63 B(17,13,18)     =    106.080582     0.000016    -0.200476   105.880106
	   64 B(19,16,20)     =    109.204836     0.000017    -0.218372   108.986465
	   65 B(19,16,21)     =    108.834279    -0.000115    -1.078551   107.755728
	   66 B(19,22,25)     =    111.154028    -0.000001    -0.004049   111.149979
	   67 B(19,22,26)     =    111.265568    -0.000001    -0.006592   111.258977
	   68 B(19,22,27)     =    111.177339    -0.000003    -0.007249   111.170090
	   69 B(20,16,21)     =    106.272069     0.000037     0.798151   107.070221
	   70 B(22,19,23)     =    109.353346    -0.000002    -0.002302   109.351043
	   71 B(22,19,24)     =    109.353410     0.000006    -0.020744   109.332667
	   72 B(23,19,24)     =    106.244888    -0.000003    -0.002108   106.242780
	   73 B(25,22,26)     =    107.721609    -0.000000    -0.008907   107.712702
	   74 B(25,22,27)     =    107.643504     0.000003     0.016906   107.660410
	   75 B(26,22,27)     =    107.703484     0.000002     0.011009   107.714493
	   76 D(1,2,3,4)      =     72.824501     0.000003     0.214122    73.038623
	   77 D(1,2,3,5)      =   -166.975951     0.000001     0.129642  -166.846309
	   78 D(1,2,3,6)      =    -51.223364    -0.000002     0.067307   -51.156057
	   79 D(2,3,4,7)      =    -64.027957    -0.000028    -1.417621   -65.445578
	   80 D(2,3,4,8)      =     58.413809     0.000024     0.864412    59.278221
	   81 D(2,3,4,9)      =    174.071719    -0.000001     0.019837   174.091556
	   82 D(3,4,7,10)     =   -177.775309     0.000006     2.321340  -175.453969
	   83 D(3,4,7,11)     =     60.285610    -0.000001     0.756320    61.041930
	   84 D(3,4,7,12)     =    -56.176119     0.000008     1.751659   -54.424460
	   85 D(4,7,10,13)    =    -83.154707    -0.000016    -2.918336   -86.073043
	   86 *D(4,7,10,14)   =     39.999992    -0.000000    -0.000000    39.999992
	   87 D(4,7,10,15)    =    155.311346    -0.000011    -1.849810   153.461536
	   88 D(5,3,4,7)      =    178.053858    -0.000025    -1.292959   176.760899
	   89 D(5,3,4,8)      =    -59.504375     0.000027     0.989074   -58.515301
	   90 D(5,3,4,9)      =     56.153534     0.000002     0.144499    56.298033
	   91 D(6,3,4,7)      =     60.208675    -0.000028    -1.380979    58.827696
	   92 D(6,3,4,8)      =   -177.349559     0.000024     0.901054  -176.448504
	   93 D(6,3,4,9)      =    -61.691649    -0.000001     0.056479   -61.635170
	   94 D(7,10,13,16)   =     66.439221    -0.000042    -1.839031    64.600190
	   95 D(7,10,13,17)   =   -171.999745    -0.000029    -1.883235  -173.882980
	   96 D(7,10,13,18)   =    -56.866637    -0.000031    -2.675887   -59.542524
	   97 D(8,4,7,10)     =     60.400347     0.000022     1.923190    62.323536
	   98 D(8,4,7,11)     =    -61.538735     0.000015     0.358170   -61.180564
	   99 D(8,4,7,12)     =   -178.000464     0.000024     1.353509  -176.646955
	  100 D(9,4,7,10)     =    -56.570426    -0.000009     0.907987   -55.662439
	  101 D(9,4,7,11)     =   -178.509507    -0.000016    -0.657032  -179.166539
	  102 D(9,4,7,12)     =     65.028764    -0.000007     0.338307    65.367070
	  103 D(10,13,16,19)  =    175.657670    -0.000021    -4.840221   170.817449
	  104 D(10,13,16,20)  =     53.922518    -0.000011    -4.360039    49.562479
	  105 D(10,13,16,21)  =    -62.443894    -0.000052    -6.099257   -68.543151
	  106 D(11,7,10,13)   =     38.602747     0.000012    -0.730319    37.872428
	  107 D(11,7,10,14)   =    161.757446     0.000027     2.188017   163.945463
	  108 D(11,7,10,15)   =    -82.931200     0.000016     0.338207   -82.592992
	  109 D(12,7,10,13)   =    155.090355    -0.000003    -1.915890   153.174465
	  110 D(12,7,10,14)   =    -81.754946     0.000013     1.002446   -80.752500
	  111 D(12,7,10,15)   =     33.556408     0.000001    -0.847364    32.709044
	  112 D(13,16,19,22)  =    179.735915     0.000003    -0.037859   179.698056
	  113 D(13,16,19,23)  =    -58.215052     0.000003     0.014315   -58.200737
	  114 D(13,16,19,24)  =     57.693469     0.000004     0.059106    57.752575
	  115 D(14,10,13,16)  =    -56.660201    -0.000031    -3.969715   -60.629916
	  116 D(14,10,13,17)  =     64.900832    -0.000017    -4.013919    60.886914
	  117 D(14,10,13,18)  =   -179.966059    -0.000020    -4.806571  -184.772630
	  118 D(15,10,13,16)  =   -171.970767    -0.000012    -2.113100  -174.083866
	  119 D(15,10,13,17)  =    -50.409734     0.000001    -2.157303   -52.567037
	  120 D(15,10,13,18)  =     64.723375    -0.000002    -2.949956    61.773419
	  121 D(16,19,22,25)  =     59.831312     0.000002     0.093367    59.924679
	  122 D(16,19,22,26)  =    179.886391     0.000001     0.074933   179.961324
	  123 D(16,19,22,27)  =    -60.065780     0.000001     0.079558   -59.986222
	  124 D(17,13,16,19)  =     54.245474    -0.000010    -4.333172    49.912302
	  125 D(17,13,16,20)  =    -67.489678     0.000000    -3.852990   -71.342668
	  126 D(17,13,16,21)  =    176.143911    -0.000041    -5.592208   170.551703
	  127 D(18,13,16,19)  =    -61.076702    -0.000009    -3.583760   -64.660462
	  128 D(18,13,16,20)  =    177.188145     0.000001    -3.103578   174.084567
	  129 D(18,13,16,21)  =     60.821734    -0.000040    -4.842795    55.978938
	  130 D(20,16,19,22)  =    -58.505350    -0.000001    -0.160715   -58.666065
	  131 D(20,16,19,23)  =     63.543683    -0.000001    -0.108540    63.435142
	  132 D(20,16,19,24)  =    179.452204     0.000000    -0.063750   179.388454
	  133 D(21,16,19,22)  =     57.108980    -0.000003     0.082360    57.191340
	  134 D(21,16,19,23)  =    179.158012    -0.000003     0.134535   179.292547
	  135 D(21,16,19,24)  =    -64.933467    -0.000002     0.179325   -64.754142
	  136 D(23,19,22,25)  =    -62.198346    -0.000001    -0.032697   -62.231042
	  137 D(23,19,22,26)  =     57.856734    -0.000001    -0.051131    57.805603
	  138 D(23,19,22,27)  =    177.904563    -0.000001    -0.046505   177.858057
	  139 D(24,19,22,25)  =   -178.150842    -0.000000    -0.017232  -178.168074
	  140 D(24,19,22,26)  =    -58.095763    -0.000001    -0.035666   -58.131429
	  141 D(24,19,22,27)  =     61.952066    -0.000001    -0.031040    61.921026
	  142 R(4,16)         =      3.255635     0.113508     0.196265     3.451900
	 ---------------------------------------------------------------------------

  ==> Convergence Check <==

  Measures of convergence in internal coordinates in au.
  Criteria marked as inactive (o), active & met (*), and active & unmet ( ).
  --------------------------------------------------------------------------------------------- ~
   Step     Total Energy     Delta E     MAX Force     RMS Force      MAX Disp      RMS Disp    ~
  --------------------------------------------------------------------------------------------- ~
    Convergence Criteria    1.00e-06 *    3.00e-04 *             o    1.20e-03 *             o  ~
  --------------------------------------------------------------------------------------------- ~
      1    -388.27363420   -3.88e+02      1.38e-02      1.83e-03 o    3.71e-01      4.20e-02 o  ~
  ---------------------------------------------------------------------------------------------

	Writing optimization data to binary file.
	Structure for next step:
	Cartesian Geometry (in Angstrom)
	    H     1.3085902830   2.5208478272   2.0418255850
	    O     2.0948344029   2.1641099141   1.6549634320
	    C     2.2581992033   0.8286078171   2.0613062866
	    C     1.2748399055  -0.1254967531   1.3918075926
	    H     3.2709057585   0.5607111847   1.7884494536
	    H     2.1841051863   0.7486979783   3.1454729225
	    C    -0.1867339325   0.1304345171   1.7856121105
	    H     1.4270429647  -0.0581307628   0.3309263144
	    H     1.5457768129  -1.1383584621   1.6849919638
	    C    -1.2022248152  -0.8775977158   1.2194870940
	    H    -0.4796462187   1.1348913496   1.4863051163
	    H    -0.2483028551   0.1046531049   2.8720616082
	    C    -1.7588192674  -0.6049087561  -0.1851159907
	    H    -0.7681228091  -1.8742724094   1.2682353970
	    H    -2.0571740363  -0.9103182968   1.8901267786
	    C    -0.7625366650  -0.6492675019  -1.3450472539
	    H    -2.5321599359  -1.3474706836  -0.3719364288
	    H    -2.2634777860   0.3595905692  -0.1945678681
	    C    -1.4576905864  -0.5876460351  -2.7070657593
	    H    -0.1748028484  -1.5644743574  -1.2882656999
	    H    -0.0696322253   0.1758848595  -1.2916956884
	    C    -0.4777354258  -0.6234081906  -3.8791809538
	    H    -2.1558838437  -1.4175888502  -2.7953646982
	    H    -2.0549846100   0.3199522708  -2.7645060887
	    H     0.1129986058  -1.5351954485  -3.8685846622
	    H    -0.9996564819  -0.5790112050  -4.8301324536
	    H     0.2108894568   0.2159017716  -3.8405686504
			--------------------------
			 OPTKING Finished Execution 
			--------------------------

    Structure for next step:
    Molecular point group: c1
    Full point group: C1

    Geometry (in Angstrom), charge = 0, multiplicity = 1:

    H            1.293364158160     2.519417187849     2.028006475406
    O            2.079608218028     2.162679301937     1.641144351875
    C            2.242973005915     0.827177306922     2.047487175477
    C            1.259613783245    -0.126927190426     1.377988532612
    H            3.255679483847     0.559280695036     1.774630363359
    H            2.168878994578     0.747267474280     3.131653728555
    C           -0.201959943133     0.129004060230     1.771793020415
    H            1.411816830853    -0.059561205255     0.317107335452
    H            1.530550669934    -1.139788822078     1.671172881406
    C           -1.217450748327    -0.879028095619     1.205668047147
    H           -0.494872206956     1.133460816026     1.472486049105
    H           -0.263528861032     0.103222650055     2.858242435196
    C           -1.774045158026    -0.606339156767    -0.198934930242
    H           -0.783348775377    -1.875702713151     1.254416346482
    H           -2.072399904101    -0.911748674121     1.876307680521
    C           -0.777762631669    -0.650697899196    -1.358866104874
    H           -2.547385767453    -1.348901027595    -0.385755354125
    H           -2.278703638039     0.358160094906    -0.208386806981
    C           -1.472916500005    -0.589076437148    -2.720884506250
    H           -0.190028859987    -1.565904684818    -1.302084555182
    H           -0.084858244889     0.174454399183    -1.305514543436
    C           -0.492961414187    -0.624838589864    -3.892999611304
    H           -2.171109704016    -1.419019188877    -2.809183438401
    H           -2.070210478027     0.318521799474    -2.778324831263
    H            0.097772572295    -1.536625778171    -3.882403320471
    H           -1.014882430510    -0.580441607657    -4.843951038476
    H            0.195663415816     0.214471308251    -3.854387310789

gradient() will perform analytic gradient computation.

*** tstart() called on cx1-1-1-4.cx1.hpc.ic.ac.uk
*** at Fri Sep  2 12:31:38 2016


         ---------------------------------------------------------
                                   SCF
            by Justin Turney, Rob Parrish, and Andy Simmonett
                              RHF Reference
                        4 Threads,   2000 MiB Core
         ---------------------------------------------------------

  ==> Geometry <==

    Molecular point group: c1
    Full point group: C1

    Geometry (in Angstrom), charge = 0, multiplicity = 1:

       Center              X                  Y                   Z               Mass       
    ------------   -----------------  -----------------  -----------------  -----------------
           H          1.293364158160     2.519417187849     2.028006475406     1.007825032070
           O          2.079608218028     2.162679301937     1.641144351875    15.994914619560
           C          2.242973005915     0.827177306922     2.047487175477    12.000000000000
           C          1.259613783245    -0.126927190426     1.377988532612    12.000000000000
           H          3.255679483847     0.559280695036     1.774630363359     1.007825032070
           H          2.168878994578     0.747267474280     3.131653728555     1.007825032070
           C         -0.201959943133     0.129004060230     1.771793020415    12.000000000000
           H          1.411816830853    -0.059561205255     0.317107335452     1.007825032070
           H          1.530550669934    -1.139788822078     1.671172881406     1.007825032070
           C         -1.217450748327    -0.879028095619     1.205668047147    12.000000000000
           H         -0.494872206956     1.133460816026     1.472486049105     1.007825032070
           H         -0.263528861032     0.103222650055     2.858242435196     1.007825032070
           C         -1.774045158026    -0.606339156767    -0.198934930242    12.000000000000
           H         -0.783348775377    -1.875702713151     1.254416346482     1.007825032070
           H         -2.072399904101    -0.911748674121     1.876307680521     1.007825032070
           C         -0.777762631669    -0.650697899196    -1.358866104874    12.000000000000
           H         -2.547385767453    -1.348901027595    -0.385755354125     1.007825032070
           H         -2.278703638039     0.358160094906    -0.208386806981     1.007825032070
           C         -1.472916500005    -0.589076437148    -2.720884506250    12.000000000000
           H         -0.190028859987    -1.565904684818    -1.302084555182     1.007825032070
           H         -0.084858244889     0.174454399183    -1.305514543436     1.007825032070
           C         -0.492961414187    -0.624838589864    -3.892999611304    12.000000000000
           H         -2.171109704016    -1.419019188877    -2.809183438401     1.007825032070
           H         -2.070210478027     0.318521799474    -2.778324831263     1.007825032070
           H          0.097772572295    -1.536625778171    -3.882403320471     1.007825032070
           H         -1.014882430510    -0.580441607657    -4.843951038476     1.007825032070
           H          0.195663415816     0.214471308251    -3.854387310789     1.007825032070

  Running in c1 symmetry.

  Rotational constants: A =      0.07158  B =      0.02096  C =      0.01764 [cm^-1]
  Rotational constants: A =   2145.93336  B =    628.48436  C =    528.78793 [MHz]
  Nuclear repulsion =  469.728097695308691

  Charge       = 0
  Multiplicity = 1
  Electrons    = 74
  Nalpha       = 37
  Nbeta        = 37

  ==> Algorithm <==

  SCF Algorithm Type is DF.
  DIIS enabled.
  MOM disabled.
  Fractional occupation disabled.
  Guess Type is READ.
  Energy threshold   = 1.00e-08
  Density threshold  = 1.00e-08
  Integral threshold = 0.00e+00

  ==> Primary Basis <==

  Basis Set: 6-31G*
    Number of shells: 90
    Number of basis function: 171
    Number of Cartesian functions: 171
    Spherical Harmonics?: false
    Max angular momentum: 2

  ==> Pre-Iterations <==

   -------------------------------------------------------
    Irrep   Nso     Nmo     Nalpha   Nbeta   Ndocc  Nsocc
   -------------------------------------------------------
     A        171     171       0       0       0       0
   -------------------------------------------------------
    Total     171     171      37      37      37       0
   -------------------------------------------------------

 OEINTS: Overlap, kinetic, potential, dipole, and quadrupole integrals
         stored in file 35.

  ==> Integral Setup <==

  ==> DFJK: Density-Fitted J/K Matrices <==

    J tasked:                  Yes
    K tasked:                  Yes
    wK tasked:                  No
    OpenMP threads:              4
    Integrals threads:           4
    Memory (MB):              1430
    Algorithm:                Core
    Integral Cache:           NONE
    Schwarz Cutoff:          1E-12
    Fitting Condition:       1E-12

   => Auxiliary Basis Set <=

  Basis Set: 
    Number of shells: 378
    Number of basis function: 1179
    Number of Cartesian functions: 1179
    Spherical Harmonics?: false
    Max angular momentum: 3

  Minimum eigenvalue in the overlap matrix is 3.5261145385E-03.
  Using Symmetric Orthogonalization.
  SCF Guess: Reading in previously saved MOs, projecting if necessary.

  Using orbitals from previous SCF, no projection.
  Recomputing DOCC and SOCC from number of alpha and beta electrons from previous calculation.
              A 
    DOCC [    37 ]

  ==> Iterations <==

                           Total Energy        Delta E     RMS |[F,P]|

   @DF-RHF iter   0:  -388.23840035766904   -3.88238e+02   1.25729e-03 
   @DF-RHF iter   1:  -388.27457006871981   -3.61697e-02   2.69243e-04 
   @DF-RHF iter   2:  -388.27650995517916   -1.93989e-03   9.16342e-05 DIIS
   @DF-RHF iter   3:  -388.27676545585911   -2.55501e-04   3.40718e-05 DIIS
   @DF-RHF iter   4:  -388.27678838493892   -2.29291e-05   5.35903e-06 DIIS
   @DF-RHF iter   5:  -388.27678959064787   -1.20571e-06   2.02456e-06 DIIS
   @DF-RHF iter   6:  -388.27678973537826   -1.44730e-07   6.80825e-07 DIIS
   @DF-RHF iter   7:  -388.27678975351654   -1.81383e-08   2.30812e-07 DIIS
   @DF-RHF iter   8:  -388.27678975542830   -1.91176e-09   5.58330e-08 DIIS
   @DF-RHF iter   9:  -388.27678975552755   -9.92486e-11   1.60441e-08 DIIS
   @DF-RHF iter  10:  -388.27678975553494   -7.38964e-12   3.25933e-09 DIIS

  ==> Post-Iterations <==

    Orbital Energies (a.u.)
    -----------------------

    Doubly Occupied:                                                      

       1A    -20.551785     2A    -11.266222     3A    -11.221159  
       4A    -11.217735     5A    -11.215123     6A    -11.213550  
       7A    -11.212812     8A    -11.210908     9A    -11.207057  
      10A     -1.358453    11A     -1.093056    12A     -1.059165  
      13A     -1.009655    14A     -0.950113    15A     -0.888032  
      16A     -0.826037    17A     -0.793774    18A     -0.776574  
      19A     -0.694572    20A     -0.648142    21A     -0.631042  
      22A     -0.613682    23A     -0.611163    24A     -0.582647  
      25A     -0.570519    26A     -0.552438    27A     -0.546099  
      28A     -0.523515    29A     -0.509857    30A     -0.495832  
      31A     -0.484695    32A     -0.470683    33A     -0.467301  
      34A     -0.459257    35A     -0.454703    36A     -0.435006  
      37A     -0.421661  

    Virtual:                                                              

      38A      0.219263    39A      0.232706    40A      0.244946  
      41A      0.255768    42A      0.269417    43A      0.279788  
      44A      0.286246    45A      0.302929    46A      0.312391  
      47A      0.316402    48A      0.321905    49A      0.336884  
      50A      0.338140    51A      0.346607    52A      0.353128  
      53A      0.365076    54A      0.369816    55A      0.390088  
      56A      0.402972    57A      0.413519    58A      0.430129  
      59A      0.435673    60A      0.451651    61A      0.460438  
      62A      0.471305    63A      0.504435    64A      0.689418  
      65A      0.706918    66A      0.718447    67A      0.738774  
      68A      0.750380    69A      0.757001    70A      0.778094  
      71A      0.808783    72A      0.825446    73A      0.852046  
      74A      0.864129    75A      0.884453    76A      0.908002  
      77A      0.922666    78A      0.948029    79A      0.979191  
      80A      0.989798    81A      1.015745    82A      1.041372  
      83A      1.060321    84A      1.085278    85A      1.097949  
      86A      1.119579    87A      1.136292    88A      1.147653  
      89A      1.148293    90A      1.160547    91A      1.179097  
      92A      1.179503    93A      1.185766    94A      1.197257  
      95A      1.203601    96A      1.210809    97A      1.221131  
      98A      1.222805    99A      1.233939   100A      1.235040  
     101A      1.254080   102A      1.261969   103A      1.274158  
     104A      1.294667   105A      1.314393   106A      1.334739  
     107A      1.350666   108A      1.377067   109A      1.429797  
     110A      1.485100   111A      1.580307   112A      1.630634  
     113A      1.668191   114A      1.699953   115A      1.749214  
     116A      1.764410   117A      1.801154   118A      1.823548  
     119A      1.877501   120A      1.894185   121A      1.963001  
     122A      1.987873   123A      2.007580   124A      2.062180  
     125A      2.080133   126A      2.120441   127A      2.140312  
     128A      2.188840   129A      2.194372   130A      2.226716  
     131A      2.247446   132A      2.273424   133A      2.305312  
     134A      2.313682   135A      2.338471   136A      2.345428  
     137A      2.372138   138A      2.395361   139A      2.444638  
     140A      2.460788   141A      2.494851   142A      2.567786  
     143A      2.608678   144A      2.616284   145A      2.642983  
     146A      2.665789   147A      2.687804   148A      2.724866  
     149A      2.748602   150A      2.754110   151A      2.766078  
     152A      2.798319   153A      2.829056   154A      2.895322  
     155A      2.940369   156A      2.958703   157A      2.991871  
     158A      3.071418   159A      3.092558   160A      3.116831  
     161A      3.167904   162A      3.219415   163A      4.187975  
     164A      4.542282   165A      4.612190   166A      4.688339  
     167A      4.765015   168A      4.817350   169A      4.886771  
     170A      4.974378   171A      5.006772  

    Final Occupation by Irrep:
              A 
    DOCC [    37 ]

  Energy converged.

  @DF-RHF Final Energy:  -388.27678975553494

   => Energetics <=

    Nuclear Repulsion Energy =            469.7280976953086906
    One-Electron Energy =               -1457.5217257817967038
    Two-Electron Energy =                 599.5168383309533056
    DFT Exchange-Correlation Energy =       0.0000000000000000
    Empirical Dispersion Energy =           0.0000000000000000
    PCM Polarization Energy =               0.0000000000000000
    EFP Energy =                            0.0000000000000000
    Total Energy =                       -388.2767897555347645

    Alert: EFP and PCM quantities not currently incorporated into SCF psivars.

Properties will be evaluated at   0.000000,   0.000000,   0.000000 Bohr
  ==> Properties <==


Properties computed using the SCF density matrix

  Nuclear Dipole Moment: (a.u.)
     X:    -3.7564      Y:    -4.0296      Z:    -4.6663

  Electronic Dipole Moment: (a.u.)
     X:     3.2483      Y:     3.6468      Z:     5.0336

  Dipole Moment: (a.u.)
     X:    -0.5081      Y:    -0.3828      Z:     0.3673     Total:     0.7346

  Dipole Moment: (Debye)
     X:    -1.2915      Y:    -0.9729      Z:     0.9336     Total:     1.8671


  Saving occupied orbitals to File 180.

*** tstop() called on cx1-1-1-4.cx1.hpc.ic.ac.uk at Fri Sep  2 12:31:49 2016
Module time:
	user time   =      33.10 seconds =       0.55 minutes
	system time =       0.35 seconds =       0.01 minutes
	total time  =         11 seconds =       0.18 minutes
Total time:
	user time   =     120.56 seconds =       2.01 minutes
	system time =       1.29 seconds =       0.02 minutes
	total time  =         38 seconds =       0.63 minutes

*** tstart() called on cx1-1-1-4.cx1.hpc.ic.ac.uk
*** at Fri Sep  2 12:31:49 2016


         ------------------------------------------------------------
                                   SCF GRAD                          
                          Rob Parrish, Justin Turney,                
                       Andy Simmonett, and Alex Sokolov              
         ------------------------------------------------------------

  ==> Geometry <==

    Molecular point group: c1
    Full point group: C1

    Geometry (in Angstrom), charge = 0, multiplicity = 1:

       Center              X                  Y                   Z               Mass       
    ------------   -----------------  -----------------  -----------------  -----------------
           H          1.293364158160     2.519417187849     2.028006475406     1.007825032070
           O          2.079608218028     2.162679301937     1.641144351875    15.994914619560
           C          2.242973005915     0.827177306922     2.047487175477    12.000000000000
           C          1.259613783245    -0.126927190426     1.377988532612    12.000000000000
           H          3.255679483847     0.559280695036     1.774630363359     1.007825032070
           H          2.168878994578     0.747267474280     3.131653728555     1.007825032070
           C         -0.201959943133     0.129004060230     1.771793020415    12.000000000000
           H          1.411816830853    -0.059561205255     0.317107335452     1.007825032070
           H          1.530550669934    -1.139788822078     1.671172881406     1.007825032070
           C         -1.217450748327    -0.879028095619     1.205668047147    12.000000000000
           H         -0.494872206956     1.133460816026     1.472486049105     1.007825032070
           H         -0.263528861032     0.103222650055     2.858242435196     1.007825032070
           C         -1.774045158026    -0.606339156767    -0.198934930242    12.000000000000
           H         -0.783348775377    -1.875702713151     1.254416346482     1.007825032070
           H         -2.072399904101    -0.911748674121     1.876307680521     1.007825032070
           C         -0.777762631669    -0.650697899196    -1.358866104874    12.000000000000
           H         -2.547385767453    -1.348901027595    -0.385755354125     1.007825032070
           H         -2.278703638039     0.358160094906    -0.208386806981     1.007825032070
           C         -1.472916500005    -0.589076437148    -2.720884506250    12.000000000000
           H         -0.190028859987    -1.565904684818    -1.302084555182     1.007825032070
           H         -0.084858244889     0.174454399183    -1.305514543436     1.007825032070
           C         -0.492961414187    -0.624838589864    -3.892999611304    12.000000000000
           H         -2.171109704016    -1.419019188877    -2.809183438401     1.007825032070
           H         -2.070210478027     0.318521799474    -2.778324831263     1.007825032070
           H          0.097772572295    -1.536625778171    -3.882403320471     1.007825032070
           H         -1.014882430510    -0.580441607657    -4.843951038476     1.007825032070
           H          0.195663415816     0.214471308251    -3.854387310789     1.007825032070

  Nuclear repulsion =  469.728097695308691

  ==> Basis Set <==

  Basis Set: 6-31G*
    Number of shells: 90
    Number of basis function: 171
    Number of Cartesian functions: 171
    Spherical Harmonics?: false
    Max angular momentum: 2

  ==> DFJKGrad: Density-Fitted SCF Gradients <==

    Gradient:                    1
    J tasked:                  Yes
    K tasked:                  Yes
    wK tasked:                  No
    OpenMP threads:              4
    Integrals threads:           4
    Memory (MB):              1430
    Schwarz Cutoff:          0E+00
    Fitting Condition:       1E-12

   => Auxiliary Basis Set <=

  Basis Set: 
    Number of shells: 378
    Number of basis function: 1179
    Number of Cartesian functions: 1179
    Spherical Harmonics?: false
    Max angular momentum: 3


  -Total Gradient:
     Atom            X                  Y                   Z
    ------   -----------------  -----------------  -----------------
       1        0.000031387964     0.000021868698     0.000012656768
       2       -0.000057858902    -0.000078311772     0.000056391794
       3        0.000151761769    -0.000531925028    -0.000925221277
       4       -0.001115571511     0.000472857493    -0.009115205420
       5        0.000040687861     0.000081862280     0.000064693639
       6       -0.000010979611    -0.000065478918     0.000084177670
       7       -0.000931643166    -0.000761281462     0.003823193053
       8        0.001617524344    -0.000493530257     0.006967391137
       9        0.000276749112     0.000492185246     0.000069078402
      10        0.001017342921     0.000147064618    -0.003036468339
      11        0.000186635242    -0.000271901072     0.000016717496
      12       -0.000056493937     0.000186315106    -0.000008981472
      13       -0.001438120395     0.000710880805    -0.000179862240
      14       -0.000095425785     0.000529680734     0.002684839873
      15        0.000046766025    -0.001113154449    -0.000628152900
      16        0.003975194324     0.004442397508     0.003407256545
      17        0.000102396919    -0.000195934300     0.000288161471
      18       -0.000106543430    -0.000210744600    -0.001475494727
      19        0.000594055990     0.000902347337     0.000769951587
      20       -0.000499102764    -0.000616362949    -0.000298744626
      21       -0.003732337193    -0.003374300791    -0.002798650826
      22        0.000052243667    -0.000078516361     0.000067219482
      23       -0.000084001876    -0.000079265481     0.000093504264
      24        0.000087224260    -0.000087187582     0.000016862514
      25        0.000011470521    -0.000025112468    -0.000012665356
      26       -0.000020329990    -0.000011355747     0.000024814847
      27       -0.000043032365     0.000006903406     0.000032536643


*** tstop() called on cx1-1-1-4.cx1.hpc.ic.ac.uk at Fri Sep  2 12:32:01 2016
Module time:
	user time   =      44.61 seconds =       0.74 minutes
	system time =       0.32 seconds =       0.01 minutes
	total time  =         12 seconds =       0.20 minutes
Total time:
	user time   =     165.19 seconds =       2.75 minutes
	system time =       1.61 seconds =       0.03 minutes
	total time  =         50 seconds =       0.83 minutes
CURRENT ENERGY: -388.2767897555

			-----------------------------------------
			 OPTKING 2.0: for geometry optimizations 
			  - R.A. King,  Bethel University        
			-----------------------------------------

	Previous internal coordinate definitions found.
	---Fragment 1 Geometry and Gradient---
	 H           2.4441040490        4.7610084995        3.8323768342
	 O           3.9298899958        4.0868715939        3.1013133696
	 C           4.2386047046        1.5631385734        3.8691900222
	 C           2.3803250835       -0.2398576287        2.6040209409
	 H           6.1523426009        1.0568873450        3.3535653739
	 H           4.0985873151        1.4121308744        5.9179678900
	 C          -0.3816489823        0.2437823439        3.3482035727
	 H           2.6679471601       -0.1125543661        0.5992460187
	 H           2.8923215987       -2.1538887231        3.1580590666
	 C          -2.3006484946       -1.6611223638        2.2783824163
	 H          -0.9351729419        2.1419305246        2.7825953673
	 H          -0.4979973755        0.1950625393        5.4012954239
	 C          -3.3524594960       -1.1458149499       -0.3759325364
	 H          -1.4803146520       -3.5445644346        2.3705033515
	 H          -3.9162682566       -1.7229552961        3.5457076572
	 C          -1.4697583702       -1.2296408247       -2.5678847895
	 H          -4.8138614553       -2.5490535225       -0.7289719736
	 H          -4.3061258139        0.6768244911       -0.3937939949
	 C          -2.7834088016       -1.1131931375       -5.1417265560
	 H          -0.3591025027       -2.9591310045       -2.4605832112
	 H          -0.1603588430        0.3296710371       -2.4670649496
	 C          -0.9315620669       -1.1807738121       -7.3567031008
	 H          -4.1028027450       -2.6815576443       -5.3085873556
	 H          -3.9121308409        0.6019189684       -5.2502730393
	 H           0.1847633849       -2.9038018895       -7.3366790131
	 H          -1.9178498507       -1.0968756746       -9.1537408638
	 H           0.3697502701        0.4052920360       -7.2837364275
	             0.0000313880        0.0000218687        0.0000126568
	            -0.0000578589       -0.0000783118        0.0000563918
	             0.0001517618       -0.0005319250       -0.0009252213
	            -0.0011155715        0.0004728575       -0.0091152054
	             0.0000406879        0.0000818623        0.0000646936
	            -0.0000109796       -0.0000654789        0.0000841777
	            -0.0009316432       -0.0007612815        0.0038231931
	             0.0016175243       -0.0004935303        0.0069673911
	             0.0002767491        0.0004921852        0.0000690784
	             0.0010173429        0.0001470646       -0.0030364683
	             0.0001866352       -0.0002719011        0.0000167175
	            -0.0000564939        0.0001863151       -0.0000089815
	            -0.0014381204        0.0007108808       -0.0001798622
	            -0.0000954258        0.0005296807        0.0026848399
	             0.0000467660       -0.0011131544       -0.0006281529
	             0.0039751943        0.0044423975        0.0034072565
	             0.0001023969       -0.0001959343        0.0002881615
	            -0.0001065434       -0.0002107446       -0.0014754947
	             0.0005940560        0.0009023473        0.0007699516
	            -0.0004991028       -0.0006163629       -0.0002987446
	            -0.0037323372       -0.0033743008       -0.0027986508
	             0.0000522437       -0.0000785164        0.0000672195
	            -0.0000840019       -0.0000792655        0.0000935043
	             0.0000872243       -0.0000871876        0.0000168625
	             0.0000114705       -0.0000251125       -0.0000126654
	            -0.0000203300       -0.0000113557        0.0000248148
	            -0.0000430324        0.0000069034        0.0000325366

	---Fragment 1 Intrafragment Coordinates---
	 - Coordinate -           - BOHR/RAD -       - ANG/DEG -
	 R(1,2)           =         1.787869	       0.946099
	 R(2,3)           =         2.655968	       1.405478
	 R(3,4)           =         2.881779	       1.524972
	 R(3,5)           =         2.045618	       1.082494
	 R(3,6)           =         2.059101	       1.089630
	 R(4,7)           =         2.901072	       1.535181
	 R(4,8)           =         2.029299	       1.073859
	 R(4,9)           =         2.057332	       1.088693
	 R(7,10)          =         2.907875	       1.538781
	 R(7,11)          =         2.056518	       1.088263
	 R(7,12)          =         2.056963	       1.088498
	 R(10,13)         =         2.901247	       1.535274
	 R(10,14)         =         2.056402	       1.088201
	 R(10,15)         =         2.054304	       1.087091
	 R(13,16)         =         2.890717	       1.529702
	 R(13,17)         =         2.056553	       1.088281
	 R(13,18)         =         2.057137	       1.088590
	 R(16,19)         =         2.892041	       1.530402
	 R(16,20)         =         2.058205	       1.089155
	 R(16,21)         =         2.038663	       1.078814
	 R(19,22)         =         2.887910	       1.528216
	 R(19,23)         =         2.056310	       1.088152
	 R(19,24)         =         2.056065	       1.088023
	 R(22,25)         =         2.053146	       1.086478
	 R(22,26)         =         2.051621	       1.085671
	 R(22,27)         =         2.052886	       1.086341
	 B(1,2,3)         =         1.914169	     109.673788
	 B(2,3,4)         =         1.974279	     113.117860
	 B(2,3,5)         =         1.845254	     105.725281
	 B(2,3,6)         =         1.927776	     110.453414
	 B(3,4,7)         =         1.979040	     113.390647
	 B(3,4,8)         =         1.878712	     107.642281
	 B(3,4,9)         =         1.879023	     107.660060
	 B(4,3,5)         =         1.915339	     109.740845
	 B(4,3,6)         =         1.925263	     110.309467
	 B(4,7,10)        =         2.009433	     115.132027
	 B(4,7,11)        =         1.917258	     109.850805
	 B(4,7,12)        =         1.881722	     107.814709
	 B(5,3,6)         =         1.871576	     107.233423
	 B(7,4,8)         =         1.958324	     112.203701
	 B(7,4,9)         =         1.899641	     108.841435
	 B(7,10,13)       =         2.048215	     117.354082
	 B(7,10,14)       =         1.896787	     108.677908
	 B(7,10,15)       =         1.887841	     108.165330
	 B(8,4,9)         =         1.864120	     106.806190
	 B(10,7,11)       =         1.902683	     109.015705
	 B(10,7,12)       =         1.890588	     108.322704
	 B(10,13,16)      =         2.040325	     116.902010
	 B(10,13,17)      =         1.868666	     107.066700
	 B(10,13,18)      =         1.910684	     109.474124
	 B(11,7,12)       =         1.855790	     106.328932
	 B(13,10,14)      =         1.926536	     110.382375
	 B(13,10,15)      =         1.859418	     106.536829
	 B(13,16,19)      =         1.958258	     112.199926
	 B(13,16,20)      =         1.913769	     109.650887
	 B(13,16,21)      =         1.937601	     111.016374
	 B(14,10,15)      =         1.832294	     104.982693
	 B(16,13,17)      =         1.888996	     108.231512
	 B(16,13,18)      =         1.897625	     108.725879
	 B(16,19,22)      =         1.971843	     112.978256
	 B(16,19,23)      =         1.910232	     109.448258
	 B(16,19,24)      =         1.907028	     109.264634
	 B(17,13,18)      =         1.847956	     105.880106
	 B(19,16,20)      =         1.902173	     108.986465
	 B(19,16,21)      =         1.880692	     107.755728
	 B(19,22,25)      =         1.939933	     111.149979
	 B(19,22,26)      =         1.941835	     111.258977
	 B(19,22,27)      =         1.940284	     111.170090
	 B(20,16,21)      =         1.868728	     107.070221
	 B(22,19,23)      =         1.908536	     109.351043
	 B(22,19,24)      =         1.908215	     109.332667
	 B(23,19,24)      =         1.854286	     106.242780
	 B(25,22,26)      =         1.879941	     107.712702
	 B(25,22,27)      =         1.879029	     107.660410
	 B(26,22,27)      =         1.879973	     107.714493
	 D(1,2,3,4)       =         1.274764	      73.038623
	 D(1,2,3,5)       =        -2.912017	    -166.846309
	 D(1,2,3,6)       =        -0.892842	     -51.156057
	 D(2,3,4,7)       =        -1.142241	     -65.445578
	 D(2,3,4,8)       =         1.034600	      59.278221
	 D(2,3,4,9)       =         3.038471	     174.091556
	 D(3,4,7,10)      =        -3.062249	    -175.453969
	 D(3,4,7,11)      =         1.065383	      61.041930
	 D(3,4,7,12)      =        -0.949886	     -54.424460
	 D(4,7,10,13)     =        -1.502258	     -86.073043
	*D(4,7,10,14)     =         0.698132	      39.999992
	 D(4,7,10,15)     =         2.678409	     153.461536
	 D(5,3,4,7)       =         3.085060	     176.760899
	 D(5,3,4,8)       =        -1.021285	     -58.515301
	 D(5,3,4,9)       =         0.982586	      56.298033
	 D(6,3,4,7)       =         1.026737	      58.827696
	 D(6,3,4,8)       =        -3.079607	    -176.448504
	 D(6,3,4,9)       =        -1.075737	     -61.635170
	 D(7,10,13,16)    =         1.127486	      64.600190
	 D(7,10,13,17)    =        -3.034831	    -173.882980
	 D(7,10,13,18)    =        -1.039213	     -59.542524
	 D(8,4,7,10)      =         1.087751	      62.323536
	 D(8,4,7,11)      =        -1.067802	     -61.180564
	 D(8,4,7,12)      =        -3.083071	    -176.646955
	 D(9,4,7,10)      =        -0.971493	     -55.662439
	 D(9,4,7,11)      =        -3.127046	    -179.166539
	 D(9,4,7,12)      =         1.140871	      65.367070
	 D(10,13,16,19)   =         2.981327	     170.817449
	 D(10,13,16,20)   =         0.865028	      49.562479
	 D(10,13,16,21)   =        -1.196304	     -68.543151
	 D(11,7,10,13)    =         0.660999	      37.872428
	 D(11,7,10,14)    =         2.861388	     163.945463
	 D(11,7,10,15)    =        -1.441520	     -82.592992
[...]
	   Coordinate                Previous        Force       Change         New 
	   ----------                --------       ------       ------       ------
	    1 R(1,2)          =      0.946125     0.000026     0.000002     0.946127
	    2 R(2,3)          =      1.405272    -0.000051    -0.000006     1.405266
	    3 R(3,4)          =      1.525121    -0.000161    -0.000031     1.525091
	    4 R(3,5)          =      1.082445     0.000013     0.000002     1.082447
	    5 R(3,6)          =      1.089457    -0.000052    -0.000009     1.089448
	    6 R(4,7)          =      1.532976     0.000064     0.000013     1.532990
	    7 R(4,8)          =      1.083034     0.000164     0.000050     1.083084
	    8 R(4,9)          =      1.088900    -0.000020    -0.000004     1.088896
	    9 R(7,10)         =      1.539156    -0.000158    -0.000053     1.539103
	   10 R(7,11)         =      1.088651     0.000001     0.000001     1.088652
	   11 R(7,12)         =      1.088936     0.000068     0.000013     1.088949
	   12 R(10,13)        =      1.535202     0.000300     0.000055     1.535257
	   13 R(10,14)        =      1.088692     0.000066     0.000013     1.088705
	   14 R(10,15)        =      1.087347    -0.000024    -0.000002     1.087345
	   15 R(13,16)        =      1.531047    -0.000026    -0.000007     1.531040
	   16 R(13,17)        =      1.088370    -0.000033    -0.000005     1.088366
	   17 R(13,18)        =      1.088897     0.000088     0.000017     1.088914
	   18 R(16,19)        =      1.530622    -0.000181    -0.000046     1.530576
	   19 R(16,20)        =      1.088973    -0.000026    -0.000005     1.088968
	   20 R(16,21)        =      1.085914     0.000075     0.000034     1.085948
	   21 R(19,22)        =      1.528261     0.000007     0.000002     1.528263
	   22 R(19,23)        =      1.087943    -0.000035    -0.000007     1.087936
	   23 R(19,24)        =      1.088123    -0.000004     0.000001     1.088124
	   24 R(22,25)        =      1.086451     0.000002     0.000001     1.086452
	   25 R(22,26)        =      1.085678     0.000005     0.000000     1.085679
	   26 R(22,27)        =      1.086299    -0.000005    -0.000001     1.086297
	   27 B(1,2,3)        =    109.672280    -0.000000    -0.000914   109.671367
	   28 B(2,3,4)        =    113.148178    -0.000001    -0.001938   113.146240
	   29 B(2,3,5)        =    105.746011     0.000000     0.004936   105.750947
	   30 B(2,3,6)        =    110.470705     0.000001    -0.000778   110.469928
	   31 B(3,4,7)        =    113.338159    -0.000000    -0.001195   113.336964
	   32 B(3,4,8)        =    108.207395    -0.000000    -0.006045   108.201350
	   33 B(3,4,9)        =    108.049763     0.000000     0.005397   108.055160
	   34 B(4,3,5)        =    109.724228     0.000001     0.003857   109.728086
	   35 B(4,3,6)        =    110.227778    -0.000001    -0.007327   110.220450
	   36 B(4,7,10)       =    115.820581     0.000001     0.003804   115.824385
	   37 B(4,7,11)       =    109.809990    -0.000000    -0.002203   109.807787
	   38 B(4,7,12)       =    107.743995     0.000000     0.008338   107.752334
	   39 B(5,3,6)        =    107.268488     0.000000     0.002093   107.270581
	   40 B(7,4,8)        =    111.067074     0.000000    -0.003706   111.063367
	   41 B(7,4,9)        =    109.009325     0.000000     0.005100   109.014425
	   42 B(7,10,13)      =    117.159551    -0.000001    -0.003733   117.155818
	   43 B(7,10,14)      =    109.396985    -0.000000    -0.002742   109.394243
	   44 B(7,10,15)      =    107.566392    -0.000001    -0.009149   107.557243
	   45 B(8,4,9)        =    106.930864    -0.000000     0.000781   106.931644
	   46 B(10,7,11)      =    108.794774    -0.000000    -0.005655   108.789119
	   47 B(10,7,12)      =    107.991708    -0.000001    -0.003816   107.987892
	   48 B(10,13,16)     =    116.945773    -0.000001    -0.003348   116.942425
	   49 B(10,13,17)     =    107.310590     0.000000    -0.000298   107.310292
	   50 B(10,13,18)     =    108.827828     0.000001     0.009689   108.837517
	   51 B(11,7,12)      =    106.242903     0.000000    -0.000670   106.242233
	   52 B(13,10,14)     =    109.865629     0.000001     0.008791   109.874421
	   53 B(13,10,15)     =    106.645013     0.000001     0.003354   106.648367
	   54 B(13,16,19)     =    112.546782     0.000000     0.001456   112.548237
	   55 B(13,16,20)     =    109.608456    -0.000000    -0.000113   109.608344
	   56 B(13,16,21)     =    110.139439    -0.000000    -0.001904   110.137534
	   57 B(14,10,15)     =    105.527342     0.000000     0.003990   105.531331
	   58 B(16,13,17)     =    108.278732    -0.000000    -0.003191   108.275541
	   59 B(16,13,18)     =    109.034216    -0.000000    -0.001029   109.033188
	   60 B(16,19,22)     =    113.007977     0.000000    -0.000867   113.007110
	   61 B(16,19,23)     =    109.348549    -0.000001    -0.006823   109.341725
	   62 B(16,19,24)     =    109.297422    -0.000000     0.000750   109.298172
	   63 B(17,13,18)     =    105.885747    -0.000000    -0.001876   105.883871
	   64 B(19,16,20)     =    109.189468    -0.000000     0.000409   109.189877
	   65 B(19,16,21)     =    108.660542     0.000000     0.002868   108.663410
	   66 B(19,22,25)     =    111.145028     0.000000     0.000832   111.145860
	   67 B(19,22,26)     =    111.257621    -0.000000    -0.001203   111.256418
	   68 B(19,22,27)     =    111.173659    -0.000000     0.000077   111.173736
	   69 B(20,16,21)     =    106.507653    -0.000000    -0.002927   106.504725
	   70 B(22,19,23)     =    109.369904     0.000000     0.000997   109.370901
	   71 B(22,19,24)     =    109.337356     0.000000     0.004185   109.341541
	   72 B(23,19,24)     =    106.255510     0.000000     0.001936   106.257446
	   73 B(25,22,26)     =    107.713207     0.000000     0.000006   107.713213
	   74 B(25,22,27)     =    107.654923    -0.000000    -0.000105   107.654819
	   75 B(26,22,27)     =    107.722366     0.000000     0.000413   107.722778
	   76 D(1,2,3,4)      =     72.748730    -0.000000    -0.023805    72.724925
	   77 D(1,2,3,5)      =   -167.125613    -0.000000    -0.016926  -167.142539
	   78 D(1,2,3,6)      =    -51.374228     0.000000    -0.012131   -51.386359
	   79 D(2,3,4,7)      =    -65.139945     0.000000     0.074762   -65.065183
	   80 D(2,3,4,8)      =     58.504919     0.000000     0.064729    58.569648
	   81 D(2,3,4,9)      =    173.948691     0.000000     0.065319   174.014010
	   82 D(3,4,7,10)     =   -174.830142    -0.000000    -0.091488  -174.921630
	   83 D(3,4,7,11)     =     61.478303    -0.000000    -0.084954    61.393349
	   84 D(3,4,7,12)     =    -53.825593    -0.000000    -0.087589   -53.913182
	   85 D(4,7,10,13)    =    -85.841768    -0.000000    -0.006715   -85.848483
	   86 *D(4,7,10,14)   =     39.999992    -0.000000    -0.000000    39.999992
	   87 D(4,7,10,15)    =    154.151644    -0.000000    -0.001528   154.150116
	   88 D(5,3,4,7)      =    177.032513     0.000000     0.067183   177.099696
	   89 D(5,3,4,8)      =    -59.322622    -0.000000     0.057150   -59.265473
	   90 D(5,3,4,9)      =     56.121149    -0.000000     0.057740    56.178889
	   91 D(6,3,4,7)      =     59.115643     0.000000     0.066685    59.182329
	   92 D(6,3,4,8)      =   -177.239492    -0.000000     0.056652  -177.182840
	   93 D(6,3,4,9)      =    -61.795720    -0.000000     0.057242   -61.738478
	   94 D(7,10,13,16)   =     66.758073     0.000000    -0.013114    66.744959
	   95 D(7,10,13,17)   =   -171.441605    -0.000000    -0.019821  -171.461426
	   96 D(7,10,13,18)   =    -57.288042     0.000000    -0.017371   -57.305413
	   97 D(8,4,7,10)     =     63.105223     0.000000    -0.079933    63.025291
	   98 D(8,4,7,11)     =    -60.586332     0.000000    -0.073399   -60.659731
	   99 D(8,4,7,12)     =   -175.890227     0.000000    -0.076034  -175.966261
	  100 D(9,4,7,10)     =    -54.461746    -0.000000    -0.081835   -54.543581
	  101 D(9,4,7,11)     =   -178.153301    -0.000000    -0.075301  -178.228602
	  102 D(9,4,7,12)     =     66.542804    -0.000000    -0.077936    66.464867
	  103 D(10,13,16,19)  =    170.861031    -0.000000    -0.020236   170.840795
	  104 D(10,13,16,20)  =     49.145007    -0.000000    -0.021661    49.123346
	  105 D(10,13,16,21)  =    -67.722377    -0.000000    -0.016922   -67.739299
	  106 D(11,7,10,13)   =     38.377835    -0.000000    -0.011457    38.366378
	  107 D(11,7,10,14)   =    164.219595     0.000000    -0.004742   164.214853
	  108 D(11,7,10,15)   =    -81.628753    -0.000000    -0.006270   -81.635022
	  109 D(12,7,10,13)   =    153.286912    -0.000000    -0.017170   153.269742
	  110 D(12,7,10,14)   =    -80.871328    -0.000000    -0.010455   -80.881783
	  111 D(12,7,10,15)   =     33.280324    -0.000000    -0.011983    33.268341
	  112 D(13,16,19,22)  =    178.861258     0.000000     0.015026   178.876284
	  113 D(13,16,19,23)  =    -59.065039     0.000000     0.010794   -59.054245
	  114 D(13,16,19,24)  =     56.866087    -0.000000     0.009714    56.875801
	  115 D(14,10,13,16)  =    -58.851269     0.000000    -0.014103   -58.865373
	  116 D(14,10,13,17)  =     62.949052     0.000000    -0.020810    62.928242
	  117 D(14,10,13,18)  =    177.102615     0.000000    -0.018361   177.084255
	  118 D(15,10,13,16)  =   -172.749108    -0.000000    -0.024823  -172.773932
	  119 D(15,10,13,17)  =    -50.948787    -0.000000    -0.031530   -50.980317
	  120 D(15,10,13,18)  =     63.204776    -0.000000    -0.029081    63.175696
	  121 D(16,19,22,25)  =     59.794045    -0.000000    -0.015023    59.779023
	  122 D(16,19,22,26)  =    179.827088    -0.000000    -0.015263   179.811825
	  123 D(16,19,22,27)  =    -60.108995    -0.000000    -0.015498   -60.124493
	  124 D(17,13,16,19)  =     49.566857    -0.000000    -0.014976    49.551881
	  125 D(17,13,16,20)  =    -72.149167    -0.000000    -0.016400   -72.165567
	  126 D(17,13,16,21)  =    170.983450     0.000000    -0.011662   170.971787
	  127 D(18,13,16,19)  =    -65.197826     0.000000    -0.010526   -65.208351
	  128 D(18,13,16,20)  =    173.086151     0.000000    -0.011951   173.074200
	  129 D(18,13,16,21)  =     56.218767     0.000000    -0.007212    56.211555
	  130 D(20,16,19,22)  =    -59.185082     0.000000     0.016145   -59.168937
	  131 D(20,16,19,23)  =     62.888621     0.000000     0.011914    62.900535
	  132 D(20,16,19,24)  =    178.819747    -0.000000     0.010833   178.830580
	  133 D(21,16,19,22)  =     56.605845     0.000000     0.014460    56.620305
	  134 D(21,16,19,23)  =    178.679548    -0.000000     0.010228   178.689776
	  135 D(21,16,19,24)  =    -65.389327    -0.000000     0.009148   -65.380179
	  136 D(23,19,22,25)  =    -62.267681     0.000000    -0.006404   -62.274085
	  137 D(23,19,22,26)  =     57.765362     0.000000    -0.006645    57.758717
	  138 D(23,19,22,27)  =    177.829279     0.000000    -0.006880   177.822399
	  139 D(24,19,22,25)  =   -178.233199    -0.000000    -0.011638  -178.244837
	  140 D(24,19,22,26)  =    -58.200156    -0.000000    -0.011879   -58.212035
	  141 D(24,19,22,27)  =     61.863761    -0.000000    -0.012114    61.851647
	  142 R(4,16)         =      3.476104    -0.000038    -0.000108     3.475996
	 ---------------------------------------------------------------------------

  ==> Convergence Check <==

  Measures of convergence in internal coordinates in au.
  Criteria marked as inactive (o), active & met (*), and active & unmet ( ).
  ---------------------------------------------------------------------------------------------
   Step     Total Energy     Delta E     MAX Force     RMS Force      MAX Disp      RMS Disp   
  ---------------------------------------------------------------------------------------------
    Convergence Criteria    1.00e-06 *    3.00e-04 *             o    1.20e-03 *             o
  ---------------------------------------------------------------------------------------------
      8    -388.27708240   -3.81e-07 *    3.64e-05 *    6.83e-06 o    1.60e-03      4.80e-04 o  ~
  ---------------------------------------------------------------------------------------------


  **** Optimization is complete! (in 8 steps) ****

  ==> Optimization Summary <==

  Measures of convergence in internal coordinates in au.
  --------------------------------------------------------------------------------------------------------------- ~
   Step         Total Energy             Delta E       MAX Force       RMS Force        MAX Disp        RMS Disp  ~
  --------------------------------------------------------------------------------------------------------------- ~
      1    -388.273634195064   -388.273634195064      0.01377739      0.00183482      0.37088654      0.04195791  ~
      2    -388.276789755535     -0.003155560471      0.00668489      0.00090671      0.04719876      0.01277478  ~
      3    -388.277052220921     -0.000262465386      0.00102191      0.00017412      0.07204081      0.02080256  ~
      4    -388.277042731476      0.000009489445      0.00053655      0.00013755      0.04508450      0.01176000  ~
      5    -388.277078227413     -0.000035495936      0.00026289      0.00005217      0.02098314      0.00610745  ~
      6    -388.277080399222     -0.000002171809      0.00021688      0.00003843      0.01053334      0.00335909  ~
      7    -388.277082021252     -0.000001622030      0.00012681      0.00002074      0.00504186      0.00150544  ~
      8    -388.277082402633     -0.000000381381      0.00003640      0.00000683      0.00159676      0.00047956  ~
  --------------------------------------------------------------------------------------------------------------- ~

	Writing optimization data to binary file.
	Final energy is   -388.2770824026327
	Final (previous) structure:
	Cartesian Geometry (in Angstrom)
	    H     1.2703888822   2.5178330692   2.0868291891
	    O     2.0632936978   2.1826643153   1.6942521040
	    C     2.2434619666   0.8392135149   2.0650204303
	    C     1.2721427911  -0.1097740939   1.3707894116
	    H     3.2593180615   0.5910410445   1.7854970362
	    H     2.1695269108   0.7291876404   3.1463829622
	    C    -0.1907217612   0.1224958456   1.7658766637
	    H     1.4071414498  -0.0091382713   0.3009247323
	    H     1.5522917321  -1.1292732192   1.6312512347
	    C    -1.2070096556  -0.8826195847   1.1949972399
	    H    -0.4945042828   1.1284115657   1.4812527140
	    H    -0.2515043852   0.0819213865   2.8523573542
	    C    -1.7660315938  -0.5950028351  -0.2055802672
	    H    -0.7809400208  -1.8840318997   1.2248060905
	    H    -2.0583499434  -0.9082673831   1.8709303960
	    C    -0.7819295118  -0.6766497475  -1.3756153510
	    H    -2.5701454371  -1.3060149639  -0.3856137135
	    H    -2.2330887864   0.3886357332  -0.2023579165
	    C    -1.4791453773  -0.5945756947  -2.7357464748
	    H    -0.2206321257  -1.6079613304  -1.3167345007
	    H    -0.0544402318   0.1268042155  -1.3090483163
	    C    -0.5037871782  -0.6472367490  -3.9111118213
	    H    -2.1946178880  -1.4094170167  -2.8237909749
	    H    -2.0574970254   0.3256127242  -2.7884201139
	    H     0.0684236222  -1.5707664947  -3.9044793399
	    H    -1.0277382085  -0.5900957048  -4.8602735418
	    H     0.2018189600   0.1778026891  -3.8727128132
	Saving final (previous) structure.
			--------------------------
			 OPTKING Finished Execution 
			--------------------------

    Final optimized geometry and variables:
    Molecular point group: c1
    Full point group: C1

    Geometry (in Angstrom), charge = 0, multiplicity = 1:

    H            1.270388785224     2.517832876929     2.086829029730
    O            2.063293540264     2.182664148653     1.694251974629
    C            2.243461795300     0.839213450776     2.065020272615
    C            1.272142693943    -0.109774085521     1.370789306893
    H            3.259317812623     0.591040999389     1.785496899819
    H            2.169526745139     0.729187584750     3.146382721952
    C           -0.190721746667     0.122495836290     1.765876528818
    H            1.407141342368    -0.009138270630     0.300924709353
    H            1.552291613581    -1.129273132918     1.631251110154
    C           -1.207009563451    -0.882619517278     1.194997148601
    H           -0.494504245076     1.128411479539     1.481252600843
    H           -0.251504366011     0.081921380270     2.852357136346
    C           -1.766031458971    -0.595002789691    -0.205580251516
    H           -0.780939961154    -1.884031755789     1.224805996962
    H           -2.058349786222    -0.908267313720     1.870930253126
    C           -0.781929452092    -0.676649695831    -1.375615245937
    H           -2.570145240791    -1.306014864197    -0.385613684005
    H           -2.233088615865     0.388635703570    -0.202357901044
    C           -1.479145264349    -0.594575649257    -2.735746265934
    H           -0.220632108852    -1.607961207575    -1.316734400132
    H           -0.054440227622     0.126804205852    -1.309048216358
    C           -0.503787139702    -0.647236699612    -3.911111522588
    H           -2.194617720364    -1.409416909034    -2.823790759269
    H           -2.057496868294     0.325612699332    -2.788419901007
    H            0.068423616977    -1.570766374757    -3.904479041775
    H           -1.027738129986    -0.590095659742    -4.860273170636
    H            0.201818944628     0.177802675555    -3.872712517471

	Cleaning optimization helper files.


Properties will be evaluated at   0.000000,   0.000000,   0.000000 Bohr

Properties computed using the  density matrix

  Nuclear Dipole Moment: (a.u.)
     X:    -3.7536      Y:    -4.0654      Z:    -4.7572

  Electronic Dipole Moment: (a.u.)
     X:     3.2476      Y:     3.6659      Z:     5.1146

  Dipole Moment: (a.u.)
     X:    -0.5060      Y:    -0.3994      Z:     0.3574     Total:     0.7371

  Dipole Moment: (Debye)
     X:    -1.2861      Y:    -1.0153      Z:     0.9085     Total:     1.8735

  Quadrupole Moment: (Debye Ang)
    XX:   -64.1484     YY:   -62.3888     ZZ:   -57.4546
    XY:    -5.7054     XZ:    -0.6110     YZ:     0.3600

  Traceless Quadrupole Moment: (Debye Ang)
    XX:    -2.8178     YY:    -1.0582     ZZ:     3.8760
    XY:    -5.7054     XZ:    -0.6110     YZ:     0.3600

  Mulliken Charges: (a.u.)
   Center  Symbol    Alpha    Beta     Spin     Total
       1     H     0.27987  0.27987  0.00000  0.44026
       2     O     4.37135  4.37135  0.00000 -0.74270
       3     C     2.99792  2.99792  0.00000  0.00416
       4     C     3.16310  3.16310  0.00000 -0.32619
       5     H     0.41453  0.41453  0.00000  0.17094
       6     H     0.43217  0.43217  0.00000  0.13566
       7     C     3.16422  3.16422  0.00000 -0.32844
       8     H     0.41077  0.41077  0.00000  0.17846
       9     H     0.42470  0.42470  0.00000  0.15060
      10     C     3.15387  3.15387  0.00000 -0.30774
      11     H     0.42525  0.42525  0.00000  0.14950
      12     H     0.42333  0.42333  0.00000  0.15334
      13     C     3.15201  3.15201  0.00000 -0.30403
      14     H     0.42266  0.42266  0.00000  0.15468
      15     H     0.42018  0.42018  0.00000  0.15963
      16     C     3.15414  3.15414  0.00000 -0.30828
      17     H     0.42241  0.42241  0.00000  0.15519
      18     H     0.42394  0.42394  0.00000  0.15212
      19     C     3.15132  3.15132  0.00000 -0.30264
      20     H     0.42461  0.42461  0.00000  0.15078
      21     H     0.41920  0.41920  0.00000  0.16160
      22     C     3.23937  3.23937  0.00000 -0.47875
      23     H     0.42349  0.42349  0.00000  0.15303
      24     H     0.42310  0.42310  0.00000  0.15381
      25     H     0.42207  0.42207  0.00000  0.15587
      26     H     0.41956  0.41956  0.00000  0.16087
      27     H     0.42086  0.42086  0.00000  0.15829

   Total alpha = 37.00000, Total beta = 37.00000, Total charge =  0.00000


*** PSI4 exiting successfully. Buy a developer a beer!
