    -----------------------------------------------------------------------
          Psi4: An Open-Source Ab Initio Electronic Structure Package
                              Psi4 1.0.54 Driver

                          Git: Rev {master} 8d4cec3 dirty

    J. M. Turney, A. C. Simmonett, R. M. Parrish, E. G. Hohenstein,
    F. A. Evangelista, J. T. Fermann, B. J. Mintz, L. A. Burns, J. J. Wilke,
    M. L. Abrams, N. J. Russ, M. L. Leininger, C. L. Janssen, E. T. Seidl,
    W. D. Allen, H. F. Schaefer, R. A. King, E. F. Valeev, C. D. Sherrill,
    and T. D. Crawford, WIREs Comput. Mol. Sci. 2, 556-565 (2012)
    (doi: 10.1002/wcms.93)

                         Additional Contributions by
    A. E. DePrince, U. Bozkaya, A. Yu. Sokolov, D. G. A. Smith, R. Di Remigio,
    R. M. Richard, J. F. Gonthier, H. R. McAlexander, M. Saitow, and
    B. P. Pritchard
    -----------------------------------------------------------------------


    Psi4 started on: Sat Sep 10 15:32:45 2016

    Process ID:  27283
    PSI4DATADIR: /export131/home/mjharvey/miniconda3/share/psi4
    Memory level set to 256.000 MB

  ==> Input File <==

--------------------------------------------------------------------------
set {
	reference rhf
	basis cc-pvtz
}


set_num_threads( 4 )
memory 2 gb

molecule MOL {
0 1

H	 1.166964	 -1.062386	 0.758429
O	 1.324748	 -0.612467	 -0.052206
C	 0.706474	 0.636793	 -0.025501
C	 -0.617442	 0.695090	 -0.733654
H	 1.393836	 1.329316	 -0.496931
H	 0.572910	 0.981594	 0.998205
C	 -1.157348	 -0.276062	 -1.436273
H	 -1.138694	 1.633013	 -0.634432
H	 -0.661498	 -1.218190	 -1.572287
H	 -2.112144	 -0.152304	 -1.910730

	symmetry c1
}
set optking {
	frozen_dihedral = ("
		5 3 2 1
	")
}

ee,wfn = optimize('scf', return_wfn=True)
oeprop( wfn, 'DIPOLE', 'QUADRUPOLE', 'MULLIKEN_CHARGES')
f=open( 'psi4out.xyz', 'w' )
f.write( "10  " )
f.write( str(ee) + "\n" )
f.write( MOL.save_string_xyz() )
f.close()
--------------------------------------------------------------------------

  Memory set to   2.000 GiB by Python script.
gradient() will perform analytic gradient computation.

*** tstart() called on cx1-27-2-4
*** at Sat Sep 10 15:32:46 2016


         ---------------------------------------------------------
                                   SCF
            by Justin Turney, Rob Parrish, and Andy Simmonett
                              RHF Reference
                        4 Threads,   2000 MiB Core
         ---------------------------------------------------------

  ==> Geometry <==

    Molecular point group: c1
    Full point group: C1

    Geometry (in Angstrom), charge = 0, multiplicity = 1:

       Center              X                  Y                   Z               Mass       
    ------------   -----------------  -----------------  -----------------  -----------------
           H          1.036287282366    -1.138130664681     1.276335765472     1.007825032070
           O          1.194071282366    -0.688211664681     0.465700765472    15.994914619560
           C          0.575797282366     0.561048335319     0.492405765472    12.000000000000
           C         -0.748118717634     0.619345335319    -0.215747234528    12.000000000000
           H          1.263159282366     1.253571335319     0.020975765472     1.007825032070
           H          0.442233282366     0.905849335319     1.516111765472     1.007825032070
           C         -1.288024717634    -0.351806664681    -0.918366234528    12.000000000000
           H         -1.269370717634     1.557268335319    -0.116525234528     1.007825032070
           H         -0.792174717634    -1.293934664681    -1.054380234528     1.007825032070
           H         -2.242820717634    -0.228048664681    -1.392823234528     1.007825032070

  Running in c1 symmetry.

  Rotational constants: A =      0.59021  B =      0.19417  C =      0.15220 [cm^-1]
  Rotational constants: A =  17694.06383  B =   5821.16853  C =   4562.88476 [MHz]
  Nuclear repulsion =  119.261949423579836

  Charge       = 0
  Multiplicity = 1
  Electrons    = 32
  Nalpha       = 16
  Nbeta        = 16

  ==> Algorithm <==

  SCF Algorithm Type is DF.
  DIIS enabled.
  MOM disabled.
  Fractional occupation disabled.
  Guess Type is SAD.
  Energy threshold   = 1.00e-08
  Density threshold  = 1.00e-08
  Integral threshold = 0.00e+00

  ==> Primary Basis <==

  Basis Set: CC-PVTZ
    Number of shells: 76
    Number of basis function: 204
    Number of Cartesian functions: 230
    Spherical Harmonics?: true
    Max angular momentum: 3

  ==> Pre-Iterations <==

   -------------------------------------------------------
    Irrep   Nso     Nmo     Nalpha   Nbeta   Ndocc  Nsocc
   -------------------------------------------------------
     A        204     204       0       0       0       0
   -------------------------------------------------------
    Total     204     204      16      16      16       0
   -------------------------------------------------------

  ==> Integral Setup <==

  ==> DFJK: Density-Fitted J/K Matrices <==

    J tasked:                  Yes
    K tasked:                  Yes
    wK tasked:                  No
    OpenMP threads:              4
    Integrals threads:           4
    Memory (MB):              1430
    Algorithm:                Core
    Integral Cache:           NONE
    Schwarz Cutoff:          1E-12
    Fitting Condition:       1E-12

   => Auxiliary Basis Set <=

  Basis Set: 
    Number of shells: 160
    Number of basis function: 496
    Number of Cartesian functions: 594
    Spherical Harmonics?: true
    Max angular momentum: 4

  Minimum eigenvalue in the overlap matrix is 4.6094970266E-04.
  Using Symmetric Orthogonalization.
  SCF Guess: Superposition of Atomic Densities via on-the-fly atomic UHF.

  ==> Iterations <==

                           Total Energy        Delta E     RMS |[F,P]|

   @DF-RHF iter   0:  -193.62493255492700   -1.93625e+02   1.86405e-02 
   @DF-RHF iter   1:  -191.88946455961570    1.73547e+00   1.79349e-03 
   @DF-RHF iter   2:  -191.98146780695652   -9.20032e-02   5.95439e-04 DIIS
   @DF-RHF iter   3:  -191.99381142415081   -1.23436e-02   2.73138e-04 DIIS
   @DF-RHF iter   4:  -191.99681109782773   -2.99967e-03   9.04828e-05 DIIS
   @DF-RHF iter   5:  -191.99725570701452   -4.44609e-04   3.44332e-05 DIIS
   @DF-RHF iter   6:  -191.99731937368949   -6.36667e-05   1.12418e-05 DIIS
   @DF-RHF iter   7:  -191.99732687850906   -7.50482e-06   2.30896e-06 DIIS
   @DF-RHF iter   8:  -191.99732722643307   -3.47924e-07   6.32926e-07 DIIS
   @DF-RHF iter   9:  -191.99732724903657   -2.26035e-08   2.07890e-07 DIIS
   @DF-RHF iter  10:  -191.99732725101092   -1.97434e-09   6.31003e-08 DIIS
   @DF-RHF iter  11:  -191.99732725118372   -1.72804e-10   1.72898e-08 DIIS
   @DF-RHF iter  12:  -191.99732725119793   -1.42109e-11   5.72846e-09 DIIS

  ==> Post-Iterations <==

    Orbital Energies (a.u.)
    -----------------------

    Doubly Occupied:                                                      

       1A    -20.554188     2A    -11.277892     3A    -11.225591  
       4A    -11.211331     5A     -1.374733     6A     -1.058852  
       7A     -0.928518     8A     -0.765842     9A     -0.702564  
      10A     -0.656557    11A     -0.615945    12A     -0.580328  
      13A     -0.521931    14A     -0.506305    15A     -0.448830  
      16A     -0.364101  

    Virtual:                                                              

      17A      0.136751    18A      0.165879    19A      0.170781  
      20A      0.183161    21A      0.206530    22A      0.225068  
      23A      0.238617    24A      0.320569    25A      0.336617  
      26A      0.375486    27A      0.429906    28A      0.449776  
      29A      0.483417    30A      0.493845    31A      0.528179  
      32A      0.558606    33A      0.582203    34A      0.593255  
      35A      0.597282    36A      0.617446    37A      0.632155  
      38A      0.644169    39A      0.653742    40A      0.677558  
      41A      0.716640    42A      0.737034    43A      0.743994  
      44A      0.798356    45A      0.819715    46A      0.849640  
      47A      0.862088    48A      0.883241    49A      0.895543  
      50A      0.926529    51A      0.952382    52A      1.025197  
      53A      1.101795    54A      1.110231    55A      1.126719  
      56A      1.158813    57A      1.202499    58A      1.222831  
      59A      1.248059    60A      1.278569    61A      1.285405  
      62A      1.329586    63A      1.345744    64A      1.351231  
      65A      1.394518    66A      1.409782    67A      1.455124  
      68A      1.501501    69A      1.526277    70A      1.547137  
      71A      1.560184    72A      1.594300    73A      1.605861  
      74A      1.643064    75A      1.657795    76A      1.700725  
      77A      1.753976    78A      1.778465    79A      1.786423  
      80A      1.903823    81A      2.099937    82A      2.116302  
      83A      2.227279    84A      2.302033    85A      2.315001  
      86A      2.392524    87A      2.425571    88A      2.461127  
      89A      2.568656    90A      2.591363    91A      2.612532  
      92A      2.631328    93A      2.690098    94A      2.746152  
      95A      2.815310    96A      2.847468    97A      2.878723  
      98A      2.944323    99A      2.965815   100A      3.045041  
     101A      3.063514   102A      3.086234   103A      3.100579  
     104A      3.141378   105A      3.157095   106A      3.188132  
     107A      3.202769   108A      3.231261   109A      3.247605  
     110A      3.260725   111A      3.287615   112A      3.305650  
     113A      3.332738   114A      3.392087   115A      3.422741  
     116A      3.436041   117A      3.446540   118A      3.470329  
     119A      3.500376   120A      3.519865   121A      3.539927  
     122A      3.568808   123A      3.601013   124A      3.614138  
     125A      3.657618   126A      3.726306   127A      3.738434  
     128A      3.765277   129A      3.768261   130A      3.794223  
     131A      3.847900   132A      3.867102   133A      3.933371  
     134A      3.952374   135A      3.967026   136A      4.025333  
     137A      4.032998   138A      4.051923   139A      4.067752  
     140A      4.089757   141A      4.161832   142A      4.189975  
     143A      4.210541   144A      4.217570   145A      4.254962  
     146A      4.301471   147A      4.315387   148A      4.340819  
     149A      4.385842   150A      4.414331   151A      4.427626  
     152A      4.447452   153A      4.456086   154A      4.492364  
     155A      4.500035   156A      4.554849   157A      4.595728  
     158A      4.654741   159A      4.703153   160A      4.722617  
     161A      4.773150   162A      4.856859   163A      4.889736  
     164A      4.901853   165A      5.031581   166A      5.054416  
     167A      5.099118   168A      5.164721   169A      5.190517  
     170A      5.248492   171A      5.276912   172A      5.326834  
     173A      5.363677   174A      5.403962   175A      5.418659  
     176A      5.427910   177A      5.468216   178A      5.548678  
     179A      5.585247   180A      5.640557   181A      5.657622  
     182A      5.814956   183A      5.842995   184A      5.990031  
     185A      6.091752   186A      6.195319   187A      6.305055  
     188A      6.327943   189A      6.350789   190A      6.513512  
     191A      6.680101   192A      6.790675   193A      7.065402  
     194A      7.166080   195A      7.255450   196A      7.268214  
     197A      7.421606   198A      7.541187   199A      7.679456  
     200A      8.003922   201A     11.584117   202A     12.721886  
     203A     13.690442   204A     15.064327  

    Final Occupation by Irrep:
              A 
    DOCC [    16 ]

  Energy converged.

  @DF-RHF Final Energy:  -191.99732725119793

   => Energetics <=

    Nuclear Repulsion Energy =            119.2619494235798356
    One-Electron Energy =                -496.9315399228415799
    Two-Electron Energy =                 185.6722632480637571
    DFT Exchange-Correlation Energy =       0.0000000000000000
    Empirical Dispersion Energy =           0.0000000000000000
    PCM Polarization Energy =               0.0000000000000000
    EFP Energy =                            0.0000000000000000
    Total Energy =                       -191.9973272511979872


  Saving occupied orbitals to File 180.

*** tstop() called on cx1-27-2-4 at Sat Sep 10 15:32:49 2016
Module time:
	user time   =       8.46 seconds =       0.14 minutes
	system time =       0.35 seconds =       0.01 minutes
	total time  =          3 seconds =       0.05 minutes
Total time:
	user time   =       8.46 seconds =       0.14 minutes
	system time =       0.35 seconds =       0.01 minutes
	total time  =          3 seconds =       0.05 minutes


Properties will be evaluated at   0.000000,   0.000000,   0.000000 Bohr

Properties computed using the SCF density matrix

  Nuclear Dipole Moment: (a.u.)
     X:    -1.4592      Y:     0.9872      Z:     0.2363

  Electronic Dipole Moment: (a.u.)
     X:     1.2108      Y:    -0.7572      Z:     0.3429

  Dipole Moment: (a.u.)
     X:    -0.2484      Y:     0.2300      Z:     0.5792     Total:     0.6709

  Dipole Moment: (Debye)
     X:    -0.6314      Y:     0.5847      Z:     1.4723     Total:     1.7054


*** tstart() called on cx1-27-2-4
*** at Sat Sep 10 15:32:49 2016


         ------------------------------------------------------------
                                   SCF GRAD                          
                          Rob Parrish, Justin Turney,                
                       Andy Simmonett, and Alex Sokolov              
         ------------------------------------------------------------

  ==> Geometry <==

    Molecular point group: c1
    Full point group: C1

    Geometry (in Angstrom), charge = 0, multiplicity = 1:

       Center              X                  Y                   Z               Mass       
    ------------   -----------------  -----------------  -----------------  -----------------
           H          1.036287282366    -1.138130664681     1.276335765472     1.007825032070
           O          1.194071282366    -0.688211664681     0.465700765472    15.994914619560
           C          0.575797282366     0.561048335319     0.492405765472    12.000000000000
           C         -0.748118717634     0.619345335319    -0.215747234528    12.000000000000
           H          1.263159282366     1.253571335319     0.020975765472     1.007825032070
           H          0.442233282366     0.905849335319     1.516111765472     1.007825032070
           C         -1.288024717634    -0.351806664681    -0.918366234528    12.000000000000
           H         -1.269370717634     1.557268335319    -0.116525234528     1.007825032070
           H         -0.792174717634    -1.293934664681    -1.054380234528     1.007825032070
           H         -2.242820717634    -0.228048664681    -1.392823234528     1.007825032070

  Nuclear repulsion =  119.261949423579836

  ==> Basis Set <==

  Basis Set: CC-PVTZ
    Number of shells: 76
    Number of basis function: 204
    Number of Cartesian functions: 230
    Spherical Harmonics?: true
    Max angular momentum: 3

  ==> DFJKGrad: Density-Fitted SCF Gradients <==

    Gradient:                    1
    J tasked:                  Yes
    K tasked:                  Yes
    wK tasked:                  No
    OpenMP threads:              4
    Integrals threads:           4
    Memory (MB):              1430
    Schwarz Cutoff:          0E+00
    Fitting Condition:       1E-12

   => Auxiliary Basis Set <=

  Basis Set: 
    Number of shells: 160
    Number of basis function: 496
    Number of Cartesian functions: 594
    Spherical Harmonics?: true
    Max angular momentum: 4


  -Total Gradient:
     Atom            X                  Y                   Z
    ------   -----------------  -----------------  -----------------
       1        0.000780526127     0.000868765199     0.003376942466
       2        0.000096739265     0.003856796229    -0.003479367285
       3       -0.001485893262    -0.003400348719    -0.000106701363
       4        0.000823763653     0.002408662218    -0.000264657253
       5        0.001146441712    -0.002756412516     0.000394138188
       6       -0.000228438780    -0.000078683213     0.000865009523
       7       -0.000722836189     0.000175414238     0.000166241912
       8       -0.000362499874    -0.000332785454     0.000132011717
       9       -0.000114948695    -0.000216042170    -0.001287108184
      10        0.000067146042    -0.000525365811     0.000203490278


*** tstop() called on cx1-27-2-4 at Sat Sep 10 15:32:51 2016
Module time:
	user time   =       9.12 seconds =       0.15 minutes
	system time =       0.27 seconds =       0.00 minutes
	total time  =          2 seconds =       0.03 minutes
Total time:
	user time   =      17.63 seconds =       0.29 minutes
	system time =       0.62 seconds =       0.01 minutes
	total time  =          5 seconds =       0.08 minutes

			-----------------------------------------
			 OPTKING 2.0: for geometry optimizations 
			  - R.A. King,  Bethel University        
			-----------------------------------------

	Internal coordinates to be generated automatically.
	Detected frag 1 with atoms:  1 2 3 4 5 6 7 8 9 10
	---Fragment 1 Bond Connectivity---
	 1 : 2
	 2 : 1 3
	 3 : 2 4 5 6
	 4 : 3 7 8
	 5 : 3
	 6 : 3
	 7 : 4 9 10
	 8 : 4
	 9 : 7
	 10 : 7

	Assuming in current code that numbering for constraints corresponds to unified fragment.
	Frozen dihedral atom list: 
	     5     3     2     1
	---Fragment 1 Geometry and Gradient---
	 H           1.9582991587       -2.1507552597        2.4119250503
	 O           2.2564677068       -1.3005315677        0.8800469066
	 C           1.0880991717        1.0602277011        0.9305120430
	 C          -1.4137394912        1.1703930654       -0.4077031872
	 H           2.3870251059        2.3689065118        0.0396384522
	 H           0.8356997905        1.7118071614        2.8650360236
	 C          -2.4340139687       -0.6648182480       -1.7354606729
	 H          -2.3987630174        2.9428106692       -0.2202007808
	 H          -1.4969932657       -2.4451821501       -1.9924898832
	 H          -4.2383169215       -0.4309495212       -2.6320544648
	             0.0007805261        0.0008687652        0.0033769425
	             0.0000967393        0.0038567962       -0.0034793673
	            -0.0014858933       -0.0034003487       -0.0001067014
	             0.0008237637        0.0024086622       -0.0002646573
	             0.0011464417       -0.0027564125        0.0003941382
	            -0.0002284388       -0.0000786832        0.0008650095
	            -0.0007228362        0.0001754142        0.0001662419
	            -0.0003624999       -0.0003327855        0.0001320117
	            -0.0001149487       -0.0002160422       -0.0012871082
	             0.0000671460       -0.0005253658        0.0002034903

	Previous optimization step data not found.  Starting new optimization.

	---Fragment 1 Intrafragment Coordinates---
	 - Coordinate -           - BOHR/RAD -       - ANG/DEG -
	 R(1,2)           =         1.777199	       0.940453
	 R(2,3)           =         2.634543	       1.394140
	 R(3,4)           =         2.839393	       1.502542
	 R(3,5)           =         2.047805	       1.083652
	 R(3,6)           =         2.056853	       1.088440
	 R(4,7)           =         2.484331	       1.314651
	 R(4,8)           =         2.036392	       1.077612
	 R(7,9)           =         2.028242	       1.073300
	 R(7,10)          =         2.028321	       1.073341
	 B(1,2,3)         =         1.915348	     109.741344
	 B(2,3,4)         =         2.000386	     114.613653
	 B(2,3,5)         =         1.857736	     106.440443
	 B(2,3,6)         =         1.935102	     110.873154
	 B(3,4,7)         =         2.195786	     125.809252
	 B(3,4,8)         =         2.000476	     114.618811
	 B(4,3,5)         =         1.906109	     109.211987
	 B(4,3,6)         =         1.899545	     108.835911
	 B(4,7,9)         =         2.125195	     121.764683
	 B(4,7,10)        =         2.113437	     121.091014
	 B(5,3,6)         =         1.859339	     106.532265
	 B(7,4,8)         =         2.086922	     119.571827
	 B(9,7,10)        =         2.044467	     117.139306
	 D(1,2,3,4)       =        -1.730757	     -99.165071
	*D(1,2,3,5)       =         2.443461	     139.999995
	 D(1,2,3,6)       =         0.428120	      24.529457
	 D(2,3,4,7)       =        -0.098036	      -5.617074
	 D(2,3,4,8)       =         3.045684	     174.504822
	 D(3,4,7,9)       =        -0.016631	      -0.952865
	 D(3,4,7,10)      =         3.139564	     179.883743
	 D(5,3,4,7)       =         1.984056	     113.678009
	 D(5,3,4,8)       =        -1.155410	     -66.200095
	 D(6,3,4,7)       =        -2.275782	    -130.392726
	 D(6,3,4,8)       =         0.867938	      49.729170
	 D(8,4,7,9)       =         3.122738	     178.919723
	 D(8,4,7,10)      =        -0.004253	      -0.243669

	Current energy   :      -191.9973272512

	Generating empirical Hessian (Schlegel '84) for each fragment.
	Taking RFO optimization step.
	Going to follow RFO solution 1.
	Using RFO vector 1.
	Norm of target step-size    0.23591
	Projected energy change by RFO approximation:        -0.0001590115

	Back-transformation to cartesian coordinates...
	Successfully converged to displaced geometry.

	Back-transformation to cartesian coordinates to adjust frozen coordinates...
	Successfully converged to displaced geometry.

	--- Internal Coordinate Step in ANG or DEG, aJ/ANG or AJ/DEG ---
	 ---------------------------------------------------------------------------
	   Coordinate                Previous        Force       Change         New 
	   ----------                --------       ------       ------       ------
	    1 R(1,2)          =      0.940453    -0.019478    -0.002086     0.938367
	    2 R(2,3)          =      1.394140     0.031665     0.004358     1.398498
	    3 R(3,4)          =      1.502542    -0.006806    -0.001358     1.501184
	    4 R(3,5)          =      1.083652     0.009934     0.001791     1.085443
	    5 R(3,6)          =      1.088440    -0.006728    -0.001233     1.087207
	    6 R(4,7)          =      1.314651    -0.010092    -0.001023     1.313628
	    7 R(4,8)          =      1.077612     0.000842     0.000149     1.077761
	    8 R(7,9)          =      1.073300    -0.002469    -0.000430     1.072870
	    9 R(7,10)         =      1.073341     0.001732     0.000302     1.073643
	   10 B(1,2,3)        =    109.741344     0.000186     0.824947   110.566291
	   11 B(2,3,4)        =    114.613653    -0.000336    -1.058539   113.555114
	   12 B(2,3,5)        =    106.440443     0.000236     1.556848   107.997292
	   13 B(2,3,6)        =    110.873154     0.000098     0.046595   110.919749
	   14 B(3,4,7)        =    125.809252    -0.000088    -0.329223   125.480029
	   15 B(3,4,8)        =    114.618811     0.000020     0.028626   114.647437
	   16 B(4,3,5)        =    109.211987     0.000064     0.416345   109.628333
	   17 B(4,3,6)        =    108.835911     0.000062    -0.243155   108.592756
	   18 B(4,7,9)        =    121.764683    -0.000067    -0.294348   121.470335
	   19 B(4,7,10)       =    121.091014     0.000001    -0.039814   121.051201
	   20 B(5,3,6)        =    106.532265    -0.000109    -0.670116   105.862149
	   21 B(7,4,8)        =    119.571827     0.000069     0.297432   119.869259
	   22 B(9,7,10)       =    117.139306     0.000066     0.338993   117.478299
	   23 D(1,2,3,4)      =    -99.165071     0.000009     0.963472   -98.201599
	   24 *D(1,2,3,5)     =    139.999995     0.000000     0.000000   139.999995
	   25 D(1,2,3,6)      =     24.529457    -0.000012    -0.114440    24.415016
	   26 D(2,3,4,7)      =     -5.617074    -0.000008     4.187784    -1.429290
	   27 D(2,3,4,8)      =    174.504822    -0.000005     4.729001   179.233823
	   28 D(3,4,7,9)      =     -0.952865     0.000015     1.806787     0.853922
	   29 D(3,4,7,10)     =    179.883743     0.000006     0.818233   180.701976
	   30 D(5,3,4,7)      =    113.678009     0.000022     5.778682   119.456691
	   31 D(5,3,4,8)      =    -66.200095     0.000024     6.319899   -59.880196
	   32 D(6,3,4,7)      =   -130.392726     0.000008     5.072140  -125.320586
	   33 D(6,3,4,8)      =     49.729170     0.000010     5.613357    55.342527
	   34 D(8,4,7,9)      =    178.919723     0.000013     1.239177   180.158900
	   35 D(8,4,7,10)     =     -0.243669     0.000004     0.250623     0.006953
	 ---------------------------------------------------------------------------
	Successfully symmetrized geometry.

  ==> Convergence Check <==

  Measures of convergence in internal coordinates in au.
  Criteria marked as inactive (o), active & met (*), and active & unmet ( ).
  --------------------------------------------------------------------------------------------- ~
   Step     Total Energy     Delta E     MAX Force     RMS Force      MAX Disp      RMS Disp    ~
  --------------------------------------------------------------------------------------------- ~
    Convergence Criteria    1.00e-06 *    3.00e-04 *             o    1.20e-03 *             o  ~
  --------------------------------------------------------------------------------------------- ~
      1    -191.99732725   -1.92e+02      4.42e-03      1.47e-03 o    1.10e-01      3.99e-02 o  ~
  ---------------------------------------------------------------------------------------------

	Writing optimization data to binary file.
	Structure for next step:
	Cartesian Geometry (in Angstrom)
	    H     1.0217002986  -1.1444471609   1.2435228315
	    O     1.1957750589  -0.6638422383   0.4565990125
	    C     0.5681107947   0.5853061802   0.4948314514
	    C    -0.7392336186   0.6226004138  -0.2420621879
	    H     1.2482591147   1.3155981874   0.0679147550
	    H     0.3970486321   0.9025694280   1.5205512588
	    C    -1.2728819632  -0.3817699512  -0.8993890389
	    H    -1.2446236237   1.5740730326  -0.2129159529
	    H    -0.7933329675  -1.3405031787  -0.9431258599
	    H    -2.2097829026  -0.2726343597  -1.4122386147
			--------------------------
			 OPTKING Finished Execution 
			--------------------------

    Structure for next step:
    Molecular point group: c1
    Full point group: C1

    Geometry (in Angstrom), charge = 0, multiplicity = 1:

    H            1.018165577519    -1.150275573832     1.246803276399
    O            1.192240337831    -0.669670651199     0.459879457385
    C            0.564576073567     0.579477767220     0.498111896361
    C           -0.742768339681     0.616772000845    -0.238781743011
    H            1.244724393601     1.309769774455     0.071195199910
    H            0.393513911020     0.896741015077     1.523831703695
    C           -1.276416684266    -0.387598364128    -0.896108593993
    H           -1.248158344784     1.568244619624    -0.209635508023
    H           -0.796867688600    -1.346331591644    -0.939845415025
    H           -2.213317623689    -0.278462772648    -1.408958169737

gradient() will perform analytic gradient computation.

*** tstart() called on cx1-27-2-4
*** at Sat Sep 10 15:32:52 2016


         ---------------------------------------------------------
                                   SCF
            by Justin Turney, Rob Parrish, and Andy Simmonett
                              RHF Reference
                        4 Threads,   2000 MiB Core
         ---------------------------------------------------------

  ==> Geometry <==

    Molecular point group: c1
    Full point group: C1

    Geometry (in Angstrom), charge = 0, multiplicity = 1:

       Center              X                  Y                   Z               Mass       
    ------------   -----------------  -----------------  -----------------  -----------------
           H          1.018165577519    -1.150275573832     1.246803276399     1.007825032070
           O          1.192240337831    -0.669670651199     0.459879457385    15.994914619560
           C          0.564576073567     0.579477767220     0.498111896361    12.000000000000
           C         -0.742768339681     0.616772000845    -0.238781743011    12.000000000000
           H          1.244724393601     1.309769774455     0.071195199910     1.007825032070
           H          0.393513911020     0.896741015077     1.523831703695     1.007825032070
           C         -1.276416684266    -0.387598364128    -0.896108593993    12.000000000000
           H         -1.248158344784     1.568244619624    -0.209635508023     1.007825032070
           H         -0.796867688600    -1.346331591644    -0.939845415025     1.007825032070
           H         -2.213317623689    -0.278462772648    -1.408958169737     1.007825032070

  Running in c1 symmetry.

  Rotational constants: A =      0.58107  B =      0.19783  C =      0.15358 [cm^-1]
  Rotational constants: A =  17420.11551  B =   5930.73565  C =   4604.10504 [MHz]
  Nuclear repulsion =  119.443827021882356

  Charge       = 0
  Multiplicity = 1
  Electrons    = 32
  Nalpha       = 16
  Nbeta        = 16

  ==> Algorithm <==

  SCF Algorithm Type is DF.
  DIIS enabled.
  MOM disabled.
  Fractional occupation disabled.
  Guess Type is READ.
  Energy threshold   = 1.00e-08
  Density threshold  = 1.00e-08
  Integral threshold = 0.00e+00

  ==> Primary Basis <==

  Basis Set: CC-PVTZ
    Number of shells: 76
    Number of basis function: 204
    Number of Cartesian functions: 230
    Spherical Harmonics?: true
    Max angular momentum: 3

  ==> Pre-Iterations <==

   -------------------------------------------------------
    Irrep   Nso     Nmo     Nalpha   Nbeta   Ndocc  Nsocc
   -------------------------------------------------------
     A        204     204       0       0       0       0
   -------------------------------------------------------
    Total     204     204      16      16      16       0
   -------------------------------------------------------

  ==> Integral Setup <==

  ==> DFJK: Density-Fitted J/K Matrices <==

    J tasked:                  Yes
    K tasked:                  Yes
    wK tasked:                  No
    OpenMP threads:              4
    Integrals threads:           4
    Memory (MB):              1430
    Algorithm:                Core
    Integral Cache:           NONE
    Schwarz Cutoff:          1E-12
    Fitting Condition:       1E-12

   => Auxiliary Basis Set <=

  Basis Set: 
    Number of shells: 160
    Number of basis function: 496
    Number of Cartesian functions: 594
    Spherical Harmonics?: true
    Max angular momentum: 4

  Minimum eigenvalue in the overlap matrix is 4.5508243107E-04.
  Using Symmetric Orthogonalization.
  SCF Guess: Reading in previously saved MOs, projecting if necessary.

  Using orbitals from previous SCF, no projection.
  Recomputing DOCC and SOCC from number of alpha and beta electrons from previous calculation.
              A 
    DOCC [    16 ]

  ==> Iterations <==

                           Total Energy        Delta E     RMS |[F,P]|

   @DF-RHF iter   0:  -191.98799771903109   -1.91988e+02   4.77198e-04 
   @DF-RHF iter   1:  -191.99713157123634   -9.13385e-03   9.04330e-05 
   @DF-RHF iter   2:  -191.99748972075159   -3.58150e-04   3.64182e-05 DIIS
   @DF-RHF iter   3:  -191.99756298308515   -7.32623e-05   1.70508e-05 DIIS
   @DF-RHF iter   4:  -191.99757753690304   -1.45538e-05   4.59196e-06 DIIS
   @DF-RHF iter   5:  -191.99757894052127   -1.40362e-06   1.86591e-06 DIIS
   @DF-RHF iter   6:  -191.99757909177887   -1.51258e-07   3.93946e-07 DIIS
   @DF-RHF iter   7:  -191.99757909990083   -8.12196e-09   8.73038e-08 DIIS
   @DF-RHF iter   8:  -191.99757910037536   -4.74529e-10   2.98650e-08 DIIS
   @DF-RHF iter   9:  -191.99757910042072   -4.53610e-11   1.18435e-08 DIIS
   @DF-RHF iter  10:  -191.99757910042885   -8.12861e-12   3.34782e-09 DIIS

  ==> Post-Iterations <==

    Orbital Energies (a.u.)
    -----------------------

    Doubly Occupied:                                                      

       1A    -20.553819     2A    -11.278568     3A    -11.225094  
       4A    -11.210804     5A     -1.373250     6A     -1.059304  
       7A     -0.929318     8A     -0.764658     9A     -0.702446  
      10A     -0.658462    11A     -0.616039    12A     -0.578071  
      13A     -0.520804    14A     -0.506479    15A     -0.450152  
      16A     -0.364125  

    Virtual:                                                              

      17A      0.137097    18A      0.164591    19A      0.172127  
      20A      0.182892    21A      0.207932    22A      0.223435  
      23A      0.240038    24A      0.318727    25A      0.335123  
      26A      0.376746    27A      0.430053    28A      0.449835  
      29A      0.482540    30A      0.492564    31A      0.530181  
      32A      0.559773    33A      0.582786    34A      0.591889  
      35A      0.597411    36A      0.613307    37A      0.632350  
      38A      0.644607    39A      0.656888    40A      0.675632  
      41A      0.717433    42A      0.739156    43A      0.743668  
      44A      0.799397    45A      0.817249    46A      0.848552  
      47A      0.865877    48A      0.881820    49A      0.902467  
      50A      0.928465    51A      0.950242    52A      1.021448  
      53A      1.099518    54A      1.113714    55A      1.124282  
      56A      1.161956    57A      1.205006    58A      1.219785  
      59A      1.247829    60A      1.279052    61A      1.288106  
      62A      1.333800    63A      1.339996    64A      1.349668  
      65A      1.402233    66A      1.411203    67A      1.447805  
      68A      1.503587    69A      1.524402    70A      1.543589  
      71A      1.562392    72A      1.594115    73A      1.605418  
      74A      1.642816    75A      1.657675    76A      1.698773  
      77A      1.757356    78A      1.784532    79A      1.789971  
      80A      1.906125    81A      2.094716    82A      2.120731  
      83A      2.224952    84A      2.302217    85A      2.323890  
      86A      2.395893    87A      2.425182    88A      2.467059  
      89A      2.569987    90A      2.589364    91A      2.613856  
      92A      2.629368    93A      2.690572    94A      2.744865  
      95A      2.828667    96A      2.843920    97A      2.883230  
      98A      2.936801    99A      2.968248   100A      3.046937  
     101A      3.062498   102A      3.089880   103A      3.100013  
     104A      3.145377   105A      3.158573   106A      3.189861  
     107A      3.204182   108A      3.225423   109A      3.251834  
     110A      3.257919   111A      3.281936   112A      3.318248  
     113A      3.334431   114A      3.393202   115A      3.422404  
     116A      3.438427   117A      3.445943   118A      3.463218  
     119A      3.499303   120A      3.516852   121A      3.539863  
     122A      3.570149   123A      3.601503   124A      3.623733  
     125A      3.660133   126A      3.726248   127A      3.740391  
     128A      3.762457   129A      3.774478   130A      3.791754  
     131A      3.849965   132A      3.869152   133A      3.937993  
     134A      3.945268   135A      3.963595   136A      4.030132  
     137A      4.038369   138A      4.045754   139A      4.061367  
     140A      4.084236   141A      4.162538   142A      4.191541  
     143A      4.210878   144A      4.218993   145A      4.251617  
     146A      4.308172   147A      4.312268   148A      4.345069  
     149A      4.384072   150A      4.413237   151A      4.431637  
     152A      4.447874   153A      4.458639   154A      4.497369  
     155A      4.506563   156A      4.562629   157A      4.594151  
     158A      4.657811   159A      4.704292   160A      4.724610  
     161A      4.772031   162A      4.861091   163A      4.885632  
     164A      4.901520   165A      5.027388   166A      5.055868  
     167A      5.095901   168A      5.175888   169A      5.196599  
     170A      5.244139   171A      5.274611   172A      5.330393  
     173A      5.367308   174A      5.401857   175A      5.420350  
     176A      5.432509   177A      5.464218   178A      5.559616  
     179A      5.585130   180A      5.628869   181A      5.654177  
     182A      5.821380   183A      5.845194   184A      5.985369  
     185A      6.078996   186A      6.204707   187A      6.294606  
     188A      6.333396   189A      6.357016   190A      6.511650  
     191A      6.676639   192A      6.790523   193A      7.068250  
     194A      7.174669   195A      7.257856   196A      7.269056  
     197A      7.420919   198A      7.532935   199A      7.685538  
     200A      8.006630   201A     11.603405   202A     12.737725  
     203A     13.697496   204A     15.073408  

    Final Occupation by Irrep:
              A 
    DOCC [    16 ]

  Energy converged.

  @DF-RHF Final Energy:  -191.99757910042885

   => Energetics <=

    Nuclear Repulsion Energy =            119.4438270218823561
    One-Electron Energy =                -497.3000252380647908
    Two-Electron Energy =                 185.8586191157535268
    DFT Exchange-Correlation Energy =       0.0000000000000000
    Empirical Dispersion Energy =           0.0000000000000000
    PCM Polarization Energy =               0.0000000000000000
    EFP Energy =                            0.0000000000000000
    Total Energy =                       -191.9975791004288794


  Saving occupied orbitals to File 180.

*** tstop() called on cx1-27-2-4 at Sat Sep 10 15:32:54 2016
Module time:
	user time   =       6.16 seconds =       0.10 minutes
	system time =       0.18 seconds =       0.00 minutes
	total time  =          2 seconds =       0.03 minutes
Total time:
	user time   =      25.28 seconds =       0.42 minutes
	system time =       0.85 seconds =       0.01 minutes
	total time  =          8 seconds =       0.13 minutes


Properties will be evaluated at   0.000000,   0.000000,   0.000000 Bohr

Properties computed using the SCF density matrix

  Nuclear Dipole Moment: (a.u.)
     X:    -1.4960      Y:     0.9340      Z:     0.2679

  Electronic Dipole Moment: (a.u.)
     X:     1.2313      Y:    -0.7145      Z:     0.3092

  Dipole Moment: (a.u.)
     X:    -0.2647      Y:     0.2195      Z:     0.5771     Total:     0.6718

  Dipole Moment: (Debye)
     X:    -0.6729      Y:     0.5579      Z:     1.4669     Total:     1.7076


*** tstart() called on cx1-27-2-4
*** at Sat Sep 10 15:32:54 2016


         ------------------------------------------------------------
                                   SCF GRAD                          
                          Rob Parrish, Justin Turney,                
                       Andy Simmonett, and Alex Sokolov              
         ------------------------------------------------------------

  ==> Geometry <==

    Molecular point group: c1
    Full point group: C1

    Geometry (in Angstrom), charge = 0, multiplicity = 1:

       Center              X                  Y                   Z               Mass       
    ------------   -----------------  -----------------  -----------------  -----------------
           H          1.018165577519    -1.150275573832     1.246803276399     1.007825032070
           O          1.192240337831    -0.669670651199     0.459879457385    15.994914619560
           C          0.564576073567     0.579477767220     0.498111896361    12.000000000000
           C         -0.742768339681     0.616772000845    -0.238781743011    12.000000000000
           H          1.244724393601     1.309769774455     0.071195199910     1.007825032070
           H          0.393513911020     0.896741015077     1.523831703695     1.007825032070
           C         -1.276416684266    -0.387598364128    -0.896108593993    12.000000000000
           H         -1.248158344784     1.568244619624    -0.209635508023     1.007825032070
           H         -0.796867688600    -1.346331591644    -0.939845415025     1.007825032070
           H         -2.213317623689    -0.278462772648    -1.408958169737     1.007825032070

  Nuclear repulsion =  119.443827021882356

  ==> Basis Set <==

  Basis Set: CC-PVTZ
    Number of shells: 76
    Number of basis function: 204
    Number of Cartesian functions: 230
    Spherical Harmonics?: true
    Max angular momentum: 3

  ==> DFJKGrad: Density-Fitted SCF Gradients <==

    Gradient:                    1
    J tasked:                  Yes
    K tasked:                  Yes
    wK tasked:                  No
    OpenMP threads:              4
    Integrals threads:           4
    Memory (MB):              1430
    Schwarz Cutoff:          0E+00
    Fitting Condition:       1E-12

   => Auxiliary Basis Set <=

  Basis Set: 
    Number of shells: 160
    Number of basis function: 496
    Number of Cartesian functions: 594
    Spherical Harmonics?: true
    Max angular momentum: 4


  -Total Gradient:
     Atom            X                  Y                   Z
    ------   -----------------  -----------------  -----------------
       1        0.001631071224     0.000090726774     0.000520707612
       2       -0.002606424722    -0.001946839662    -0.000040823723
       3        0.000930320397     0.001073789333    -0.002743422893
       4       -0.000598177052    -0.000694586959     0.001135305473
       5        0.000481542864     0.001312591644     0.001524197064
       6       -0.000492255011     0.000097815696    -0.000609490022
       7        0.001033392037     0.000683395624    -0.000609532571
       8       -0.000078508494    -0.000110632211     0.000412825811
       9       -0.000364963740    -0.000546042465     0.000682766581
      10        0.000064002497     0.000039782225    -0.000272533332


*** tstop() called on cx1-27-2-4 at Sat Sep 10 15:32:56 2016
Module time:
	user time   =       7.88 seconds =       0.13 minutes
	system time =       0.27 seconds =       0.00 minutes
	total time  =          2 seconds =       0.03 minutes
Total time:
	user time   =      33.21 seconds =       0.55 minutes
	system time =       1.12 seconds =       0.02 minutes
	total time  =         10 seconds =       0.17 minutes

			-----------------------------------------
			 OPTKING 2.0: for geometry optimizations 
			  - R.A. King,  Bethel University        
			-----------------------------------------

	Previous internal coordinate definitions found.
	---Fragment 1 Geometry and Gradient---
	 H           1.9240540994       -2.1737058119        2.3561167340
	 O           2.2530077231       -1.2654941300        0.8690462286
	 C           1.0668941602        1.0950542801        0.9412950677
	 C          -1.4036287422        1.1655301680       -0.4512320998
	 H           2.3521882148        2.4751061709        0.1345394298
	 H           0.7436335213        1.6945949306        2.8796245926
	 C          -2.4120779647       -0.7324547578       -1.6933998280
	 H          -2.3586774421        2.9635528405       -0.3961536979
	 H          -1.5058616956       -2.5441979923       -1.7760504416
	 H          -4.1825641539       -0.5262183785       -2.6625450735
	             0.0016310712        0.0000907268        0.0005207076
	            -0.0026064247       -0.0019468397       -0.0000408237
	             0.0009303204        0.0010737893       -0.0027434229
	            -0.0005981771       -0.0006945870        0.0011353055
	             0.0004815429        0.0013125916        0.0015241971
	            -0.0004922550        0.0000978157       -0.0006094900
	             0.0010333920        0.0006833956       -0.0006095326
	            -0.0000785085       -0.0001106322        0.0004128258
	            -0.0003649637       -0.0005460425        0.0006827666
	             0.0000640025        0.0000397822       -0.0002725333

	---Fragment 1 Intrafragment Coordinates---
	 - Coordinate -           - BOHR/RAD -       - ANG/DEG -
	 R(1,2)           =         1.773256	       0.938367
	 R(2,3)           =         2.642778	       1.398498
	 R(3,4)           =         2.836826	       1.501184
	 R(3,5)           =         2.051190	       1.085443
	 R(3,6)           =         2.054524	       1.087207
	 R(4,7)           =         2.482397	       1.313628
	 R(4,8)           =         2.036673	       1.077761
	 R(7,9)           =         2.027430	       1.072870
	 R(7,10)          =         2.028891	       1.073643
	 B(1,2,3)         =         1.929746	     110.566291
	 B(2,3,4)         =         1.981911	     113.555114
	 B(2,3,5)         =         1.884908	     107.997292
	 B(2,3,6)         =         1.935915	     110.919749
	 B(3,4,7)         =         2.190040	     125.480029
	 B(3,4,8)         =         2.000975	     114.647437
	 B(4,3,5)         =         1.913375	     109.628333
	 B(4,3,6)         =         1.895301	     108.592756
	 B(4,7,9)         =         2.120057	     121.470335
	 B(4,7,10)        =         2.112742	     121.051201
	 B(5,3,6)         =         1.847643	     105.862149
	 B(7,4,8)         =         2.092113	     119.869259
	 B(9,7,10)        =         2.050383	     117.478299
	 D(1,2,3,4)       =        -1.713941	     -98.201599
	*D(1,2,3,5)       =         2.443461	     139.999995
	 D(1,2,3,6)       =         0.426122	      24.415016
	 D(2,3,4,7)       =        -0.024946	      -1.429290
	 D(2,3,4,8)       =         3.128220	     179.233823
	 D(3,4,7,9)       =         0.014904	       0.853922
	 D(3,4,7,10)      =        -3.129341	    -179.298024
	 D(5,3,4,7)       =         2.084913	     119.456691
	 D(5,3,4,8)       =        -1.045107	     -59.880196
	 D(6,3,4,7)       =        -2.187257	    -125.320586
	 D(6,3,4,8)       =         0.965909	      55.342527
	 D(8,4,7,9)       =        -3.138819	    -179.841100
	 D(8,4,7,10)      =         0.000121	       0.006953

	Current energy   :      -191.9975791004

	Energy change for the previous step:
		Projected    :        -0.0001590115
		Actual       :        -0.0002518492
	Energy ratio indicates good step: Trust radius increased to 1.000e+00.


	Performing BFGS update.
	Previous computed or guess Hessian on step 1.
	Steps to be used in Hessian update: 1
	Taking RFO optimization step.
	Going to follow RFO solution 1.
	Using RFO vector 1.
	Norm of target step-size    0.04953
	Projected energy change by RFO approximation:         0.0001058057

	Back-transformation to cartesian coordinates...
	Successfully converged to displaced geometry.

	Back-transformation to cartesian coordinates to adjust frozen coordinates...
	Successfully converged to displaced geometry.

	--- Internal Coordinate Step in ANG or DEG, aJ/ANG or AJ/DEG ---
	 ---------------------------------------------------------------------------
	   Coordinate                Previous        Force       Change         New 
	   ----------                --------       ------       ------       ------
	    1 R(1,2)          =      0.938367    -0.000722    -0.000194     0.938173
	    2 R(2,3)          =      1.398498    -0.009944    -0.000811     1.397687
	    3 R(3,4)          =      1.501184     0.005983     0.000863     1.502047
	    4 R(3,5)          =      1.085443    -0.004823    -0.000577     1.084865
	    5 R(3,6)          =      1.087207     0.003864     0.000484     1.087692
	    6 R(4,7)          =      1.313628     0.002746     0.000156     1.313784
	    7 R(4,8)          =      1.077761     0.000409     0.000067     1.077828
	    8 R(7,9)          =      1.072870    -0.002447    -0.000366     1.072504
	    9 R(7,10)         =      1.073643    -0.000646    -0.000070     1.073572
	   10 B(1,2,3)        =    110.566291    -0.000087    -0.263409   110.302882
	   11 B(2,3,4)        =    113.555114     0.000123     0.265372   113.820486
	   12 B(2,3,5)        =    107.997292    -0.000095    -0.485474   107.511818
	   13 B(2,3,6)        =    110.919749    -0.000053    -0.011460   110.908289
	   14 B(3,4,7)        =    125.480029     0.000042     0.096327   125.576356
	   15 B(3,4,8)        =    114.647437    -0.000011    -0.013774   114.633663
	   16 B(4,3,5)        =    109.628333    -0.000039    -0.195880   109.432453
	   17 B(4,3,6)        =    108.592756     0.000030     0.364802   108.957558
	   18 B(4,7,9)        =    121.470335    -0.000006    -0.052046   121.418289
	   19 B(4,7,10)       =    121.051201    -0.000001     0.006187   121.057387
	   20 B(5,3,6)        =    105.862149     0.000025     0.033201   105.895350
	   21 B(7,4,8)        =    119.869259    -0.000031    -0.079736   119.789524
	   22 B(9,7,10)       =    117.478299     0.000007     0.043309   117.521608
	   23 D(1,2,3,4)      =    -98.201599    -0.000008    -0.422771   -98.624370
	   24 *D(1,2,3,5)     =    139.999995    -0.000000     0.000000   139.999995
	   25 D(1,2,3,6)      =     24.415016     0.000012     0.245889    24.660905
	   26 D(2,3,4,7)      =     -1.429290     0.000010     1.350430    -0.078860
	   27 D(2,3,4,8)      =    179.233823     0.000007     0.935446   180.169269
	   28 D(3,4,7,9)      =      0.853922    -0.000015    -1.306217    -0.452294
	   29 D(3,4,7,10)     =   -179.298024    -0.000005    -0.539798  -179.837822
	   30 D(5,3,4,7)      =    119.456691    -0.000005     0.765359   120.222050
	   31 D(5,3,4,8)      =    -59.880196    -0.000008     0.350376   -59.529820
	   32 D(6,3,4,7)      =   -125.320586     0.000001     0.900178  -124.420408
	   33 D(6,3,4,8)      =     55.342527    -0.000002     0.485194    55.827721
	   34 D(8,4,7,9)      =   -179.841100    -0.000012    -0.871085  -180.712185
	   35 D(8,4,7,10)     =      0.006953    -0.000003    -0.104665    -0.097712
	 ---------------------------------------------------------------------------
	Successfully symmetrized geometry.

  ==> Convergence Check <==

  Measures of convergence in internal coordinates in au.
  Criteria marked as inactive (o), active & met (*), and active & unmet ( ).
  ---------------------------------------------------------------------------------------------
   Step     Total Energy     Delta E     MAX Force     RMS Force      MAX Disp      RMS Disp   
  ---------------------------------------------------------------------------------------------
    Convergence Criteria    1.00e-06 *    3.00e-04 *             o    1.20e-03 *             o
  ---------------------------------------------------------------------------------------------
      2    -191.99757910   -2.52e-04      1.62e-03      6.01e-04 o    2.36e-02      8.37e-03 o  ~
  ---------------------------------------------------------------------------------------------

	Writing optimization data to binary file.
	Structure for next step:
	Cartesian Geometry (in Angstrom)
	    H     1.0318412732  -1.1422454001   1.2442433062
	    O     1.2011315543  -0.6640907701   0.4550173050
	    C     0.5646816475   0.5796216356   0.4955040179
	    C    -0.7429177841   0.6162484423  -0.2427285074
	    H     1.2432924545   1.3077890464   0.0640038953
	    H     0.3997519216   0.8980171017   1.5223903330
	    C    -1.2863992885  -0.3925865233  -0.8853088350
	    H    -1.2437623839   1.5704245570  -0.2223409005
	    H    -0.8054391129  -1.3500663725  -0.9319340116
	    H    -2.2264886693  -0.2844454933  -1.3923544991
			--------------------------
			 OPTKING Finished Execution 
			--------------------------

    Structure for next step:
    Molecular point group: c1
    Full point group: C1

    Geometry (in Angstrom), charge = 0, multiplicity = 1:

    H            1.031444306430    -1.142669608359     1.244694815736
    O            1.200734587495    -0.664514978339     0.455468814509
    C            0.564284680690     0.579197427369     0.495955527425
    C           -0.743314750898     0.615824233988    -0.242276997938
    H            1.242895487739     1.307364838117     0.064455404809
    H            0.399354954807     0.897592893483     1.522841842492
    C           -1.286796255282    -0.393010731588    -0.884857325449
    H           -1.244159350685     1.570000348741    -0.221889390945
    H           -0.805836079683    -1.350490580756    -0.931482502072
    H           -2.226885636120    -0.284869701555    -1.391902989558

gradient() will perform analytic gradient computation.

*** tstart() called on cx1-27-2-4
*** at Sat Sep 10 15:32:56 2016


         ---------------------------------------------------------
                                   SCF
            by Justin Turney, Rob Parrish, and Andy Simmonett
                              RHF Reference
                        4 Threads,   2000 MiB Core
         ---------------------------------------------------------

  ==> Geometry <==

    Molecular point group: c1
    Full point group: C1

    Geometry (in Angstrom), charge = 0, multiplicity = 1:

       Center              X                  Y                   Z               Mass       
    ------------   -----------------  -----------------  -----------------  -----------------
           H          1.031444306430    -1.142669608359     1.244694815736     1.007825032070
           O          1.200734587495    -0.664514978339     0.455468814509    15.994914619560
           C          0.564284680690     0.579197427369     0.495955527425    12.000000000000
           C         -0.743314750898     0.615824233988    -0.242276997938    12.000000000000
           H          1.242895487739     1.307364838117     0.064455404809     1.007825032070
           H          0.399354954807     0.897592893483     1.522841842492     1.007825032070
           C         -1.286796255282    -0.393010731588    -0.884857325449    12.000000000000
           H         -1.244159350685     1.570000348741    -0.221889390945     1.007825032070
           H         -0.805836079683    -1.350490580756    -0.931482502072     1.007825032070
           H         -2.226885636120    -0.284869701555    -1.391902989558     1.007825032070

  Running in c1 symmetry.

  Rotational constants: A =      0.58310  B =      0.19695  C =      0.15317 [cm^-1]
  Rotational constants: A =  17480.98595  B =   5904.39811  C =   4591.91003 [MHz]
  Nuclear repulsion =  119.393941349532241

  Charge       = 0
  Multiplicity = 1
  Electrons    = 32
  Nalpha       = 16
  Nbeta        = 16

  ==> Algorithm <==

  SCF Algorithm Type is DF.
  DIIS enabled.
  MOM disabled.
  Fractional occupation disabled.
  Guess Type is READ.
  Energy threshold   = 1.00e-08
  Density threshold  = 1.00e-08
  Integral threshold = 0.00e+00

  ==> Primary Basis <==

  Basis Set: CC-PVTZ
    Number of shells: 76
    Number of basis function: 204
    Number of Cartesian functions: 230
    Spherical Harmonics?: true
    Max angular momentum: 3

  ==> Pre-Iterations <==

   -------------------------------------------------------
    Irrep   Nso     Nmo     Nalpha   Nbeta   Ndocc  Nsocc
   -------------------------------------------------------
     A        204     204       0       0       0       0
   -------------------------------------------------------
    Total     204     204      16      16      16       0
   -------------------------------------------------------

  ==> Integral Setup <==

  ==> DFJK: Density-Fitted J/K Matrices <==

    J tasked:                  Yes
    K tasked:                  Yes
    wK tasked:                  No
    OpenMP threads:              4
    Integrals threads:           4
    Memory (MB):              1430
    Algorithm:                Core
    Integral Cache:           NONE
    Schwarz Cutoff:          1E-12
    Fitting Condition:       1E-12

   => Auxiliary Basis Set <=

  Basis Set: 
    Number of shells: 160
    Number of basis function: 496
    Number of Cartesian functions: 594
    Spherical Harmonics?: true
    Max angular momentum: 4

  Minimum eigenvalue in the overlap matrix is 4.5570775980E-04.
  Using Symmetric Orthogonalization.
  SCF Guess: Reading in previously saved MOs, projecting if necessary.

  Using orbitals from previous SCF, no projection.
  Recomputing DOCC and SOCC from number of alpha and beta electrons from previous calculation.
              A 
    DOCC [    16 ]

  ==> Iterations <==

                           Total Energy        Delta E     RMS |[F,P]|

   @DF-RHF iter   0:  -191.99769655783822   -1.91998e+02   1.43504e-04 
   @DF-RHF iter   1:  -191.99760513922698    9.14186e-05   1.70052e-05 
   @DF-RHF iter   2:  -191.99761751189553   -1.23727e-05   6.18585e-06 DIIS
   @DF-RHF iter   3:  -191.99761988502328   -2.37313e-06   1.67140e-06 DIIS
   @DF-RHF iter   4:  -191.99762005089272   -1.65869e-07   7.40608e-07 DIIS
   @DF-RHF iter   5:  -191.99762008041077   -2.95180e-08   2.58069e-07 DIIS
   @DF-RHF iter   6:  -191.99762008379574   -3.38497e-09   6.38402e-08 DIIS
   @DF-RHF iter   7:  -191.99762008397030   -1.74566e-10   1.78013e-08 DIIS
   @DF-RHF iter   8:  -191.99762008398702   -1.67120e-11   4.92955e-09 DIIS

  ==> Post-Iterations <==

    Orbital Energies (a.u.)
    -----------------------

    Doubly Occupied:                                                      

       1A    -20.553962     2A    -11.278508     3A    -11.225379  
       4A    -11.210942     5A     -1.373790     6A     -1.059221  
       7A     -0.929253     8A     -0.764764     9A     -0.702661  
      10A     -0.658617    11A     -0.616133    12A     -0.577795  
      13A     -0.520577    14A     -0.507398    15A     -0.450110  
      16A     -0.364203  

    Virtual:                                                              

      17A      0.136974    18A      0.164694    19A      0.172210  
      20A      0.182818    21A      0.208198    22A      0.222997  
      23A      0.239938    24A      0.318867    25A      0.335389  
      26A      0.376335    27A      0.430310    28A      0.449544  
      29A      0.482488    30A      0.492522    31A      0.530271  
      32A      0.559919    33A      0.582111    34A      0.591199  
      35A      0.597572    36A      0.614297    37A      0.632605  
      38A      0.644589    39A      0.657279    40A      0.675007  
      41A      0.717205    42A      0.738823    43A      0.742847  
      44A      0.798768    45A      0.817311    46A      0.848550  
      47A      0.865346    48A      0.880958    49A      0.902960  
      50A      0.930145    51A      0.948745    52A      1.020965  
      53A      1.099732    54A      1.113446    55A      1.124028  
      56A      1.162358    57A      1.204787    58A      1.219420  
      59A      1.247780    60A      1.278320    61A      1.287165  
      62A      1.333986    63A      1.339640    64A      1.350009  
      65A      1.402637    66A      1.412149    67A      1.444707  
      68A      1.504151    69A      1.526210    70A      1.543142  
      71A      1.561635    72A      1.593722    73A      1.605651  
      74A      1.643417    75A      1.659079    76A      1.699758  
      77A      1.756779    78A      1.782962    79A      1.788232  
      80A      1.905950    81A      2.094582    82A      2.122303  
      83A      2.225377    84A      2.303153    85A      2.322217  
      86A      2.394070    87A      2.425905    88A      2.466589  
      89A      2.571371    90A      2.587561    91A      2.614377  
      92A      2.629436    93A      2.690404    94A      2.744517  
      95A      2.825868    96A      2.845507    97A      2.882642  
      98A      2.937535    99A      2.967293   100A      3.046737  
     101A      3.062105   102A      3.089430   103A      3.098469  
     104A      3.144849   105A      3.158424   106A      3.189517  
     107A      3.204023   108A      3.226681   109A      3.252289  
     110A      3.257940   111A      3.281480   112A      3.318782  
     113A      3.332833   114A      3.392947   115A      3.422148  
     116A      3.437703   117A      3.444714   118A      3.464211  
     119A      3.498007   120A      3.517612   121A      3.539214  
     122A      3.570488   123A      3.601077   124A      3.623205  
     125A      3.660344   126A      3.726739   127A      3.739959  
     128A      3.762955   129A      3.774448   130A      3.791021  
     131A      3.850659   132A      3.868611   133A      3.938204  
     134A      3.945342   135A      3.963343   136A      4.029135  
     137A      4.035345   138A      4.045289   139A      4.063363  
     140A      4.085188   141A      4.163953   142A      4.191161  
     143A      4.211804   144A      4.218338   145A      4.251088  
     146A      4.307542   147A      4.312134   148A      4.347081  
     149A      4.383668   150A      4.412162   151A      4.431490  
     152A      4.446798   153A      4.459547   154A      4.497644  
     155A      4.505353   156A      4.562223   157A      4.593948  
     158A      4.656209   159A      4.705129   160A      4.725453  
     161A      4.772084   162A      4.862511   163A      4.882573  
     164A      4.900423   165A      5.029840   166A      5.055659  
     167A      5.096143   168A      5.175459   169A      5.195839  
     170A      5.246557   171A      5.276483   172A      5.328256  
     173A      5.366122   174A      5.401270   175A      5.422228  
     176A      5.431825   177A      5.464842   178A      5.558828  
     179A      5.586026   180A      5.629422   181A      5.654873  
     182A      5.822744   183A      5.845363   184A      5.983150  
     185A      6.083205   186A      6.204492   187A      6.296199  
     188A      6.333164   189A      6.356650   190A      6.511394  
     191A      6.676515   192A      6.790600   193A      7.068745  
     194A      7.175246   195A      7.257318   196A      7.270248  
     197A      7.420907   198A      7.535990   199A      7.683307  
     200A      8.006864   201A     11.603137   202A     12.742273  
     203A     13.696463   204A     15.071383  

    Final Occupation by Irrep:
              A 
    DOCC [    16 ]

  Energy converged.

  @DF-RHF Final Energy:  -191.99762008398702

   => Energetics <=

    Nuclear Repulsion Energy =            119.3939413495322412
    One-Electron Energy =                -497.1964974421932766
    Two-Electron Energy =                 185.8049360086740762
    DFT Exchange-Correlation Energy =       0.0000000000000000
    Empirical Dispersion Energy =           0.0000000000000000
    PCM Polarization Energy =               0.0000000000000000
    EFP Energy =                            0.0000000000000000
    Total Energy =                       -191.9976200839869307


  Saving occupied orbitals to File 180.

*** tstop() called on cx1-27-2-4 at Sat Sep 10 15:32:58 2016
Module time:
	user time   =       6.11 seconds =       0.10 minutes
	system time =       0.18 seconds =       0.00 minutes
	total time  =          2 seconds =       0.03 minutes
Total time:
	user time   =      40.08 seconds =       0.67 minutes
	system time =       1.32 seconds =       0.02 minutes
	total time  =         12 seconds =       0.20 minutes


Properties will be evaluated at   0.000000,   0.000000,   0.000000 Bohr

Properties computed using the SCF density matrix

  Nuclear Dipole Moment: (a.u.)
     X:    -1.4972      Y:     0.9314      Z:     0.2710

  Electronic Dipole Moment: (a.u.)
     X:     1.2334      Y:    -0.7123      Z:     0.3058

  Dipole Moment: (a.u.)
     X:    -0.2637      Y:     0.2191      Z:     0.5768     Total:     0.6710

  Dipole Moment: (Debye)
     X:    -0.6703      Y:     0.5569      Z:     1.4660     Total:     1.7055


*** tstart() called on cx1-27-2-4
*** at Sat Sep 10 15:32:58 2016


         ------------------------------------------------------------
                                   SCF GRAD                          
                          Rob Parrish, Justin Turney,                
                       Andy Simmonett, and Alex Sokolov              
         ------------------------------------------------------------

  ==> Geometry <==

    Molecular point group: c1
    Full point group: C1

    Geometry (in Angstrom), charge = 0, multiplicity = 1:

       Center              X                  Y                   Z               Mass       
    ------------   -----------------  -----------------  -----------------  -----------------
           H          1.031444306430    -1.142669608359     1.244694815736     1.007825032070
           O          1.200734587495    -0.664514978339     0.455468814509    15.994914619560
           C          0.564284680690     0.579197427369     0.495955527425    12.000000000000
           C         -0.743314750898     0.615824233988    -0.242276997938    12.000000000000
           H          1.242895487739     1.307364838117     0.064455404809     1.007825032070
           H          0.399354954807     0.897592893483     1.522841842492     1.007825032070
           C         -1.286796255282    -0.393010731588    -0.884857325449    12.000000000000
           H         -1.244159350685     1.570000348741    -0.221889390945     1.007825032070
           H         -0.805836079683    -1.350490580756    -0.931482502072     1.007825032070
           H         -2.226885636120    -0.284869701555    -1.391902989558     1.007825032070

  Nuclear repulsion =  119.393941349532255

  ==> Basis Set <==

  Basis Set: CC-PVTZ
    Number of shells: 76
    Number of basis function: 204
    Number of Cartesian functions: 230
    Spherical Harmonics?: true
    Max angular momentum: 3

  ==> DFJKGrad: Density-Fitted SCF Gradients <==

    Gradient:                    1
    J tasked:                  Yes
    K tasked:                  Yes
    wK tasked:                  No
    OpenMP threads:              4
    Integrals threads:           4
    Memory (MB):              1430
    Schwarz Cutoff:          0E+00
    Fitting Condition:       1E-12

   => Auxiliary Basis Set <=

  Basis Set: 
    Number of shells: 160
    Number of basis function: 496
    Number of Cartesian functions: 594
    Spherical Harmonics?: true
    Max angular momentum: 4


  -Total Gradient:
     Atom            X                  Y                   Z
    ------   -----------------  -----------------  -----------------
       1        0.001426062183     0.000818223966     0.000522125912
       2       -0.001515921001    -0.000959153870    -0.000594126484
       3       -0.000518869907    -0.000263477293    -0.000965913315
       4       -0.000101950776    -0.000047391841    -0.000349080095
       5        0.000593842506     0.000209285627     0.001330743209
       6        0.000158504890     0.000187089646    -0.000018690696
       7        0.000073044431     0.000021542690     0.000115194313
       8       -0.000052426211    -0.000023301500    -0.000000189701
       9       -0.000023111702     0.000054112598     0.000019159700
      10       -0.000039174411     0.000003069976    -0.000059222843


*** tstop() called on cx1-27-2-4 at Sat Sep 10 15:33:00 2016
Module time:
	user time   =       8.30 seconds =       0.14 minutes
	system time =       0.25 seconds =       0.00 minutes
	total time  =          2 seconds =       0.03 minutes
Total time:
	user time   =      48.45 seconds =       0.81 minutes
	system time =       1.58 seconds =       0.03 minutes
	total time  =         14 seconds =       0.23 minutes

			-----------------------------------------
			 OPTKING 2.0: for geometry optimizations 
			  - R.A. King,  Bethel University        
			-----------------------------------------

	Previous internal coordinate definitions found.
	---Fragment 1 Geometry and Gradient---
	 H           1.9491472605       -2.1593326202        2.3521323208
	 O           2.2690595286       -1.2557513203        0.8607113215
	 C           1.0663435075        1.0945245146        0.9372201209
	 C          -1.4046613097        1.1637391482       -0.4578371744
	 H           2.3487320836        2.4705614998        0.1218030629
	 H           0.7546714944        1.6962047475        2.8777540260
	 C          -2.4316925113       -0.7426826500       -1.6721380118
	 H          -2.3511204385        2.9668706877       -0.4193101807
	 H          -1.5228094986       -2.5520573427       -1.7602468265
	 H          -4.2082039815       -0.5383257195       -2.6303154538
	             0.0014260622        0.0008182240        0.0005221259
	            -0.0015159210       -0.0009591539       -0.0005941265
	            -0.0005188699       -0.0002634773       -0.0009659133
	            -0.0001019508       -0.0000473918       -0.0003490801
	             0.0005938425        0.0002092856        0.0013307432
	             0.0001585049        0.0001870896       -0.0000186907
	             0.0000730444        0.0000215427        0.0001151943
	            -0.0000524262       -0.0000233015       -0.0000001897
	            -0.0000231117        0.0000541126        0.0000191597
	            -0.0000391744        0.0000030700       -0.0000592228

	---Fragment 1 Intrafragment Coordinates---
	 - Coordinate -           - BOHR/RAD -       - ANG/DEG -
	 R(1,2)           =         1.772890	       0.938173
	 R(2,3)           =         2.641245	       1.397687
	 R(3,4)           =         2.838457	       1.502047
	 R(3,5)           =         2.050098	       1.084865
	 R(3,6)           =         2.055439	       1.087692
	 R(4,7)           =         2.482693	       1.313784
	 R(4,8)           =         2.036800	       1.077828
	 R(7,9)           =         2.026738	       1.072504
	 R(7,10)          =         2.028758	       1.073572
	 B(1,2,3)         =         1.925148	     110.302882
	 B(2,3,4)         =         1.986542	     113.820486
	 B(2,3,5)         =         1.876435	     107.511818
	 B(2,3,6)         =         1.935715	     110.908289
	 B(3,4,7)         =         2.191721	     125.576356
	 B(3,4,8)         =         2.000735	     114.633663
	 B(4,3,5)         =         1.909957	     109.432453
	 B(4,3,6)         =         1.901668	     108.957558
	 B(4,7,9)         =         2.119149	     121.418289
	 B(4,7,10)        =         2.112850	     121.057387
	 B(5,3,6)         =         1.848223	     105.895350
	 B(7,4,8)         =         2.090722	     119.789524
	 B(9,7,10)        =         2.051139	     117.521608
	 D(1,2,3,4)       =        -1.721320	     -98.624370
	*D(1,2,3,5)       =         2.443461	     139.999995
	 D(1,2,3,6)       =         0.430414	      24.660905
	 D(2,3,4,7)       =        -0.001376	      -0.078860
	 D(2,3,4,8)       =        -3.138638	    -179.830731
	 D(3,4,7,9)       =        -0.007894	      -0.452294
	 D(3,4,7,10)      =        -3.138762	    -179.837822
	 D(5,3,4,7)       =         2.098271	     120.222050
	 D(5,3,4,8)       =        -1.038991	     -59.529820
	 D(6,3,4,7)       =        -2.171546	    -124.420408
	 D(6,3,4,8)       =         0.974378	      55.827721
	 D(8,4,7,9)       =         3.129163	     179.287815
	 D(8,4,7,10)      =        -0.001705	      -0.097712

	Current energy   :      -191.9976200840

	Energy change for the previous step:
		Projected    :         0.0001058057
		Actual       :        -0.0000409836

	Performing BFGS update.
	Previous computed or guess Hessian on step 1.
	Steps to be used in Hessian update: 2 1
	Taking RFO optimization step.
	Going to follow RFO solution 1.
	Using RFO vector 1.
	Norm of target step-size    0.00638
	Projected energy change by RFO approximation:        -0.0000067177

	Back-transformation to cartesian coordinates...
	Successfully converged to displaced geometry.

	Back-transformation to cartesian coordinates to adjust frozen coordinates...
	Successfully converged to displaced geometry.

	--- Internal Coordinate Step in ANG or DEG, aJ/ANG or AJ/DEG ---
	 ---------------------------------------------------------------------------
	   Coordinate                Previous        Force       Change         New 
	   ----------                --------       ------       ------       ------
	    1 R(1,2)          =      0.938173     0.001937     0.000183     0.938356
	    2 R(2,3)          =      1.397687    -0.000713    -0.000114     1.397573
	    3 R(3,4)          =      1.502047    -0.002142    -0.000369     1.501678
	    4 R(3,5)          =      1.084865     0.000143     0.000006     1.084871
	    5 R(3,6)          =      1.087692    -0.000108    -0.000003     1.087688
	    6 R(4,7)          =      1.313784     0.000837     0.000083     1.313867
	    7 R(4,8)          =      1.077828    -0.000031    -0.000003     1.077825
	    8 R(7,9)          =      1.072504     0.000490     0.000066     1.072570
	    9 R(7,10)         =      1.073572    -0.000516    -0.000085     1.073487
	   10 B(1,2,3)        =    110.302882     0.000002    -0.000495   110.302388
	   11 B(2,3,4)        =    113.820486     0.000010     0.029797   113.850283
	   12 B(2,3,5)        =    107.511818     0.000005     0.076841   107.588659
	   13 B(2,3,6)        =    110.908289    -0.000010    -0.106037   110.802252
	   14 B(3,4,7)        =    125.576356     0.000003     0.011740   125.588096
	   15 B(3,4,8)        =    114.633663    -0.000005    -0.021069   114.612593
	   16 B(4,3,5)        =    109.432453    -0.000000     0.046352   109.478804
	   17 B(4,3,6)        =    108.957558    -0.000014    -0.104973   108.852585
	   18 B(4,7,9)        =    121.418289     0.000002     0.006401   121.424689
	   19 B(4,7,10)       =    121.057387    -0.000002    -0.008206   121.049181
	   20 B(5,3,6)        =    105.895350     0.000009     0.066067   105.961416
	   21 B(7,4,8)        =    119.789524     0.000002     0.009170   119.798694
	   22 B(9,7,10)       =    117.521608     0.000000     0.001851   117.523459
	   23 D(1,2,3,4)      =    -98.624370     0.000002     0.132480   -98.491890
	   24 *D(1,2,3,5)     =    139.999995    -0.000000    -0.000000   139.999995
	   25 D(1,2,3,6)      =     24.660905    -0.000002    -0.066566    24.594339
	   26 D(2,3,4,7)      =     -0.078860    -0.000002    -0.182479    -0.261339
	   27 D(2,3,4,8)      =   -179.830731    -0.000002    -0.142736  -179.973466
	   28 D(3,4,7,9)      =     -0.452294    -0.000000    -0.033642    -0.485937
	   29 D(3,4,7,10)     =   -179.837822    -0.000000    -0.038820  -179.876642
	   30 D(5,3,4,7)      =    120.222050     0.000001    -0.030764   120.191286
	   31 D(5,3,4,8)      =    -59.529820     0.000001     0.008979   -59.520842
	   32 D(6,3,4,7)      =   -124.420408     0.000001     0.015303  -124.405105
	   33 D(6,3,4,8)      =     55.827721     0.000001     0.055046    55.882767
	   34 D(8,4,7,9)      =    179.287815    -0.000000    -0.075348   179.212468
	   35 D(8,4,7,10)     =     -0.097712    -0.000001    -0.080525    -0.178237
	 ---------------------------------------------------------------------------
	Successfully symmetrized geometry.

  ==> Convergence Check <==

  Measures of convergence in internal coordinates in au.
  Criteria marked as inactive (o), active & met (*), and active & unmet ( ).
  ---------------------------------------------------------------------------------------------
   Step     Total Energy     Delta E     MAX Force     RMS Force      MAX Disp      RMS Disp   
  ---------------------------------------------------------------------------------------------
    Convergence Criteria    1.00e-06 *    3.00e-04 *             o    1.20e-03 *             o
  ---------------------------------------------------------------------------------------------
      3    -191.99762008   -4.10e-05      2.60e-04 *    9.67e-05 o    3.18e-03      1.08e-03 o  ~
  ---------------------------------------------------------------------------------------------

	Writing optimization data to binary file.
	Structure for next step:
	Cartesian Geometry (in Angstrom)
	    H     1.0318585153  -1.1418101889   1.2447434301
	    O     1.2012376806  -0.6648993160   0.4545665823
	    C     0.5658185058   0.5792643210   0.4934164647
	    C    -0.7433341594   0.6156669268  -0.2413156314
	    H     1.2438405875   1.3073036749   0.0607608005
	    H     0.4013620514   0.8971163157   1.5205437212
	    C    -1.2882573874  -0.3930136050  -0.8830864587
	    H    -1.2439036237   1.5699548619  -0.2195838346
	    H    -0.8069914496  -1.3502998299  -0.9319974089
	    H    -2.2299087759  -0.2848590194  -1.3870404662
			--------------------------
			 OPTKING Finished Execution 
			--------------------------

    Structure for next step:
    Molecular point group: c1
    Full point group: C1

    Geometry (in Angstrom), charge = 0, multiplicity = 1:

    H            1.031718519587    -1.141693281384     1.244939813734
    O            1.201097684838    -0.664782408470     0.454762965901
    C            0.565678510103     0.579381228521     0.493612848294
    C           -0.743474155150     0.615783834314    -0.241119247834
    H            1.243700591754     1.307420582352     0.060957184064
    H            0.401222055683     0.897233223162     1.520740104755
    C           -1.288397383157    -0.392896697540    -0.882890075061
    H           -1.244043619468     1.570071769419    -0.219387450993
    H           -0.807131445336    -1.350182922447    -0.931801025287
    H           -2.230048771664    -0.284742111892    -1.386844082589

gradient() will perform analytic gradient computation.

*** tstart() called on cx1-27-2-4
*** at Sat Sep 10 15:33:00 2016


         ---------------------------------------------------------
                                   SCF
            by Justin Turney, Rob Parrish, and Andy Simmonett
                              RHF Reference
                        4 Threads,   2000 MiB Core
         ---------------------------------------------------------

  ==> Geometry <==

    Molecular point group: c1
    Full point group: C1

    Geometry (in Angstrom), charge = 0, multiplicity = 1:

       Center              X                  Y                   Z               Mass       
    ------------   -----------------  -----------------  -----------------  -----------------
           H          1.031718519587    -1.141693281384     1.244939813734     1.007825032070
           O          1.201097684838    -0.664782408470     0.454762965901    15.994914619560
           C          0.565678510103     0.579381228521     0.493612848294    12.000000000000
           C         -0.743474155150     0.615783834314    -0.241119247834    12.000000000000
           H          1.243700591754     1.307420582352     0.060957184064     1.007825032070
           H          0.401222055683     0.897233223162     1.520740104755     1.007825032070
           C         -1.288397383157    -0.392896697540    -0.882890075061    12.000000000000
           H         -1.244043619468     1.570071769419    -0.219387450993     1.007825032070
           H         -0.807131445336    -1.350182922447    -0.931801025287     1.007825032070
           H         -2.230048771664    -0.284742111892    -1.386844082589     1.007825032070

  Running in c1 symmetry.

  Rotational constants: A =      0.58327  B =      0.19692  C =      0.15317 [cm^-1]
  Rotational constants: A =  17485.98527  B =   5903.53392  C =   4592.01088 [MHz]
  Nuclear repulsion =  119.397462356084247

  Charge       = 0
  Multiplicity = 1
  Electrons    = 32
  Nalpha       = 16
  Nbeta        = 16

  ==> Algorithm <==

  SCF Algorithm Type is DF.
  DIIS enabled.
  MOM disabled.
  Fractional occupation disabled.
  Guess Type is READ.
  Energy threshold   = 1.00e-08
  Density threshold  = 1.00e-08
  Integral threshold = 0.00e+00

  ==> Primary Basis <==

  Basis Set: CC-PVTZ
    Number of shells: 76
    Number of basis function: 204
    Number of Cartesian functions: 230
    Spherical Harmonics?: true
    Max angular momentum: 3

  ==> Pre-Iterations <==

   -------------------------------------------------------
    Irrep   Nso     Nmo     Nalpha   Nbeta   Ndocc  Nsocc
   -------------------------------------------------------
     A        204     204       0       0       0       0
   -------------------------------------------------------
    Total     204     204      16      16      16       0
   -------------------------------------------------------

  ==> Integral Setup <==

[...]
     122A      3.570452   123A      3.600880   124A      3.623225  
     125A      3.660080   126A      3.726407   127A      3.740142  
     128A      3.762975   129A      3.774472   130A      3.790974  
     131A      3.851060   132A      3.868770   133A      3.938110  
     134A      3.945734   135A      3.963769   136A      4.029157  
     137A      4.035287   138A      4.045501   139A      4.063550  
     140A      4.085426   141A      4.164008   142A      4.191286  
     143A      4.211851   144A      4.218074   145A      4.251155  
     146A      4.307584   147A      4.312121   148A      4.347063  
     149A      4.383831   150A      4.411983   151A      4.431203  
     152A      4.447122   153A      4.459019   154A      4.497346  
     155A      4.505119   156A      4.562178   157A      4.594012  
     158A      4.656083   159A      4.705112   160A      4.725246  
     161A      4.772398   162A      4.862280   163A      4.882693  
     164A      4.900621   165A      5.030096   166A      5.055631  
     167A      5.096506   168A      5.175026   169A      5.195897  
     170A      5.246648   171A      5.276658   172A      5.328586  
     173A      5.366421   174A      5.400995   175A      5.422051  
     176A      5.432411   177A      5.464713   178A      5.559010  
     179A      5.586159   180A      5.629628   181A      5.655028  
     182A      5.822500   183A      5.844767   184A      5.983833  
     185A      6.083176   186A      6.204895   187A      6.296060  
     188A      6.333409   189A      6.356404   190A      6.511178  
     191A      6.676740   192A      6.790728   193A      7.068645  
     194A      7.174652   195A      7.257528   196A      7.269453  
     197A      7.420980   198A      7.535982   199A      7.683880  
     200A      8.006356   201A     11.602854   202A     12.740728  
     203A     13.700521   204A     15.070974  

    Final Occupation by Irrep:
              A 
    DOCC [    16 ]

  Energy converged.

  @DF-RHF Final Energy:  -191.99762108114408

   => Energetics <=

    Nuclear Repulsion Energy =            119.3974623560842474
    One-Electron Energy =                -497.2033333579216787
    Two-Electron Energy =                 185.8082499206932710
    DFT Exchange-Correlation Energy =       0.0000000000000000
    Empirical Dispersion Energy =           0.0000000000000000
    PCM Polarization Energy =               0.0000000000000000
    EFP Energy =                            0.0000000000000000
    Total Energy =                       -191.9976210811441604


  Saving occupied orbitals to File 180.

*** tstop() called on cx1-27-2-4 at Sat Sep 10 15:33:02 2016
Module time:
	user time   =       6.63 seconds =       0.11 minutes
	system time =       0.21 seconds =       0.00 minutes
	total time  =          2 seconds =       0.03 minutes
Total time:
	user time   =      55.70 seconds =       0.93 minutes
	system time =       1.80 seconds =       0.03 minutes
	total time  =         16 seconds =       0.27 minutes


Properties will be evaluated at   0.000000,   0.000000,   0.000000 Bohr

Properties computed using the SCF density matrix

  Nuclear Dipole Moment: (a.u.)
     X:    -1.4985      Y:     0.9325      Z:     0.2727

  Electronic Dipole Moment: (a.u.)
     X:     1.2352      Y:    -0.7123      Z:     0.3036

  Dipole Moment: (a.u.)
     X:    -0.2633      Y:     0.2202      Z:     0.5764     Total:     0.6708

  Dipole Moment: (Debye)
     X:    -0.6693      Y:     0.5597      Z:     1.4650     Total:     1.7051


*** tstart() called on cx1-27-2-4
*** at Sat Sep 10 15:33:02 2016


         ------------------------------------------------------------
                                   SCF GRAD                          
                          Rob Parrish, Justin Turney,                
                       Andy Simmonett, and Alex Sokolov              
         ------------------------------------------------------------

  ==> Geometry <==

    Molecular point group: c1
    Full point group: C1

    Geometry (in Angstrom), charge = 0, multiplicity = 1:

       Center              X                  Y                   Z               Mass       
    ------------   -----------------  -----------------  -----------------  -----------------
           H          1.031718519587    -1.141693281384     1.244939813734     1.007825032070
           O          1.201097684838    -0.664782408470     0.454762965901    15.994914619560
           C          0.565678510103     0.579381228521     0.493612848294    12.000000000000
           C         -0.743474155150     0.615783834314    -0.241119247834    12.000000000000
           H          1.243700591754     1.307420582352     0.060957184064     1.007825032070
           H          0.401222055683     0.897233223162     1.520740104755     1.007825032070
           C         -1.288397383157    -0.392896697540    -0.882890075061    12.000000000000
           H         -1.244043619468     1.570071769419    -0.219387450993     1.007825032070
           H         -0.807131445336    -1.350182922447    -0.931801025287     1.007825032070
           H         -2.230048771664    -0.284742111892    -1.386844082589     1.007825032070

  Nuclear repulsion =  119.397462356084247

  ==> Basis Set <==

  Basis Set: CC-PVTZ
    Number of shells: 76
    Number of basis function: 204
    Number of Cartesian functions: 230
    Spherical Harmonics?: true
    Max angular momentum: 3

  ==> DFJKGrad: Density-Fitted SCF Gradients <==

    Gradient:                    1
    J tasked:                  Yes
    K tasked:                  Yes
    wK tasked:                  No
    OpenMP threads:              4
    Integrals threads:           4
    Memory (MB):              1430
    Schwarz Cutoff:          0E+00
    Fitting Condition:       1E-12

   => Auxiliary Basis Set <=

  Basis Set: 
    Number of shells: 160
    Number of basis function: 496
    Number of Cartesian functions: 594
    Spherical Harmonics?: true
    Max angular momentum: 4


  -Total Gradient:
     Atom            X                  Y                   Z
    ------   -----------------  -----------------  -----------------
       1        0.001392980081     0.000676048735     0.000717105233
       2       -0.001627985007    -0.000787162590    -0.000484187153
       3       -0.000340038411    -0.000117010421    -0.001548591040
       4       -0.000031023850     0.000015803187     0.000036552218
       5        0.000562571287     0.000303419576     0.001308388242
       6        0.000029280729    -0.000081884570    -0.000002356599
       7       -0.000002712843    -0.000031375619     0.000031846745
       8        0.000006625391     0.000001638305    -0.000026792269
       9        0.000007443436     0.000018897105    -0.000030011066
      10        0.000002859189     0.000001626291    -0.000001954309


*** tstop() called on cx1-27-2-4 at Sat Sep 10 15:33:05 2016
Module time:
	user time   =       8.10 seconds =       0.14 minutes
	system time =       0.26 seconds =       0.00 minutes
	total time  =          3 seconds =       0.05 minutes
Total time:
	user time   =      63.84 seconds =       1.06 minutes
	system time =       2.06 seconds =       0.03 minutes
	total time  =         19 seconds =       0.32 minutes

			-----------------------------------------
			 OPTKING 2.0: for geometry optimizations 
			  - R.A. King,  Bethel University        
			-----------------------------------------

	Previous internal coordinate definitions found.
	---Fragment 1 Geometry and Gradient---
	 H           1.9496654482       -2.1574876296        2.3525952999
	 O           2.2697456832       -1.2562566900        0.8593774609
	 C           1.0689774634        1.0948718484        0.9327930989
	 C          -1.4049625401        1.1636628039       -0.4556493438
	 H           2.3502535097        2.4706668411        0.1151923837
	 H           0.7581998037        1.6955250691        2.8737823173
	 C          -2.4347182045       -0.7424671569       -1.6684204473
	 H          -2.3509017382        2.9670056532       -0.4145821994
	 H          -1.5252573849       -2.5514759527       -1.7608487481
	 H          -4.2141814414       -0.5380846100       -2.6207555051
	             0.0013929801        0.0006760487        0.0007171052
	            -0.0016279850       -0.0007871626       -0.0004841872
	            -0.0003400384       -0.0001170104       -0.0015485910
	            -0.0000310239        0.0000158032        0.0000365522
	             0.0005625713        0.0003034196        0.0013083882
	             0.0000292807       -0.0000818846       -0.0000023566
	            -0.0000027128       -0.0000313756        0.0000318467
	             0.0000066254        0.0000016383       -0.0000267923
	             0.0000074434        0.0000188971       -0.0000300111
	             0.0000028592        0.0000016263       -0.0000019543

	---Fragment 1 Intrafragment Coordinates---
	 - Coordinate -           - BOHR/RAD -       - ANG/DEG -
	 R(1,2)           =         1.773237	       0.938356
	 R(2,3)           =         2.641030	       1.397573
	 R(3,4)           =         2.837760	       1.501678
	 R(3,5)           =         2.050110	       1.084871
	 R(3,6)           =         2.055433	       1.087688
	 R(4,7)           =         2.482850	       1.313867
	 R(4,8)           =         2.036795	       1.077825
	 R(7,9)           =         2.026863	       1.072570
	 R(7,10)          =         2.028596	       1.073487
	 B(1,2,3)         =         1.925140	     110.302388
	 B(2,3,4)         =         1.987062	     113.850283
	 B(2,3,5)         =         1.877776	     107.588659
	 B(2,3,6)         =         1.933864	     110.802252
	 B(3,4,7)         =         2.191926	     125.588096
	 B(3,4,8)         =         2.000367	     114.612593
	 B(4,3,5)         =         1.910766	     109.478804
	 B(4,3,6)         =         1.899836	     108.852585
	 B(4,7,9)         =         2.119261	     121.424689
	 B(4,7,10)        =         2.112707	     121.049181
	 B(5,3,6)         =         1.849376	     105.961416
	 B(7,4,8)         =         2.090882	     119.798694
	 B(9,7,10)        =         2.051171	     117.523459
	 D(1,2,3,4)       =        -1.719008	     -98.491890
	*D(1,2,3,5)       =         2.443461	     139.999995
	 D(1,2,3,6)       =         0.429252	      24.594339
	 D(2,3,4,7)       =        -0.004561	      -0.261339
	 D(2,3,4,8)       =        -3.141130	    -179.973466
	 D(3,4,7,9)       =        -0.008481	      -0.485937
	 D(3,4,7,10)      =        -3.139440	    -179.876642
	 D(5,3,4,7)       =         2.097734	     120.191286
	 D(5,3,4,8)       =        -1.038835	     -59.520842
	 D(6,3,4,7)       =        -2.171279	    -124.405105
	 D(6,3,4,8)       =         0.975338	      55.882767
	 D(8,4,7,9)       =         3.127848	     179.212468
	 D(8,4,7,10)      =        -0.003111	      -0.178237

	Current energy   :      -191.9976210811

	Energy change for the previous step:
		Projected    :        -0.0000067177
		Actual       :        -0.0000009972
	Energy ratio indicates iffy step: Trust radius decreased to 2.500e-01.


	Performing BFGS update.
	Previous computed or guess Hessian on step 1.
	Steps to be used in Hessian update: 3 2
	Taking RFO optimization step.
	Going to follow RFO solution 1.
	Using RFO vector 1.
	Norm of target step-size    0.00205
	Projected energy change by RFO approximation:        -0.0000004326

	Back-transformation to cartesian coordinates...
	Successfully converged to displaced geometry.

	Back-transformation to cartesian coordinates to adjust frozen coordinates...
	Successfully converged to displaced geometry.

	--- Internal Coordinate Step in ANG or DEG, aJ/ANG or AJ/DEG ---
	 ---------------------------------------------------------------------------
	   Coordinate                Previous        Force       Change         New 
	   ----------                --------       ------       ------       ------
	    1 R(1,2)          =      0.938356    -0.000073     0.000009     0.938365
	    2 R(2,3)          =      1.397573     0.000119     0.000004     1.397577
	    3 R(3,4)          =      1.501678    -0.000083    -0.000039     1.501639
	    4 R(3,5)          =      1.084871    -0.000275    -0.000040     1.084832
	    5 R(3,6)          =      1.087688     0.000252     0.000037     1.087725
	    6 R(4,7)          =      1.313867    -0.000043     0.000002     1.313870
	    7 R(4,8)          =      1.077825     0.000018     0.000002     1.077827
	    8 R(7,9)          =      1.072570     0.000100     0.000021     1.072590
	    9 R(7,10)         =      1.073487     0.000012    -0.000004     1.073483
	   10 B(1,2,3)        =    110.302388    -0.000001    -0.004532   110.297856
	   11 B(2,3,4)        =    113.850283    -0.000001     0.001790   113.852073
	   12 B(2,3,5)        =    107.588659    -0.000004    -0.029029   107.559631
	   13 B(2,3,6)        =    110.802252     0.000007     0.039583   110.841836
	   14 B(3,4,7)        =    125.588096     0.000001     0.004882   125.592978
	   15 B(3,4,8)        =    114.612593    -0.000001    -0.006018   114.606575
	   16 B(4,3,5)        =    109.478804     0.000002    -0.005020   109.473784
	   17 B(4,3,6)        =    108.852585    -0.000002    -0.006233   108.846352
	   18 B(4,7,9)        =    121.424689    -0.000000    -0.000596   121.424094
	   19 B(4,7,10)       =    121.049181     0.000000     0.000848   121.050029
	   20 B(5,3,6)        =    105.961416    -0.000001    -0.001955   105.959461
	   21 B(7,4,8)        =    119.798694    -0.000000     0.001259   119.799953
	   22 B(9,7,10)       =    117.523459     0.000000     0.000196   117.523655
	   23 D(1,2,3,4)      =    -98.491890    -0.000000    -0.025900   -98.517790
	   24 *D(1,2,3,5)     =    139.999995     0.000000    -0.000000   139.999995
	   25 D(1,2,3,6)      =     24.594339     0.000000    -0.002105    24.592234
	   26 D(2,3,4,7)      =     -0.261339     0.000001     0.058317    -0.203022
	   27 D(2,3,4,8)      =   -179.973466     0.000001     0.028153  -179.945313
	   28 D(3,4,7,9)      =     -0.485937     0.000000     0.030016    -0.455920
	   29 D(3,4,7,10)     =   -179.876642    -0.000000    -0.023449  -179.900090
	   30 D(5,3,4,7)      =    120.191286    -0.000000     0.018677   120.209963
	   31 D(5,3,4,8)      =    -59.520842    -0.000000    -0.011487   -59.532329
	   32 D(6,3,4,7)      =   -124.405105    -0.000000     0.010154  -124.394952
	   33 D(6,3,4,8)      =     55.882767    -0.000001    -0.020011    55.862757
	   34 D(8,4,7,9)      =    179.212468     0.000001     0.061602   179.274069
	   35 D(8,4,7,10)     =     -0.178237     0.000000     0.008137    -0.170100
	 ---------------------------------------------------------------------------
	Successfully symmetrized geometry.

  ==> Convergence Check <==

  Measures of convergence in internal coordinates in au.
  Criteria marked as inactive (o), active & met (*), and active & unmet ( ).
  ---------------------------------------------------------------------------------------------
   Step     Total Energy     Delta E     MAX Force     RMS Force      MAX Disp      RMS Disp   
  ---------------------------------------------------------------------------------------------
    Convergence Criteria    1.00e-06 *    3.00e-04 *             o    1.20e-03 *             o
  ---------------------------------------------------------------------------------------------
      4    -191.99762108   -9.97e-07 *    8.78e-05 *    2.76e-05 o    1.08e-03 *    3.46e-04 o  ~
  ---------------------------------------------------------------------------------------------


  **** Optimization is complete! (in 4 steps) ****

  ==> Optimization Summary <==

  Measures of convergence in internal coordinates in au.
  --------------------------------------------------------------------------------------------------------------- ~
   Step         Total Energy             Delta E       MAX Force       RMS Force        MAX Disp        RMS Disp  ~
  --------------------------------------------------------------------------------------------------------------- ~
      1    -191.997327251198   -191.997327251198      0.00441961      0.00146783      0.11030304      0.03986749  ~
      2    -191.997579100429     -0.000251849231      0.00162136      0.00060057      0.02356945      0.00837221  ~
      3    -191.997620083987     -0.000040983558      0.00025995      0.00009674      0.00318486      0.00107772  ~
      4    -191.997621081144     -0.000000997157      0.00008780      0.00002761      0.00107516      0.00034640  ~
  --------------------------------------------------------------------------------------------------------------- ~

	Writing optimization data to binary file.
	Final energy is   -191.9976210811441
	Final (previous) structure:
	Cartesian Geometry (in Angstrom)
	    H     1.0317185196  -1.1416932814   1.2449398137
	    O     1.2010976848  -0.6647824085   0.4547629659
	    C     0.5656785101   0.5793812285   0.4936128483
	    C    -0.7434741551   0.6157838343  -0.2411192478
	    H     1.2437005918   1.3074205824   0.0609571841
	    H     0.4012220557   0.8972332232   1.5207401048
	    C    -1.2883973832  -0.3928966975  -0.8828900751
	    H    -1.2440436195   1.5700717694  -0.2193874510
	    H    -0.8071314453  -1.3501829224  -0.9318010253
	    H    -2.2300487717  -0.2847421119  -1.3868440826
	Saving final (previous) structure.
			--------------------------
			 OPTKING Finished Execution 
			--------------------------

    Final optimized geometry and variables:
    Molecular point group: c1
    Full point group: C1

    Geometry (in Angstrom), charge = 0, multiplicity = 1:

    H            1.031718519587    -1.141693281384     1.244939813734
    O            1.201097684838    -0.664782408470     0.454762965901
    C            0.565678510103     0.579381228521     0.493612848294
    C           -0.743474155150     0.615783834314    -0.241119247834
    H            1.243700591754     1.307420582352     0.060957184064
    H            0.401222055683     0.897233223162     1.520740104755
    C           -1.288397383157    -0.392896697540    -0.882890075061
    H           -1.244043619468     1.570071769419    -0.219387450993
    H           -0.807131445336    -1.350182922447    -0.931801025287
    H           -2.230048771664    -0.284742111892    -1.386844082589

	Cleaning optimization helper files.


Properties will be evaluated at   0.000000,   0.000000,   0.000000 Bohr

Properties computed using the  density matrix

  Nuclear Dipole Moment: (a.u.)
     X:    -1.4985      Y:     0.9325      Z:     0.2727

  Electronic Dipole Moment: (a.u.)
     X:     1.2352      Y:    -0.7123      Z:     0.3036

  Dipole Moment: (a.u.)
     X:    -0.2633      Y:     0.2202      Z:     0.5764     Total:     0.6708

  Dipole Moment: (Debye)
     X:    -0.6693      Y:     0.5597      Z:     1.4650     Total:     1.7051

  Quadrupole Moment: (Debye Ang)
    XX:   -27.3100     YY:   -22.8814     ZZ:   -23.4640
    XY:     0.5434     XZ:     1.9288     YZ:    -0.9306

  Traceless Quadrupole Moment: (Debye Ang)
    XX:    -2.7582     YY:     1.6704     ZZ:     1.0878
    XY:     0.5434     XZ:     1.9288     YZ:    -0.9306

  Mulliken Charges: (a.u.)
   Center  Symbol    Alpha    Beta     Spin     Total
       1     H     0.39056  0.39056  0.00000  0.21888
       2     O     4.19901  4.19901  0.00000 -0.39801
       3     C     2.95101  2.95101  0.00000  0.09798
       4     C     3.08110  3.08110  0.00000 -0.16219
       5     H     0.45724  0.45724  0.00000  0.08553
       6     H     0.47031  0.47031  0.00000  0.05937
       7     C     3.17663  3.17663  0.00000 -0.35327
       8     H     0.42384  0.42384  0.00000  0.15232
       9     H     0.42127  0.42127  0.00000  0.15745
      10     H     0.42903  0.42903  0.00000  0.14194

   Total alpha = 16.00000, Total beta = 16.00000, Total charge = -0.00000


*** Psi4 exiting successfully. Buy a developer a beer!
