    -----------------------------------------------------------------------
          Psi4: An Open-Source Ab Initio Electronic Structure Package
                              Psi4 1.0.54 Driver

                          Git: Rev {master} 8d4cec3 dirty

    J. M. Turney, A. C. Simmonett, R. M. Parrish, E. G. Hohenstein,
    F. A. Evangelista, J. T. Fermann, B. J. Mintz, L. A. Burns, J. J. Wilke,
    M. L. Abrams, N. J. Russ, M. L. Leininger, C. L. Janssen, E. T. Seidl,
    W. D. Allen, H. F. Schaefer, R. A. King, E. F. Valeev, C. D. Sherrill,
    and T. D. Crawford, WIREs Comput. Mol. Sci. 2, 556-565 (2012)
    (doi: 10.1002/wcms.93)

                         Additional Contributions by
    A. E. DePrince, U. Bozkaya, A. Yu. Sokolov, D. G. A. Smith, R. Di Remigio,
    R. M. Richard, J. F. Gonthier, H. R. McAlexander, M. Saitow, and
    B. P. Pritchard
    -----------------------------------------------------------------------


    Psi4 started on: Sat Sep 10 17:16:21 2016

    Process ID:  33587
    PSI4DATADIR: /export131/home/mjharvey/miniconda3/share/psi4
    Memory level set to 256.000 MB

  ==> Input File <==

--------------------------------------------------------------------------
set {
	reference rhf
	basis cc-pvtz
}


set_num_threads( 4 )
memory 2 gb

molecule MOL {
0 1

H	 -4.046984	 -2.360541	 0.627825
C	 -3.341132	 -1.556515	 0.668111
C	 -2.132620	 -1.735027	 0.193794
H	 -3.644890	 -0.621531	 1.096287
O	 -1.189946	 -0.765863	 0.237511
H	 -1.820259	 -2.665053	 -0.245079
C	 0.026572	 -0.995256	 -0.379403
C	 1.057223	 0.049888	 -0.004615
H	 -0.054361	 -1.010670	 -1.459674
H	 0.397526	 -1.952058	 -0.044198
F	 2.203233	 -0.234060	 -0.590375
F	 0.698147	 1.254887	 -0.392621
F	 1.266440	 0.094219	 1.288722

	symmetry c1
}
set optking {
	frozen_dihedral = ("
		3 5 7 9
	")
}

ee,wfn = optimize('scf', return_wfn=True)
oeprop( wfn, 'DIPOLE', 'QUADRUPOLE', 'MULLIKEN_CHARGES')
f=open( 'psi4out.xyz', 'w' )
f.write( "13  " )
f.write( str(ee) + "\n" )
f.write( MOL.save_string_xyz() )
f.close()
--------------------------------------------------------------------------

  Memory set to   2.000 GiB by Python script.
gradient() will perform analytic gradient computation.

*** tstart() called on cx1-27-4-2
*** at Sat Sep 10 17:16:21 2016


         ---------------------------------------------------------
                                   SCF
            by Justin Turney, Rob Parrish, and Andy Simmonett
                              RHF Reference
                        4 Threads,   2000 MiB Core
         ---------------------------------------------------------

  ==> Geometry <==

    Molecular point group: c1
    Full point group: C1

    Geometry (in Angstrom), charge = 0, multiplicity = 1:

       Center              X                  Y                   Z               Mass       
    ------------   -----------------  -----------------  -----------------  -----------------
           H         -4.032928856268    -1.959158262502     0.506290636422     1.007825032070
           C         -3.327076856268    -1.155132262502     0.546576636422    12.000000000000
           C         -2.118564856268    -1.333644262502     0.072259636422    12.000000000000
           H         -3.630834856268    -0.220148262502     0.974752636422     1.007825032070
           O         -1.175890856268    -0.364480262502     0.115976636422    15.994914619560
           H         -1.806203856268    -2.263670262502    -0.366613363578     1.007825032070
           C          0.040627143732    -0.593873262502    -0.500937363578    12.000000000000
           C          1.071278143732     0.451270737498    -0.126149363578    12.000000000000
           H         -0.040305856268    -0.609287262502    -1.581208363578     1.007825032070
           H          0.411581143732    -1.550675262502    -0.165732363578     1.007825032070
           F          2.217288143732     0.167322737498    -0.711909363578    18.998403224000
           F          0.712202143732     1.656269737498    -0.514155363578    18.998403224000
           F          1.280495143732     0.495601737498     1.167187636422    18.998403224000

  Running in c1 symmetry.

  Rotational constants: A =      0.17022  B =      0.03356  C =      0.03291 [cm^-1]
  Rotational constants: A =   5102.95180  B =   1006.24363  C =    986.53918 [MHz]
  Nuclear repulsion =  405.728248699591347

  Charge       = 0
  Multiplicity = 1
  Electrons    = 64
  Nalpha       = 32
  Nbeta        = 32

  ==> Algorithm <==

  SCF Algorithm Type is DF.
  DIIS enabled.
  MOM disabled.
  Fractional occupation disabled.
  Guess Type is SAD.
  Energy threshold   = 1.00e-08
  Density threshold  = 1.00e-08
  Integral threshold = 0.00e+00

  ==> Primary Basis <==

  Basis Set: CC-PVTZ
    Number of shells: 110
    Number of basis function: 310
    Number of Cartesian functions: 355
    Spherical Harmonics?: true
    Max angular momentum: 3

  ==> Pre-Iterations <==

   -------------------------------------------------------
    Irrep   Nso     Nmo     Nalpha   Nbeta   Ndocc  Nsocc
   -------------------------------------------------------
     A        310     310       0       0       0       0
   -------------------------------------------------------
    Total     310     310      32      32      32       0
   -------------------------------------------------------

  ==> Integral Setup <==

  ==> DFJK: Density-Fitted J/K Matrices <==

    J tasked:                  Yes
    K tasked:                  Yes
    wK tasked:                  No
    OpenMP threads:              4
    Integrals threads:           4
    Memory (MB):              1430
    Algorithm:                Core
    Integral Cache:           NONE
    Schwarz Cutoff:          1E-12
    Fitting Condition:       1E-12

   => Auxiliary Basis Set <=

  Basis Set: 
    Number of shells: 250
    Number of basis function: 782
    Number of Cartesian functions: 943
    Spherical Harmonics?: true
    Max angular momentum: 4

  Minimum eigenvalue in the overlap matrix is 3.9879189024E-04.
  Using Symmetric Orthogonalization.
  SCF Guess: Superposition of Atomic Densities via on-the-fly atomic UHF.

  ==> Iterations <==

                           Total Energy        Delta E     RMS |[F,P]|

   @DF-RHF iter   0:  -531.08614934198931   -5.31086e+02   1.66483e-02 
   @DF-RHF iter   1:  -527.48755777185124    3.59859e+00   2.30222e-03 
   @DF-RHF iter   2:  -527.68458764792172   -1.97030e-01   1.23776e-03 DIIS
   @DF-RHF iter   3:  -527.73357399397491   -4.89863e-02   2.81551e-04 DIIS
   @DF-RHF iter   4:  -527.73952805122804   -5.95406e-03   8.52542e-05 DIIS
   @DF-RHF iter   5:  -527.74016796503201   -6.39914e-04   2.53129e-05 DIIS
   @DF-RHF iter   6:  -527.74024303166198   -7.50666e-05   6.79290e-06 DIIS
   @DF-RHF iter   7:  -527.74024808447257   -5.05281e-06   2.44550e-06 DIIS
   @DF-RHF iter   8:  -527.74024868113224   -5.96660e-07   8.26100e-07 DIIS
   @DF-RHF iter   9:  -527.74024874768611   -6.65539e-08   2.48052e-07 DIIS
   @DF-RHF iter  10:  -527.74024875481200   -7.12589e-09   7.27458e-08 DIIS
   @DF-RHF iter  11:  -527.74024875523173   -4.19732e-10   2.47063e-08 DIIS
   @DF-RHF iter  12:  -527.74024875528266   -5.09317e-11   7.13417e-09 DIIS

  ==> Post-Iterations <==

    Orbital Energies (a.u.)
    -----------------------

    Doubly Occupied:                                                      

       1A    -26.343062     2A    -26.337951     3A    -26.336162  
       4A    -20.601374     5A    -11.501930     6A    -11.320179  
       7A    -11.302322     8A    -11.218085     9A     -1.749442  
      10A     -1.646830    11A     -1.642878    12A     -1.443245  
      13A     -1.090992    14A     -1.020909    15A     -0.930628  
      16A     -0.844425    17A     -0.838888    18A     -0.812444  
      19A     -0.806721    20A     -0.726832    21A     -0.721922  
      22A     -0.705075    23A     -0.687839    24A     -0.666673  
      25A     -0.659381    26A     -0.650787    27A     -0.649354  
      28A     -0.580495    29A     -0.562003    30A     -0.532112  
      31A     -0.516633    32A     -0.359183  

    Virtual:                                                              

      33A      0.139611    34A      0.151143    35A      0.169763  
      36A      0.188284    37A      0.214741    38A      0.222766  
      39A      0.250244    40A      0.311083    41A      0.339575  
      42A      0.346354    43A      0.353794    44A      0.386758  
      45A      0.413033    46A      0.429758    47A      0.443506  
      48A      0.470695    49A      0.495674    50A      0.517854  
      51A      0.519842    52A      0.538147    53A      0.559777  
      54A      0.569906    55A      0.580474    56A      0.589944  
      57A      0.606691    58A      0.614863    59A      0.630372  
      60A      0.647299    61A      0.656617    62A      0.665888  
      63A      0.696443    64A      0.704503    65A      0.744483  
      66A      0.755212    67A      0.793349    68A      0.815253  
      69A      0.822210    70A      0.861744    71A      0.885245  
      72A      0.903602    73A      0.944738    74A      0.957299  
      75A      0.976192    76A      0.993363    77A      1.025899  
      78A      1.040899    79A      1.063863    80A      1.087971  
      81A      1.104333    82A      1.115663    83A      1.129809  
      84A      1.130197    85A      1.146619    86A      1.167402  
      87A      1.181067    88A      1.194324    89A      1.200111  
      90A      1.212777    91A      1.256056    92A      1.283732  
      93A      1.294806    94A      1.319826    95A      1.337365  
      96A      1.359857    97A      1.376347    98A      1.417639  
      99A      1.425471   100A      1.465957   101A      1.476866  
     102A      1.496467   103A      1.531376   104A      1.540494  
     105A      1.542903   106A      1.580117   107A      1.591803  
     108A      1.600349   109A      1.689294   110A      1.714117  
     111A      1.752169   112A      1.853260   113A      1.883951  
     114A      1.980306   115A      2.054590   116A      2.079633  
     117A      2.132017   118A      2.146288   119A      2.177515  
     120A      2.188193   121A      2.237553   122A      2.246347  
     123A      2.254070   124A      2.279475   125A      2.342485  
     126A      2.359200   127A      2.379449   128A      2.397322  
     129A      2.426402   130A      2.464958   131A      2.466925  
     132A      2.532170   133A      2.544359   134A      2.580790  
     135A      2.628283   136A      2.647724   137A      2.675059  
     138A      2.691529   139A      2.727592   140A      2.764366  
     141A      2.770707   142A      2.778755   143A      2.833227  
     144A      2.850874   145A      2.859502   146A      2.885006  
     147A      2.905218   148A      2.930186   149A      3.002354  
     150A      3.030783   151A      3.075643   152A      3.094706  
     153A      3.130148   154A      3.143741   155A      3.162775  
     156A      3.177323   157A      3.201112   158A      3.210758  
     159A      3.231529   160A      3.238362   161A      3.267712  
     162A      3.289326   163A      3.298707   164A      3.325553  
     165A      3.335890   166A      3.355206   167A      3.370384  
     168A      3.377737   169A      3.403667   170A      3.451347  
     171A      3.466531   172A      3.482362   173A      3.500299  
     174A      3.508125   175A      3.545931   176A      3.553985  
     177A      3.591203   178A      3.609251   179A      3.619740  
     180A      3.637279   181A      3.667195   182A      3.695118  
     183A      3.699482   184A      3.726654   185A      3.774771  
     186A      3.785444   187A      3.802719   188A      3.831075  
     189A      3.851512   190A      3.874836   191A      3.902719  
     192A      3.909215   193A      3.937619   194A      3.947650  
     195A      3.955379   196A      3.997990   197A      4.032817  
     198A      4.079829   199A      4.120529   200A      4.131704  
     201A      4.135242   202A      4.176497   203A      4.205383  
     204A      4.218503   205A      4.256826   206A      4.278167  
     207A      4.313891   208A      4.357977   209A      4.378696  
     210A      4.399282   211A      4.411290   212A      4.467109  
     213A      4.487441   214A      4.511953   215A      4.565478  
     216A      4.597431   217A      4.606892   218A      4.638428  
     219A      4.690892   220A      4.769960   221A      4.837190  
     222A      4.854135   223A      4.933569   224A      4.960999  
     225A      5.037210   226A      5.084313   227A      5.114325  
     228A      5.141345   229A      5.265710   230A      5.296121  
     231A      5.302399   232A      5.333860   233A      5.347833  
     234A      5.373936   235A      5.380019   236A      5.394236  
     237A      5.443733   238A      5.451131   239A      5.465987  
     240A      5.503332   241A      5.526684   242A      5.554222  
     243A      5.574168   244A      5.603610   245A      5.702424  
     246A      5.744640   247A      5.919664   248A      5.931617  
     249A      6.049429   250A      6.087251   251A      6.211958  
     252A      6.229421   253A      6.337989   254A      6.426633  
     255A      6.494605   256A      6.540046   257A      6.573323  
     258A      6.587278   259A      6.763158   260A      7.016567  
     261A      7.217397   262A      7.273624   263A      7.310448  
     264A      7.313127   265A      7.351807   266A      7.357303  
     267A      7.360425   268A      7.363189   269A      7.363308  
     270A      7.368508   271A      7.377326   272A      7.381489  
     273A      7.492035   274A      7.509664   275A      7.526645  
     276A      7.529600   277A      7.606210   278A      7.631541  
     279A      7.633781   280A      7.839752   281A      7.885040  
     282A      7.927902   283A      7.960725   284A      7.969463  
     285A      8.099546   286A      8.172705   287A      8.181119  
     288A      8.902379   289A      8.906526   290A      8.930182  
     291A      9.030352   292A      9.033895   293A      9.096466  
     294A      9.231640   295A      9.322077   296A      9.403671  
     297A      9.406883   298A      9.528229   299A      9.676959  
     300A      9.681941   301A      9.736748   302A      9.751750  
     303A     11.207257   304A     11.521542   305A     12.062022  
     306A     12.442337   307A     12.660204   308A     12.955570  
     309A     14.015777   310A     15.332564  

    Final Occupation by Irrep:
              A 
    DOCC [    32 ]

  Energy converged.

  @DF-RHF Final Energy:  -527.74024875528266

   => Energetics <=

    Nuclear Repulsion Energy =            405.7282486995913473
    One-Electron Energy =               -1535.3234837206744032
    Two-Electron Energy =                 601.8549862658002212
    DFT Exchange-Correlation Energy =       0.0000000000000000
    Empirical Dispersion Energy =           0.0000000000000000
    PCM Polarization Energy =               0.0000000000000000
    EFP Energy =                            0.0000000000000000
    Total Energy =                       -527.7402487552827779


  Saving occupied orbitals to File 180.

*** tstop() called on cx1-27-4-2 at Sat Sep 10 17:16:28 2016
Module time:
	user time   =      22.81 seconds =       0.38 minutes
	system time =       0.79 seconds =       0.01 minutes
	total time  =          7 seconds =       0.12 minutes
Total time:
	user time   =      22.81 seconds =       0.38 minutes
	system time =       0.79 seconds =       0.01 minutes
	total time  =          7 seconds =       0.12 minutes


Properties will be evaluated at   0.000000,   0.000000,   0.000000 Bohr

Properties computed using the SCF density matrix

  Nuclear Dipole Moment: (a.u.)
     X:   -12.5069      Y:    -8.3796      Z:    -0.5369

  Electronic Dipole Moment: (a.u.)
     X:    12.1969      Y:     7.4214      Z:     0.0818

  Dipole Moment: (a.u.)
     X:    -0.3100      Y:    -0.9582      Z:    -0.4550     Total:     1.1051

  Dipole Moment: (Debye)
     X:    -0.7879      Y:    -2.4356      Z:    -1.1566     Total:     2.8090


*** tstart() called on cx1-27-4-2
*** at Sat Sep 10 17:16:28 2016


         ------------------------------------------------------------
                                   SCF GRAD                          
                          Rob Parrish, Justin Turney,                
                       Andy Simmonett, and Alex Sokolov              
         ------------------------------------------------------------

  ==> Geometry <==

    Molecular point group: c1
    Full point group: C1

    Geometry (in Angstrom), charge = 0, multiplicity = 1:

       Center              X                  Y                   Z               Mass       
    ------------   -----------------  -----------------  -----------------  -----------------
           H         -4.032928856268    -1.959158262502     0.506290636422     1.007825032070
           C         -3.327076856268    -1.155132262502     0.546576636422    12.000000000000
           C         -2.118564856268    -1.333644262502     0.072259636422    12.000000000000
           H         -3.630834856268    -0.220148262502     0.974752636422     1.007825032070
           O         -1.175890856268    -0.364480262502     0.115976636422    15.994914619560
           H         -1.806203856268    -2.263670262502    -0.366613363578     1.007825032070
           C          0.040627143732    -0.593873262502    -0.500937363578    12.000000000000
           C          1.071278143732     0.451270737498    -0.126149363578    12.000000000000
           H         -0.040305856268    -0.609287262502    -1.581208363578     1.007825032070
           H          0.411581143732    -1.550675262502    -0.165732363578     1.007825032070
           F          2.217288143732     0.167322737498    -0.711909363578    18.998403224000
           F          0.712202143732     1.656269737498    -0.514155363578    18.998403224000
           F          1.280495143732     0.495601737498     1.167187636422    18.998403224000

  Nuclear repulsion =  405.728248699591347

  ==> Basis Set <==

  Basis Set: CC-PVTZ
    Number of shells: 110
    Number of basis function: 310
    Number of Cartesian functions: 355
    Spherical Harmonics?: true
    Max angular momentum: 3

  ==> DFJKGrad: Density-Fitted SCF Gradients <==

    Gradient:                    1
    J tasked:                  Yes
    K tasked:                  Yes
    wK tasked:                  No
    OpenMP threads:              4
    Integrals threads:           4
    Memory (MB):              1430
    Schwarz Cutoff:          0E+00
    Fitting Condition:       1E-12

   => Auxiliary Basis Set <=

  Basis Set: 
    Number of shells: 250
    Number of basis function: 782
    Number of Cartesian functions: 943
    Spherical Harmonics?: true
    Max angular momentum: 4


  -Total Gradient:
     Atom            X                  Y                   Z
    ------   -----------------  -----------------  -----------------
       1        0.000013721922     0.000023888765     0.000123051508
       2        0.000697936891    -0.000261867216     0.000548768656
       3       -0.006008764520    -0.001956468180     0.001313777800
       4       -0.000251249430     0.000145939881    -0.000312478303
       5        0.001679044255    -0.013858234632    -0.002212539215
       6       -0.000339035213     0.000829289763     0.000123005304
       7        0.002179580290     0.015415126702     0.000166746274
       8        0.007979090030    -0.005219856528    -0.002019381260
       9        0.000562122355    -0.001914859109     0.000636147031
      10       -0.008111334921     0.002364256049     0.002472617666
      11        0.003029814986     0.001259768272    -0.000284074760
      12       -0.000915312399     0.002569403095    -0.000342033419
      13       -0.000515614245     0.000603613136    -0.000213607282


*** tstop() called on cx1-27-4-2 at Sat Sep 10 17:16:35 2016
Module time:
	user time   =      24.60 seconds =       0.41 minutes
	system time =       0.66 seconds =       0.01 minutes
	total time  =          7 seconds =       0.12 minutes
Total time:
	user time   =      47.53 seconds =       0.79 minutes
	system time =       1.46 seconds =       0.02 minutes
	total time  =         14 seconds =       0.23 minutes

			-----------------------------------------
			 OPTKING 2.0: for geometry optimizations 
			  - R.A. King,  Bethel University        
			-----------------------------------------

	Internal coordinates to be generated automatically.
	Detected frag 1 with atoms:  1 2 3 4 5 6 7 8 9 10 11 12 13
	---Fragment 1 Bond Connectivity---
	 1 : 2
	 2 : 1 3 4
	 3 : 2 5 6
	 4 : 2
	 5 : 3 7
	 6 : 3
	 7 : 5 8 9 10
	 8 : 7 11 12 13
	 9 : 7
	 10 : 7
	 11 : 8
	 12 : 8
	 13 : 8

	Assuming in current code that numbering for constraints corresponds to unified fragment.
	Frozen dihedral atom list: 
	     3     5     7     9
	---Fragment 1 Geometry and Gradient---
	 H          -7.6211310518       -3.7022725671        0.9567506465
	 C          -6.2872640814       -2.1828836234        1.0328801535
	 C          -4.0035073731       -2.5202224148        0.1365509233
	 H          -6.8612835121       -0.4160199248        1.8420155301
	 O          -2.2221116805       -0.6887678770        0.2191640807
	 H          -3.4132306285       -4.2777168513       -0.6927988538
	 C           0.0767741752       -1.1222578238       -0.9466344269
	 C           2.0244223038        0.8527781057       -0.2383877490
	 H          -0.0761670299       -1.1513860624       -2.9880507662
	 H           0.7777756431       -2.9303515672       -0.3131887785
	 F           4.1900673493        0.3161941497       -1.3453137286
	 F           1.3458670029        3.1298962061       -0.9716128269
	 F           2.4197851361        0.9365515549        2.2056649785
	             0.0000137219        0.0000238888        0.0001230515
	             0.0006979369       -0.0002618672        0.0005487687
	            -0.0060087645       -0.0019564682        0.0013137778
	            -0.0002512494        0.0001459399       -0.0003124783
	             0.0016790443       -0.0138582346       -0.0022125392
	            -0.0003390352        0.0008292898        0.0001230053
	             0.0021795803        0.0154151267        0.0001667463
	             0.0079790900       -0.0052198565       -0.0020193813
	             0.0005621224       -0.0019148591        0.0006361470
	            -0.0081113349        0.0023642560        0.0024726177
	             0.0030298150        0.0012597683       -0.0002840748
	            -0.0009153124        0.0025694031       -0.0003420334
	            -0.0005156142        0.0006036131       -0.0002136073

	Previous optimization step data not found.  Starting new optimization.

	---Fragment 1 Intrafragment Coordinates---
	 - Coordinate -           - BOHR/RAD -       - ANG/DEG -
	 R(1,2)           =         2.023250	       1.070658
	 R(2,3)           =         2.476439	       1.310475
	 R(2,4)           =         2.026328	       1.072287
	 R(3,5)           =         2.556251	       1.352710
	 R(3,6)           =         2.031018	       1.074768
	 R(5,7)           =         2.613786	       1.383156
	 R(7,8)           =         2.862816	       1.514937
	 R(7,9)           =         2.047345	       1.083408
	 R(7,10)          =         2.040064	       1.079555
	 R(8,11)          =         2.490628	       1.317983
	 R(8,12)          =         2.486629	       1.315867
	 R(8,13)          =         2.477241	       1.310900
	 B(1,2,3)         =         2.085250	     119.476041
	 B(1,2,4)         =         2.074957	     118.886290
	 B(2,3,5)         =         2.133368	     122.233006
	 B(2,3,6)         =         2.133753	     122.255031
	 B(3,2,4)         =         2.122976	     121.637574
	 B(3,5,7)         =         2.071090	     118.664692
	 B(5,3,6)         =         2.015993	     115.507893
	 B(5,7,8)         =         1.953686	     111.937980
	 B(5,7,9)         =         1.962090	     112.419491
	 B(5,7,10)        =         1.886746	     108.102558
	 B(7,8,11)        =         1.910251	     109.449312
	 B(7,8,12)        =         1.953218	     111.911176
	 B(7,8,13)        =         1.956261	     112.085495
	 B(8,7,9)         =         1.883168	     107.897553
	 B(8,7,10)        =         1.876389	     107.509158
	 B(9,7,10)        =         1.899338	     108.824061
	 B(11,8,12)       =         1.879176	     107.668843
	 B(11,8,13)       =         1.882830	     107.878204
	 B(12,8,13)       =         1.879160	     107.667948
	 D(1,2,3,5)       =        -3.120806	    -178.809000
	 D(1,2,3,6)       =         0.007399	       0.423960
	 D(2,3,5,7)       =        -3.052480	    -174.894246
	 D(3,5,7,8)       =        -2.938455	    -168.361090
	*D(3,5,7,9)       =         1.221730	      69.999999
	 D(3,5,7,10)      =        -0.875080	     -50.138413
	 D(4,2,3,5)       =         0.022768	       1.304520
	 D(4,2,3,6)       =        -3.132212	    -179.462520
	 D(5,7,8,11)      =         3.113795	     178.407310
	 D(5,7,8,12)      =        -1.087675	     -62.319161
	 D(5,7,8,13)      =         1.025580	      58.761407
	 D(6,3,5,7)       =         0.101656	       5.824481
	 D(9,7,8,11)      =        -1.001626	     -57.388948
	 D(9,7,8,12)      =         1.080090	      61.884581
	 D(9,7,8,13)      =        -3.089841	    -177.034851
	 D(10,7,8,11)     =         1.044268	      59.832132
	 D(10,7,8,12)     =         3.125983	     179.105661
	 D(10,7,8,13)     =        -1.043947	     -59.813771

	Current energy   :      -527.7402487553

	Generating empirical Hessian (Schlegel '84) for each fragment.
	Taking RFO optimization step.
	Going to follow RFO solution 1.
	Using RFO vector 1.
	Norm of target step-size    0.20000
	Projected energy change by RFO approximation:        -0.0010124967

	Back-transformation to cartesian coordinates...
	Could not converge backtransformation.
	Using first guess instead.

	Back-transformation to cartesian coordinates to adjust frozen coordinates...
	Successfully converged to displaced geometry.

	--- Internal Coordinate Step in ANG or DEG, aJ/ANG or AJ/DEG ---
	 ---------------------------------------------------------------------------
	   Coordinate                Previous        Force       Change         New 
	   ----------                --------       ------       ------       ------
	    1 R(1,2)          =      1.070658     0.000260     0.000715     1.071373
	    2 R(2,3)          =      1.310475     0.002530     0.000593     1.311068
	    3 R(2,4)          =      1.072287    -0.000607     0.000102     1.072389
	    4 R(3,5)          =      1.352710    -0.040520    -0.004146     1.348564
	    5 R(3,6)          =      1.074768     0.007138     0.001350     1.076118
	    6 R(5,7)          =      1.383156    -0.008363     0.000188     1.383344
	    7 R(7,8)          =      1.514937    -0.043384    -0.007142     1.507795
	    8 R(7,9)          =      1.083408     0.005347     0.001639     1.085047
	    9 R(7,10)         =      1.079555     0.033901     0.008861     1.088416
	   10 R(8,11)         =      1.317983    -0.020509    -0.000720     1.317263
	   11 R(8,12)         =      1.315867    -0.022274    -0.000533     1.315335
	   12 R(8,13)         =      1.310900     0.002246     0.000757     1.311657
	   13 B(1,2,3)        =    119.476041     0.000000     0.023625   119.499666
	   14 B(1,2,4)        =    118.886290     0.000009     0.058823   118.945113
	   15 B(2,3,5)        =    122.233006     0.000010     0.053757   122.286763
	   16 B(2,3,6)        =    122.255031    -0.000004    -0.040639   122.214392
	   17 B(3,2,4)        =    121.637574    -0.000009    -0.083071   121.554503
	   18 B(3,5,7)        =    118.664692    -0.000779    -2.331927   116.332765
	   19 B(5,3,6)        =    115.507893    -0.000006    -0.009577   115.498316
	   20 B(5,7,8)        =    111.937980    -0.001189    -4.375915   107.562064
	   21 B(5,7,9)        =    112.419491     0.000193    -0.690932   111.728559
	   22 B(5,7,10)       =    108.102558     0.000810     5.394745   113.497303
	   23 B(7,8,11)       =    109.449312    -0.000307    -1.067099   108.382213
	   24 B(7,8,12)       =    111.911176     0.000056     0.312740   112.223916
	   25 B(7,8,13)       =    112.085495     0.000040     0.102342   112.187837
	   26 B(8,7,9)        =    107.897553     0.000404    -0.679637   107.217916
	   27 B(8,7,10)       =    107.509158    -0.000025    -0.143943   107.365214
	   28 B(9,7,10)       =    108.824061    -0.000192     0.350507   109.174568
	   29 B(11,8,12)      =    107.668843     0.000099     0.117668   107.786511
	   30 B(11,8,13)      =    107.878204     0.000091     0.024510   107.902714
	   31 B(12,8,13)      =    107.667948     0.000031     0.512718   108.180666
	   32 D(1,2,3,5)      =   -178.809000    -0.000004    -0.401901  -179.210901
	   33 D(1,2,3,6)      =      0.423960     0.000000     0.088655     0.512614
	   34 D(2,3,5,7)      =   -174.894246     0.000009     1.576739  -173.317507
	   35 D(3,5,7,8)      =   -168.361090    -0.000047    -4.228911  -172.590001
	   36 *D(3,5,7,9)     =     69.999999    -0.000000     0.000000    69.999999
	   37 D(3,5,7,10)     =    -50.138413    -0.000096    -3.834447   -53.972860
	   38 D(4,2,3,5)      =      1.304520    -0.000008    -0.826971     0.477550
	   39 D(4,2,3,6)      =   -179.462520    -0.000004    -0.336415  -179.798935
	   40 D(5,7,8,11)     =    178.407310     0.000041     2.844374   181.251685
	   41 D(5,7,8,12)     =    -62.319161     0.000031     2.485312   -59.833849
	   42 D(5,7,8,13)     =     58.761407     0.000056     3.453760    62.215167
	   43 D(6,3,5,7)      =      5.824481     0.000005     1.117178     6.941659
	   44 D(9,7,8,11)     =    -57.388948    -0.000019    -1.054212   -58.443160
	   45 D(9,7,8,12)     =     61.884581    -0.000029    -1.413275    60.471307
	   46 D(9,7,8,13)     =   -177.034851    -0.000004    -0.444826  -177.479677
	   47 D(10,7,8,11)    =     59.832132    -0.000025    -1.069593    58.762539
	   48 D(10,7,8,12)    =    179.105661    -0.000035    -1.428656   177.677005
	   49 D(10,7,8,13)    =    -59.813771    -0.000010    -0.460207   -60.273978
	 ---------------------------------------------------------------------------
	Successfully symmetrized geometry.

  ==> Convergence Check <==

  Measures of convergence in internal coordinates in au.
  Criteria marked as inactive (o), active & met (*), and active & unmet ( ).
  --------------------------------------------------------------------------------------------- ~
   Step     Total Energy     Delta E     MAX Force     RMS Force      MAX Disp      RMS Disp    ~
  --------------------------------------------------------------------------------------------- ~
    Convergence Criteria    1.00e-06 *    3.00e-04 *             o    1.20e-03 *             o  ~
  --------------------------------------------------------------------------------------------- ~
      1    -527.74024876   -5.28e+02      1.56e-02      3.71e-03 o    9.42e-02      2.82e-02 o  ~
  ---------------------------------------------------------------------------------------------

	Writing optimization data to binary file.
	Structure for next step:
	Cartesian Geometry (in Angstrom)
	    H    -4.0369557757  -1.9051372581   0.4527039176
	    C    -3.3145809876  -1.1172248768   0.5248743608
	    C    -2.0977009773  -1.3141379093   0.0784135761
	    H    -3.6060302063  -0.1848130193   0.9672358265
	    O    -1.1402826288  -0.3675155105   0.1551048889
	    H    -1.7947033830  -2.2442031396  -0.3701410684
	    C     0.0555966895  -0.6514292627  -0.4796438368
	    C     1.0324057828   0.4389344111  -0.1185397768
	    H    -0.0507861649  -0.6426664743  -1.5594276652
	    H     0.4964794256  -1.5976521093  -0.1715295322
	    F     2.1703911028   0.1987132033  -0.7369781850
	    F     0.6132323008   1.6272939846  -0.4956350095
	    F     1.2746006908   0.4802335483   1.1699007773
			--------------------------
			 OPTKING Finished Execution 
			--------------------------

    Structure for next step:
    Molecular point group: c1
    Full point group: C1

    Geometry (in Angstrom), charge = 0, multiplicity = 1:

    H           -4.020351231519    -1.901838842180     0.447433578076
    C           -3.297976443422    -1.113926460902     0.519604021215
    C           -2.081096433105    -1.310839493395     0.073143236597
    H           -3.589425662117    -0.181514603421     0.961965486920
    O           -1.123678084565    -0.364217094605     0.149834549390
    H           -1.778098838794    -2.240904723708    -0.375411407902
    C            0.072201233723    -0.648130846751    -0.484914176315
    C            1.049010327002     0.442232827025    -0.123810116344
    H           -0.034181620705    -0.639368058347    -1.564698004727
    H            0.513083969768    -1.594353693346    -0.176799871739
    F            2.186995646973     0.202011619254    -0.742248524526
    F            0.629836845052     1.630592400459    -0.500905349043
    F            1.291205235026     0.483531964182     1.164630437718

gradient() will perform analytic gradient computation.

*** tstart() called on cx1-27-4-2
*** at Sat Sep 10 17:16:36 2016


         ---------------------------------------------------------
                                   SCF
            by Justin Turney, Rob Parrish, and Andy Simmonett
                              RHF Reference
                        4 Threads,   2000 MiB Core
         ---------------------------------------------------------

  ==> Geometry <==

    Molecular point group: c1
    Full point group: C1

    Geometry (in Angstrom), charge = 0, multiplicity = 1:

       Center              X                  Y                   Z               Mass       
    ------------   -----------------  -----------------  -----------------  -----------------
           H         -4.020351231519    -1.901838842180     0.447433578076     1.007825032070
           C         -3.297976443422    -1.113926460902     0.519604021215    12.000000000000
           C         -2.081096433105    -1.310839493395     0.073143236597    12.000000000000
           H         -3.589425662117    -0.181514603421     0.961965486920     1.007825032070
           O         -1.123678084565    -0.364217094605     0.149834549390    15.994914619560
           H         -1.778098838794    -2.240904723708    -0.375411407902     1.007825032070
           C          0.072201233723    -0.648130846751    -0.484914176315    12.000000000000
           C          1.049010327002     0.442232827025    -0.123810116344    12.000000000000
           H         -0.034181620705    -0.639368058347    -1.564698004727     1.007825032070
           H          0.513083969768    -1.594353693346    -0.176799871739     1.007825032070
           F          2.186995646973     0.202011619254    -0.742248524526    18.998403224000
           F          0.629836845052     1.630592400459    -0.500905349043    18.998403224000
           F          1.291205235026     0.483531964182     1.164630437718    18.998403224000

  Running in c1 symmetry.

  Rotational constants: A =      0.16920  B =      0.03456  C =      0.03385 [cm^-1]
  Rotational constants: A =   5072.51431  B =   1036.20789  C =   1014.83325 [MHz]
  Nuclear repulsion =  408.200354023052057

  Charge       = 0
  Multiplicity = 1
  Electrons    = 64
  Nalpha       = 32
  Nbeta        = 32

  ==> Algorithm <==

  SCF Algorithm Type is DF.
  DIIS enabled.
  MOM disabled.
  Fractional occupation disabled.
  Guess Type is READ.
  Energy threshold   = 1.00e-08
  Density threshold  = 1.00e-08
  Integral threshold = 0.00e+00

  ==> Primary Basis <==

  Basis Set: CC-PVTZ
    Number of shells: 110
    Number of basis function: 310
    Number of Cartesian functions: 355
    Spherical Harmonics?: true
    Max angular momentum: 3

  ==> Pre-Iterations <==

   -------------------------------------------------------
    Irrep   Nso     Nmo     Nalpha   Nbeta   Ndocc  Nsocc
   -------------------------------------------------------
     A        310     310       0       0       0       0
   -------------------------------------------------------
    Total     310     310      32      32      32       0
   -------------------------------------------------------

  ==> Integral Setup <==

  ==> DFJK: Density-Fitted J/K Matrices <==

    J tasked:                  Yes
    K tasked:                  Yes
    wK tasked:                  No
    OpenMP threads:              4
    Integrals threads:           4
    Memory (MB):              1430
    Algorithm:                Core
    Integral Cache:           NONE
    Schwarz Cutoff:          1E-12
    Fitting Condition:       1E-12

   => Auxiliary Basis Set <=

  Basis Set: 
    Number of shells: 250
    Number of basis function: 782
    Number of Cartesian functions: 943
    Spherical Harmonics?: true
    Max angular momentum: 4

  Minimum eigenvalue in the overlap matrix is 3.9492885999E-04.
  Using Symmetric Orthogonalization.
  SCF Guess: Reading in previously saved MOs, projecting if necessary.

  Using orbitals from previous SCF, no projection.
  Recomputing DOCC and SOCC from number of alpha and beta electrons from previous calculation.
              A 
    DOCC [    32 ]

  ==> Iterations <==

                           Total Energy        Delta E     RMS |[F,P]|

   @DF-RHF iter   0:  -527.73952312431425   -5.27740e+02   5.06560e-04 
   @DF-RHF iter   1:  -527.74106808282090   -1.54496e-03   7.24326e-05 
   @DF-RHF iter   2:  -527.74145985545715   -3.91773e-04   2.75365e-05 DIIS
   @DF-RHF iter   3:  -527.74151506042472   -5.52050e-05   1.46496e-05 DIIS
   @DF-RHF iter   4:  -527.74152624034468   -1.11799e-05   2.67872e-06 DIIS
   @DF-RHF iter   5:  -527.74152701166372   -7.71319e-07   1.04560e-06 DIIS
   @DF-RHF iter   6:  -527.74152714503111   -1.33367e-07   2.94103e-07 DIIS
   @DF-RHF iter   7:  -527.74152715407286   -9.04174e-09   9.34149e-08 DIIS
   @DF-RHF iter   8:  -527.74152715485866   -7.85803e-10   3.09715e-08 DIIS
   @DF-RHF iter   9:  -527.74152715494643   -8.77662e-11   8.89264e-09 DIIS

  ==> Post-Iterations <==

    Orbital Energies (a.u.)
    -----------------------

    Doubly Occupied:                                                      

       1A    -26.339749     2A    -26.337186     3A    -26.335807  
       4A    -20.604139     5A    -11.498177     6A    -11.319886  
       7A    -11.301050     8A    -11.217741     9A     -1.747851  
      10A     -1.645044    11A     -1.642500    12A     -1.447804  
      13A     -1.092134    14A     -1.019671    15A     -0.929151  
      16A     -0.845190    17A     -0.838308    18A     -0.813373  
      19A     -0.800907    20A     -0.727338    21A     -0.722158  
      22A     -0.704624    23A     -0.687733    24A     -0.665109  
      25A     -0.658143    26A     -0.650740    27A     -0.648433  
      28A     -0.578358    29A     -0.560488    30A     -0.533645  
      31A     -0.522010    32A     -0.359158  

    Virtual:                                                              

      33A      0.138973    34A      0.151615    35A      0.169347  
      36A      0.187903    37A      0.213229    38A      0.221575  
      39A      0.252351    40A      0.307747    41A      0.343023  
      42A      0.346128    43A      0.352658    44A      0.390525  
      45A      0.414717    46A      0.427358    47A      0.447806  
      48A      0.472269    49A      0.497558    50A      0.518176  
      51A      0.520653    52A      0.540646    53A      0.559690  
      54A      0.570919    55A      0.582489    56A      0.588991  
      57A      0.608057    58A      0.618797    59A      0.626693  
      60A      0.645933    61A      0.662197    62A      0.673246  
      63A      0.697097    64A      0.702010    65A      0.743960  
      66A      0.754803    67A      0.792978    68A      0.814264  
      69A      0.816376    70A      0.861742    71A      0.888097  
      72A      0.901661    73A      0.944187    74A      0.955848  
      75A      0.974876    76A      0.997096    77A      1.029708  
      78A      1.039400    79A      1.069600    80A      1.091936  
      81A      1.105830    82A      1.118932    83A      1.132996  
      84A      1.137539    85A      1.149686    86A      1.171989  
      87A      1.180119    88A      1.196354    89A      1.206600  
      90A      1.213164    91A      1.254961    92A      1.280636  
      93A      1.286822    94A      1.323625    95A      1.338460  
      96A      1.341459    97A      1.375595    98A      1.422324  
      99A      1.426764   100A      1.467943   101A      1.484387  
     102A      1.501654   103A      1.528446   104A      1.537412  
     105A      1.544862   106A      1.579906   107A      1.589678  
     108A      1.605274   109A      1.689897   110A      1.714223  
     111A      1.767845   112A      1.865823   113A      1.889677  
     114A      1.989141   115A      2.063098   116A      2.082903  
     117A      2.137635   118A      2.156388   119A      2.177458  
     120A      2.192943   121A      2.246240   122A      2.250173  
     123A      2.256583   124A      2.274263   125A      2.343235  
     126A      2.359948   127A      2.378085   128A      2.388584  
     129A      2.413614   130A      2.462379   131A      2.465511  
     132A      2.511445   133A      2.564664   134A      2.580126  
     135A      2.637057   136A      2.644636   137A      2.685398  
     138A      2.701673   139A      2.738408   140A      2.756173  
     141A      2.771811   142A      2.791912   143A      2.843936  
     144A      2.852195   145A      2.857282   146A      2.898536  
     147A      2.910314   148A      2.944727   149A      3.002435  
     150A      3.030947   151A      3.077530   152A      3.104517  
     153A      3.131614   154A      3.151005   155A      3.164882  
     156A      3.176328   157A      3.203251   158A      3.212556  
     159A      3.226902   160A      3.237734   161A      3.272615  
     162A      3.291731   163A      3.297335   164A      3.325300  
     165A      3.335265   166A      3.354192   167A      3.375082  
     168A      3.380363   169A      3.408727   170A      3.453057  
     171A      3.467825   172A      3.477062   173A      3.507103  
     174A      3.527227   175A      3.547315   176A      3.560633  
     177A      3.575083   178A      3.612095   179A      3.619438  
     180A      3.642295   181A      3.673608   182A      3.696076  
     183A      3.699659   184A      3.732736   185A      3.775189  
     186A      3.785717   187A      3.805221   188A      3.812337  
     189A      3.841076   190A      3.868822   191A      3.908327  
     192A      3.916712   193A      3.938494   194A      3.951320  
     195A      3.961943   196A      3.996326   197A      4.027832  
     198A      4.075951   199A      4.124755   200A      4.132880  
     201A      4.146508   202A      4.170782   203A      4.204359  
     204A      4.222675   205A      4.256876   206A      4.278240  
     207A      4.303598   208A      4.360735   209A      4.381208  
     210A      4.395762   211A      4.412537   212A      4.472252  
     213A      4.499355   214A      4.509423   215A      4.561606  
     216A      4.589127   217A      4.600271   218A      4.676011  
     219A      4.692120   220A      4.767688   221A      4.846953  
     222A      4.860816   223A      4.933610   224A      4.959283  
     225A      5.043189   226A      5.078106   227A      5.103164  
     228A      5.139294   229A      5.259145   230A      5.294868  
     231A      5.300562   232A      5.333839   233A      5.343836  
     234A      5.370883   235A      5.378978   236A      5.389038  
     237A      5.440133   238A      5.451481   239A      5.484474  
     240A      5.498117   241A      5.512489   242A      5.560341  
     243A      5.571573   244A      5.601992   245A      5.683175  
     246A      5.750042   247A      5.906791   248A      5.928329  
     249A      6.081577   250A      6.102222   251A      6.221731  
     252A      6.228805   253A      6.337486   254A      6.426301  
     255A      6.487346   256A      6.559855   257A      6.582218  
     258A      6.592875   259A      6.744798   260A      7.025073  
     261A      7.224003   262A      7.277121   263A      7.310731  
     264A      7.314195   265A      7.353877   266A      7.358472  
     267A      7.361844   268A      7.363077   269A      7.366513  
     270A      7.371175   271A      7.378266   272A      7.380726  
     273A      7.483814   274A      7.510375   275A      7.526459  
     276A      7.531858   277A      7.611793   278A      7.633127  
     279A      7.633871   280A      7.830525   281A      7.887392  
     282A      7.931171   283A      7.961518   284A      7.965146  
     285A      8.108312   286A      8.175560   287A      8.178567  
     288A      8.905751   289A      8.907411   290A      8.931012  
     291A      9.032033   292A      9.035225   293A      9.098573  
     294A      9.238312   295A      9.325859   296A      9.410044  
     297A      9.411174   298A      9.532209   299A      9.679306  
     300A      9.686649   301A      9.736914   302A      9.751311  
     303A     11.230116   304A     11.589251   305A     12.141098  
     306A     12.456274   307A     12.697646   308A     13.002066  
     309A     14.063289   310A     15.335968  

    Final Occupation by Irrep:
              A 
    DOCC [    32 ]

  Energy converged.

  @DF-RHF Final Energy:  -527.74152715494643

   => Energetics <=

    Nuclear Repulsion Energy =            408.2003540230520571
    One-Electron Energy =               -1540.2965559480517186
    Two-Electron Energy =                 604.3546747700530659
    DFT Exchange-Correlation Energy =       0.0000000000000000
    Empirical Dispersion Energy =           0.0000000000000000
    PCM Polarization Energy =               0.0000000000000000
    EFP Energy =                            0.0000000000000000
    Total Energy =                       -527.7415271549465388


  Saving occupied orbitals to File 180.

*** tstop() called on cx1-27-4-2 at Sat Sep 10 17:16:41 2016
Module time:
	user time   =      18.39 seconds =       0.31 minutes
	system time =       0.68 seconds =       0.01 minutes
	total time  =          5 seconds =       0.08 minutes
Total time:
	user time   =      67.50 seconds =       1.12 minutes
	system time =       2.21 seconds =       0.04 minutes
	total time  =         20 seconds =       0.33 minutes


Properties will be evaluated at   0.000000,   0.000000,   0.000000 Bohr

Properties computed using the SCF density matrix

  Nuclear Dipole Moment: (a.u.)
     X:   -12.2326      Y:    -8.3346      Z:    -0.5885

  Electronic Dipole Moment: (a.u.)
     X:    11.9297      Y:     7.3521      Z:     0.1335

  Dipole Moment: (a.u.)
     X:    -0.3029      Y:    -0.9825      Z:    -0.4549     Total:     1.1243

  Dipole Moment: (Debye)
     X:    -0.7700      Y:    -2.4974      Z:    -1.1564     Total:     2.8578


*** tstart() called on cx1-27-4-2
*** at Sat Sep 10 17:16:41 2016


         ------------------------------------------------------------
                                   SCF GRAD                          
                          Rob Parrish, Justin Turney,                
                       Andy Simmonett, and Alex Sokolov              
         ------------------------------------------------------------

  ==> Geometry <==

    Molecular point group: c1
    Full point group: C1

    Geometry (in Angstrom), charge = 0, multiplicity = 1:

       Center              X                  Y                   Z               Mass       
    ------------   -----------------  -----------------  -----------------  -----------------
           H         -4.020351231519    -1.901838842180     0.447433578076     1.007825032070
           C         -3.297976443422    -1.113926460902     0.519604021215    12.000000000000
           C         -2.081096433105    -1.310839493395     0.073143236597    12.000000000000
           H         -3.589425662117    -0.181514603421     0.961965486920     1.007825032070
           O         -1.123678084565    -0.364217094605     0.149834549390    15.994914619560
           H         -1.778098838794    -2.240904723708    -0.375411407902     1.007825032070
           C          0.072201233723    -0.648130846751    -0.484914176315    12.000000000000
           C          1.049010327002     0.442232827025    -0.123810116344    12.000000000000
           H         -0.034181620705    -0.639368058347    -1.564698004727     1.007825032070
           H          0.513083969768    -1.594353693346    -0.176799871739     1.007825032070
           F          2.186995646973     0.202011619254    -0.742248524526    18.998403224000
           F          0.629836845052     1.630592400459    -0.500905349043    18.998403224000
           F          1.291205235026     0.483531964182     1.164630437718    18.998403224000

  Nuclear repulsion =  408.200354023052057

  ==> Basis Set <==

  Basis Set: CC-PVTZ
    Number of shells: 110
    Number of basis function: 310
    Number of Cartesian functions: 355
    Spherical Harmonics?: true
    Max angular momentum: 3

  ==> DFJKGrad: Density-Fitted SCF Gradients <==

    Gradient:                    1
    J tasked:                  Yes
    K tasked:                  Yes
    wK tasked:                  No
    OpenMP threads:              4
    Integrals threads:           4
    Memory (MB):              1430
    Schwarz Cutoff:          0E+00
    Fitting Condition:       1E-12

   => Auxiliary Basis Set <=

  Basis Set: 
    Number of shells: 250
    Number of basis function: 782
    Number of Cartesian functions: 943
    Spherical Harmonics?: true
    Max angular momentum: 4


  -Total Gradient:
     Atom            X                  Y                   Z
    ------   -----------------  -----------------  -----------------
       1       -0.000220133040    -0.000439059503    -0.000137082270
       2        0.000517144009     0.001132288931     0.000291875058
       3        0.002103137802    -0.000311934660    -0.000053217208
       4       -0.000017180006     0.000083330297     0.000021701165
       5       -0.001003729180     0.004515839800    -0.000647043791
       6        0.000359783463    -0.000084805561    -0.000469454581
       7       -0.001248702664    -0.003785383165     0.001295192129
       8       -0.000210897508    -0.000753276258     0.002161448656
       9        0.000227266029     0.001092578104    -0.000426623767
      10        0.003663962644    -0.002210307886    -0.000750170221
      11       -0.002971048781    -0.001542320800    -0.000048815203
      12       -0.001473771984     0.003502789585    -0.002184029410
      13        0.000274169201    -0.001199738883     0.000946219442


*** tstop() called on cx1-27-4-2 at Sat Sep 10 17:16:48 2016
Module time:
	user time   =      24.56 seconds =       0.41 minutes
	system time =       0.58 seconds =       0.01 minutes
	total time  =          7 seconds =       0.12 minutes
Total time:
	user time   =      92.13 seconds =       1.54 minutes
	system time =       2.79 seconds =       0.05 minutes
	total time  =         27 seconds =       0.45 minutes

			-----------------------------------------
			 OPTKING 2.0: for geometry optimizations 
			  - R.A. King,  Bethel University        
			-----------------------------------------

	Previous internal coordinate definitions found.
	---Fragment 1 Geometry and Gradient---
	 H          -7.5973627856       -3.5939545606        0.8455269252
	 C          -6.2322722708       -2.1050159433        0.9819092976
	 C          -3.9327023147       -2.4771276467        0.1382206856
	 H          -6.7830314758       -0.3430128896        1.8178513196
	 O          -2.1234438414       -0.6882705617        0.2831462636
	 H          -3.3601198425       -4.2346962177       -0.7094247481
	 C           0.1364405582       -1.2247897986       -0.9163549912
	 C           1.9823422286        0.8356989300       -0.2339672124
	 H          -0.0645939019       -1.2082305284       -2.9568507096
	 H           0.9695881860       -3.0128918394       -0.3341033379
	 F           4.1328228266        0.3817466361       -1.4026464339
	 F           1.1902191455        3.0813730712       -0.9465739282
	 F           2.4400242755        0.9137429888        2.2008325733
	            -0.0002201330       -0.0004390595       -0.0001370823
	             0.0005171440        0.0011322889        0.0002918751
	             0.0021031378       -0.0003119347       -0.0000532172
	            -0.0000171800        0.0000833303        0.0000217012
	            -0.0010037292        0.0045158398       -0.0006470438
	             0.0003597835       -0.0000848056       -0.0004694546
	            -0.0012487027       -0.0037853832        0.0012951921
	            -0.0002108975       -0.0007532763        0.0021614487
	             0.0002272660        0.0010925781       -0.0004266238
	             0.0036639626       -0.0022103079       -0.0007501702
	            -0.0029710488       -0.0015423208       -0.0000488152
	            -0.0014737720        0.0035027896       -0.0021840294
	             0.0002741692       -0.0011997389        0.0009462194

	---Fragment 1 Intrafragment Coordinates---
	 - Coordinate -           - BOHR/RAD -       - ANG/DEG -
	 R(1,2)           =         2.024601	       1.071373
	 R(2,3)           =         2.477559	       1.311068
	 R(2,4)           =         2.026522	       1.072389
	 R(3,5)           =         2.548417	       1.348564
	 R(3,6)           =         2.033568	       1.076118
	 R(5,7)           =         2.614141	       1.383344
	 R(7,8)           =         2.849319	       1.507795
	 R(7,9)           =         2.050442	       1.085047
	 R(7,10)          =         2.056808	       1.088416
	 R(8,11)          =         2.489267	       1.317263
	 R(8,12)          =         2.485623	       1.315335
	 R(8,13)          =         2.478672	       1.311657
	 B(1,2,3)         =         2.085663	     119.499666
	 B(1,2,4)         =         2.075984	     118.945113
	 B(2,3,5)         =         2.134307	     122.286763
	 B(2,3,6)         =         2.133044	     122.214392
	 B(3,2,4)         =         2.121526	     121.554503
	 B(3,5,7)         =         2.030390	     116.332765
	 B(5,3,6)         =         2.015826	     115.498316
	 B(5,7,8)         =         1.877312	     107.562064
	 B(5,7,9)         =         1.950031	     111.728559
	 B(5,7,10)        =         1.980902	     113.497303
	 B(7,8,11)        =         1.891626	     108.382213
	 B(7,8,12)        =         1.958677	     112.223916
	 B(7,8,13)        =         1.958047	     112.187837
	 B(8,7,9)         =         1.871306	     107.217916
	 B(8,7,10)        =         1.873876	     107.365214
	 B(9,7,10)        =         1.905456	     109.174568
	 B(11,8,12)       =         1.881230	     107.786511
	 B(11,8,13)       =         1.883258	     107.902714
	 B(12,8,13)       =         1.888109	     108.180666
	 D(1,2,3,5)       =        -3.127820	    -179.210901
	 D(1,2,3,6)       =         0.008947	       0.512614
	 D(2,3,5,7)       =        -3.024961	    -173.317507
	 D(3,5,7,8)       =        -3.012264	    -172.590001
	*D(3,5,7,9)       =         1.221730	      69.999999
	 D(3,5,7,10)      =        -0.942004	     -53.972860
	 D(4,2,3,5)       =         0.008335	       0.477550
	 D(4,2,3,6)       =        -3.138083	    -179.798935
	 D(5,7,8,11)      =        -3.119747	    -178.748315
	 D(5,7,8,12)      =        -1.044298	     -59.833849
	 D(5,7,8,13)      =         1.085860	      62.215167
	 D(6,3,5,7)       =         0.121155	       6.941659
	 D(9,7,8,11)      =        -1.020026	     -58.443160
	 D(9,7,8,12)      =         1.055423	      60.471307
	 D(9,7,8,13)      =        -3.097605	    -177.479677
	 D(10,7,8,11)     =         1.025600	      58.762539
	 D(10,7,8,12)     =         3.101049	     177.677005
	 D(10,7,8,13)     =        -1.051979	     -60.273978

	Current energy   :      -527.7415271549

	Energy change for the previous step:
		Projected    :        -0.0010124967
		Actual       :        -0.0012783997
	Energy ratio indicates good step: Trust radius increased to 1.000e+00.


	Performing BFGS update.
	Previous computed or guess Hessian on step 1.
	Steps to be used in Hessian update: 1
	Taking RFO optimization step.
	Going to follow RFO solution 1.
	Using RFO vector 1.
	Norm of target step-size    0.06330
	Projected energy change by RFO approximation:        -0.0004148156

	Back-transformation to cartesian coordinates...
	Successfully converged to displaced geometry.
	First geometry is closer to target in internal coordinates, so am using that one.
	First geometry has RMS(Delta(q)) = 1.11e-04

	Back-transformation to cartesian coordinates to adjust frozen coordinates...
	Successfully converged to displaced geometry.

	--- Internal Coordinate Step in ANG or DEG, aJ/ANG or AJ/DEG ---
	 ---------------------------------------------------------------------------
	   Coordinate                Previous        Force       Change         New 
	   ----------                --------       ------       ------       ------
	    1 R(1,2)          =      1.071373    -0.003959    -0.000595     1.070778
	    2 R(2,3)          =      1.311068     0.000684    -0.000014     1.311054
	    3 R(2,4)          =      1.072389    -0.000709    -0.000043     1.072346
	    4 R(3,5)          =      1.348564     0.018077     0.001347     1.349911
	    5 R(3,6)          =      1.076118    -0.003051    -0.000238     1.075880
	    6 R(5,7)          =      1.383344     0.007862     0.000506     1.383850
	    7 R(7,8)          =      1.507795     0.021615     0.002801     1.510595
	    8 R(7,9)          =      1.085047    -0.003387    -0.000590     1.084458
	    9 R(7,10)         =      1.088416    -0.026309    -0.003849     1.084567
	   10 R(8,11)         =      1.317263     0.018640     0.001115     1.318378
	   11 R(8,12)         =      1.315335    -0.035101    -0.002999     1.312336
	   12 R(8,13)         =      1.311657    -0.007764    -0.000638     1.311019
	   13 B(1,2,3)        =    119.499666     0.000017     0.046217   119.545883
	   14 B(1,2,4)        =    118.945113    -0.000009    -0.029519   118.915594
	   15 B(2,3,5)        =    122.286763     0.000071     0.169903   122.456667
	   16 B(2,3,6)        =    122.214392    -0.000064    -0.180958   122.033435
	   17 B(3,2,4)        =    121.554503    -0.000007    -0.017149   121.537354
	   18 B(3,5,7)        =    116.332765     0.000246     0.489266   116.822030
	   19 B(5,3,6)        =    115.498316    -0.000007     0.008971   115.507287
	   20 B(5,7,8)        =    107.562064     0.000330     0.789780   108.351844
	   21 B(5,7,9)        =    111.728559    -0.000038     0.255487   111.984046
	   22 B(5,7,10)       =    113.497303    -0.000270    -1.364653   112.132650
	   23 B(7,8,11)       =    108.382213     0.000327     0.856355   109.238568
	   24 B(7,8,12)       =    112.223916    -0.000006    -0.096258   112.127658
	   25 B(7,8,13)       =    112.187837     0.000037     0.019998   112.207835
	   26 B(8,7,9)        =    107.217916    -0.000085     0.404169   107.622086
	   27 B(8,7,10)       =    107.365214     0.000011     0.002326   107.367540
	   28 B(9,7,10)       =    109.174568     0.000067    -0.001527   109.173040
	   29 B(11,8,12)      =    107.786511    -0.000123    -0.115341   107.671170
	   30 B(11,8,13)      =    107.902714    -0.000143    -0.145502   107.757213
	   31 B(12,8,13)      =    108.180666    -0.000106    -0.535435   107.645232
	   32 D(1,2,3,5)      =   -179.210901     0.000002     0.204643  -179.006258
	   33 D(1,2,3,6)      =      0.512614    -0.000001    -0.133328     0.379287
	   34 D(2,3,5,7)      =   -173.317507     0.000002     0.832578  -172.484929
	   35 D(3,5,7,8)      =   -172.590001     0.000018     1.137496  -171.452505
	   36 *D(3,5,7,9)     =     69.999999     0.000000    -0.000000    69.999999
	   37 D(3,5,7,10)     =    -53.972860     0.000034     0.842671   -53.130189
	   38 D(4,2,3,5)      =      0.477550     0.000002     0.118526     0.596075
	   39 D(4,2,3,6)      =   -179.798935    -0.000002    -0.219445  -180.018380
	   40 D(5,7,8,11)     =   -178.748315    -0.000017    -1.084447  -179.832763
	   41 D(5,7,8,12)     =    -59.833849    -0.000004    -0.725458   -60.559307
	   42 D(5,7,8,13)     =     62.215167    -0.000031    -1.479407    60.735761
	   43 D(6,3,5,7)      =      6.941659     0.000006     1.150563     8.092222
	   44 D(9,7,8,11)     =    -58.443160     0.000003    -0.111258   -58.554418
	   45 D(9,7,8,12)     =     60.471307     0.000016     0.247732    60.719038
	   46 D(9,7,8,13)     =   -177.479677    -0.000010    -0.506217  -177.985894
	   47 D(10,7,8,11)    =     58.762539     0.000012     0.095890    58.858429
	   48 D(10,7,8,12)    =    177.677005     0.000025     0.454880   178.131885
	   49 D(10,7,8,13)    =    -60.273978    -0.000001    -0.299069   -60.573047
	 ---------------------------------------------------------------------------
	Successfully symmetrized geometry.

  ==> Convergence Check <==

  Measures of convergence in internal coordinates in au.
  Criteria marked as inactive (o), active & met (*), and active & unmet ( ).
  ---------------------------------------------------------------------------------------------
   Step     Total Energy     Delta E     MAX Force     RMS Force      MAX Disp      RMS Disp   
  ---------------------------------------------------------------------------------------------
    Convergence Criteria    1.00e-06 *    3.00e-04 *             o    1.20e-03 *             o
  ---------------------------------------------------------------------------------------------
      2    -527.74152715   -1.28e-03      4.33e-03      1.65e-03 o    2.58e-02      9.05e-03 o  ~
  ---------------------------------------------------------------------------------------------

	Writing optimization data to binary file.
	Structure for next step:
	Cartesian Geometry (in Angstrom)
	    H    -4.0207557213  -1.9122505652   0.4579618124
	    C    -3.3031981432  -1.1198849061   0.5198745080
	    C    -2.0842366923  -1.3156168777   0.0786436721
	    H    -3.6005972351  -0.1834451476   0.9494782452
	    O    -1.1281512970  -0.3650033697   0.1456807983
	    H    -1.7772119886  -2.2518431036  -0.3534833370
	    C     0.0677179223  -0.6358085369  -0.4958809911
	    C     1.0601188724   0.4415746165  -0.1267135409
	    H    -0.0395550755  -0.6275552582  -1.5749883356
	    H     0.4910810857  -1.5854438556  -0.1872682037
	    F     2.2064609051   0.2022448088  -0.7323065521
	    F     0.6555795528   1.6339882783  -0.4964757563
	    F     1.2902727580   0.4823189113   1.1633015401
			--------------------------
			 OPTKING Finished Execution 
			--------------------------

    Structure for next step:
    Molecular point group: c1
    Full point group: C1

    Geometry (in Angstrom), charge = 0, multiplicity = 1:

    H           -4.026392593939    -1.912582910521     0.457300351798
    C           -3.308835015795    -1.120217251378     0.519213047433
    C           -2.089873564881    -1.315949222941     0.077982211519
    H           -3.606234107659    -0.183777492901     0.948816784585
    O           -1.133788169586    -0.365335715008     0.145019337716
    H           -1.782848861234    -2.252175448903    -0.354144797524
    C            0.062081049738    -0.636140882150    -0.496542451677
    C            1.054481999771     0.441242271225    -0.127375001509
    H           -0.045191948093    -0.627887603475    -1.575649796123
    H            0.485444213103    -1.585776200921    -0.187929664283
    F            2.200824032514     0.201912463546    -0.732968012686
    F            0.649942680164     1.633655932990    -0.497137216890
    F            1.284635885364     0.481986565968     1.162640079534

gradient() will perform analytic gradient computation.

*** tstart() called on cx1-27-4-2
*** at Sat Sep 10 17:16:48 2016


         ---------------------------------------------------------
                                   SCF
            by Justin Turney, Rob Parrish, and Andy Simmonett
                              RHF Reference
                        4 Threads,   2000 MiB Core
         ---------------------------------------------------------

  ==> Geometry <==

    Molecular point group: c1
    Full point group: C1

    Geometry (in Angstrom), charge = 0, multiplicity = 1:

       Center              X                  Y                   Z               Mass       
    ------------   -----------------  -----------------  -----------------  -----------------
           H         -4.026392593939    -1.912582910521     0.457300351798     1.007825032070
           C         -3.308835015795    -1.120217251378     0.519213047433    12.000000000000
           C         -2.089873564881    -1.315949222941     0.077982211519    12.000000000000
           H         -3.606234107659    -0.183777492901     0.948816784585     1.007825032070
           O         -1.133788169586    -0.365335715008     0.145019337716    15.994914619560
           H         -1.782848861234    -2.252175448903    -0.354144797524     1.007825032070
           C          0.062081049738    -0.636140882150    -0.496542451677    12.000000000000
           C          1.054481999771     0.441242271225    -0.127375001509    12.000000000000
           H         -0.045191948093    -0.627887603475    -1.575649796123     1.007825032070
           H          0.485444213103    -1.585776200921    -0.187929664283     1.007825032070
           F          2.200824032514     0.201912463546    -0.732968012686    18.998403224000
           F          0.649942680164     1.633655932990    -0.497137216890    18.998403224000
           F          1.284635885364     0.481986565968     1.162640079534    18.998403224000

  Running in c1 symmetry.

  Rotational constants: A =      0.17032  B =      0.03431  C =      0.03360 [cm^-1]
  Rotational constants: A =   5106.03819  B =   1028.52709  C =   1007.35013 [MHz]
  Nuclear repulsion =  407.717132829653906

  Charge       = 0
  Multiplicity = 1
  Electrons    = 64
  Nalpha       = 32
  Nbeta        = 32

  ==> Algorithm <==

  SCF Algorithm Type is DF.
  DIIS enabled.
  MOM disabled.
  Fractional occupation disabled.
  Guess Type is READ.
  Energy threshold   = 1.00e-08
  Density threshold  = 1.00e-08
  Integral threshold = 0.00e+00

  ==> Primary Basis <==

  Basis Set: CC-PVTZ
    Number of shells: 110
    Number of basis function: 310
    Number of Cartesian functions: 355
    Spherical Harmonics?: true
    Max angular momentum: 3

  ==> Pre-Iterations <==

   -------------------------------------------------------
    Irrep   Nso     Nmo     Nalpha   Nbeta   Ndocc  Nsocc
   -------------------------------------------------------
     A        310     310       0       0       0       0
   -------------------------------------------------------
    Total     310     310      32      32      32       0
   -------------------------------------------------------

  ==> Integral Setup <==

  ==> DFJK: Density-Fitted J/K Matrices <==

    J tasked:                  Yes
    K tasked:                  Yes
    wK tasked:                  No
    OpenMP threads:              4
    Integrals threads:           4
    Memory (MB):              1430
    Algorithm:                Core
    Integral Cache:           NONE
    Schwarz Cutoff:          1E-12
    Fitting Condition:       1E-12

   => Auxiliary Basis Set <=

  Basis Set: 
    Number of shells: 250
    Number of basis function: 782
    Number of Cartesian functions: 943
    Spherical Harmonics?: true
    Max angular momentum: 4

  Minimum eigenvalue in the overlap matrix is 3.9720510397E-04.
  Using Symmetric Orthogonalization.
  SCF Guess: Reading in previously saved MOs, projecting if necessary.

  Using orbitals from previous SCF, no projection.
  Recomputing DOCC and SOCC from number of alpha and beta electrons from previous calculation.
              A 
    DOCC [    32 ]

  ==> Iterations <==

                           Total Energy        Delta E     RMS |[F,P]|

   @DF-RHF iter   0:  -527.74210068826778   -5.27742e+02   1.43395e-04 
   @DF-RHF iter   1:  -527.74170648248844    3.94206e-04   2.15011e-05 
   @DF-RHF iter   2:  -527.74174523580530   -3.87533e-05   8.65782e-06 DIIS
   @DF-RHF iter   3:  -527.74175209836676   -6.86256e-06   4.61355e-06 DIIS
   @DF-RHF iter   4:  -527.74175342915817   -1.33079e-06   9.03971e-07 DIIS
   @DF-RHF iter   5:  -527.74175354766089   -1.18503e-07   3.05227e-07 DIIS
   @DF-RHF iter   6:  -527.74175355988075   -1.22199e-08   1.11083e-07 DIIS
   @DF-RHF iter   7:  -527.74175356092439   -1.04365e-09   3.43279e-08 DIIS
   @DF-RHF iter   8:  -527.74175356104013   -1.15733e-10   1.02828e-08 DIIS
   @DF-RHF iter   9:  -527.74175356105184   -1.17097e-11   2.62029e-09 DIIS

  ==> Post-Iterations <==

    Orbital Energies (a.u.)
    -----------------------

    Doubly Occupied:                                                      

       1A    -26.340089     2A    -26.336420     3A    -26.335637  
       4A    -20.603815     5A    -11.498663     6A    -11.320288  
       7A    -11.301476     8A    -11.218001     9A     -1.748776  
      10A     -1.644856    11A     -1.642582    12A     -1.446642  
      13A     -1.091719    14A     -1.019925    15A     -0.929768  
      16A     -0.845113    17A     -0.838119    18A     -0.813310  
      19A     -0.802440    20A     -0.727191    21A     -0.722093  
      22A     -0.704950    23A     -0.687542    24A     -0.665073  
      25A     -0.658037    26A     -0.650546    27A     -0.647935  
      28A     -0.579490    29A     -0.561156    30A     -0.533699  
      31A     -0.520675    32A     -0.359490  

    Virtual:                                                              

      33A      0.139071    34A      0.151539    35A      0.169307  
      36A      0.187908    37A      0.213241    38A      0.222032  
      39A      0.251267    40A      0.308859    41A      0.341481  
      42A      0.346740    43A      0.353070    44A      0.389580  
      45A      0.413050    46A      0.428267    47A      0.446422  
      48A      0.471817    49A      0.496866    50A      0.519495  
      51A      0.522439    52A      0.540271    53A      0.559928  
      54A      0.571581    55A      0.582363    56A      0.589317  
      57A      0.608295    58A      0.618217    59A      0.626685  
      60A      0.645921    61A      0.660237    62A      0.671082  
      63A      0.695962    64A      0.701223    65A      0.745677  
      66A      0.754327    67A      0.792937    68A      0.815576  
      69A      0.817266    70A      0.860736    71A      0.886577  
      72A      0.902710    73A      0.944200    74A      0.956799  
      75A      0.973475    76A      0.998371    77A      1.028164  
      78A      1.040097    79A      1.069007    80A      1.090289  
      81A      1.105933    82A      1.118177    83A      1.133093  
      84A      1.134711    85A      1.150920    86A      1.170397  
      87A      1.180799    88A      1.193486    89A      1.205800  
      90A      1.213699    91A      1.254899    92A      1.280403  
      93A      1.288173    94A      1.322939    95A      1.339651  
      96A      1.347949    97A      1.377034    98A      1.421863  
      99A      1.426513   100A      1.466064   101A      1.481820  
     102A      1.501676   103A      1.528258   104A      1.537501  
     105A      1.542665   106A      1.579358   107A      1.590969  
     108A      1.603525   109A      1.690147   110A      1.714172  
     111A      1.765440   112A      1.863190   113A      1.890366  
     114A      1.985308   115A      2.057547   116A      2.080976  
     117A      2.136081   118A      2.151772   119A      2.177984  
     120A      2.190871   121A      2.247202   122A      2.249095  
     123A      2.256540   124A      2.274157   125A      2.347501  
     126A      2.360688   127A      2.378715   128A      2.391142  
     129A      2.413575   130A      2.462393   131A      2.470377  
     132A      2.514155   133A      2.558643   134A      2.579955  
     135A      2.635460   136A      2.644119   137A      2.682754  
     138A      2.698643   139A      2.736325   140A      2.758647  
     141A      2.771797   142A      2.788480   143A      2.841306  
     144A      2.852228   145A      2.859597   146A      2.896536  
     147A      2.909943   148A      2.937083   149A      3.001944  
     150A      3.030314   151A      3.077615   152A      3.102343  
     153A      3.131307   154A      3.148549   155A      3.164567  
     156A      3.175510   157A      3.203635   158A      3.212729  
     159A      3.226646   160A      3.238115   161A      3.271275  
     162A      3.292663   163A      3.299133   164A      3.325830  
     165A      3.336343   166A      3.352990   167A      3.372983  
     168A      3.379578   169A      3.407485   170A      3.451813  
     171A      3.468168   172A      3.476375   173A      3.507446  
     174A      3.520888   175A      3.547560   176A      3.559559  
     177A      3.579681   178A      3.612168   179A      3.619150  
     180A      3.641618   181A      3.670176   182A      3.697340  
     183A      3.698426   184A      3.731826   185A      3.776983  
     186A      3.783879   187A      3.805592   188A      3.817921  
     189A      3.843171   190A      3.868249   191A      3.905478  
     192A      3.914473   193A      3.939195   194A      3.949384  
     195A      3.962788   196A      3.998094   197A      4.029736  
     198A      4.075636   199A      4.127828   200A      4.133066  
     201A      4.141892   202A      4.171231   203A      4.206824  
     204A      4.220091   205A      4.257057   206A      4.276192  
     207A      4.307249   208A      4.358711   209A      4.382800  
     210A      4.395356   211A      4.409771   212A      4.472064  
     213A      4.496387   214A      4.511155   215A      4.560727  
     216A      4.591977   217A      4.605999   218A      4.665238  
     219A      4.688239   220A      4.771428   221A      4.844555  
     222A      4.859134   223A      4.932968   224A      4.959603  
     225A      5.040053   226A      5.080895   227A      5.104701  
     228A      5.143579   229A      5.262901   230A      5.295668  
     231A      5.299722   232A      5.333737   233A      5.344752  
     234A      5.371789   235A      5.384529   236A      5.389195  
     237A      5.441195   238A      5.450490   239A      5.480228  
     240A      5.501674   241A      5.518272   242A      5.561313  
     243A      5.574946   244A      5.602473   245A      5.689203  
     246A      5.750804   247A      5.910467   248A      5.928259  
     249A      6.080438   250A      6.087949   251A      6.219853  
     252A      6.229560   253A      6.332276   254A      6.428861  
     255A      6.488074   256A      6.554970   257A      6.581146  
     258A      6.592343   259A      6.745946   260A      7.023118  
     261A      7.222441   262A      7.276832   263A      7.309622  
     264A      7.314288   265A      7.353839   266A      7.358705  
     267A      7.361467   268A      7.363402   269A      7.366037  
     270A      7.370662   271A      7.378611   272A      7.380932  
     273A      7.486115   274A      7.512486   275A      7.526240  
     276A      7.531467   277A      7.611754   278A      7.634906  
     279A      7.638114   280A      7.833283   281A      7.887620  
     282A      7.931576   283A      7.966332   284A      7.969111  
     285A      8.102662   286A      8.178722   287A      8.181631  
     288A      8.905781   289A      8.907535   290A      8.933174  
     291A      9.032821   292A      9.035545   293A      9.097561  
     294A      9.238700   295A      9.325298   296A      9.409386  
     297A      9.410653   298A      9.534097   299A      9.677861  
     300A      9.686641   301A      9.739785   302A      9.756063  
     303A     11.221554   304A     11.568239   305A     12.121182  
     306A     12.458661   307A     12.671203   308A     12.996132  
     309A     14.048597   310A     15.332712  

    Final Occupation by Irrep:
              A 
    DOCC [    32 ]

  Energy converged.

  @DF-RHF Final Energy:  -527.74175356105184

   => Energetics <=

    Nuclear Repulsion Energy =            407.7171328296539059
    One-Electron Energy =               -1539.3267349160173580
    Two-Electron Energy =                 603.8678485253118424
    DFT Exchange-Correlation Energy =       0.0000000000000000
    Empirical Dispersion Energy =           0.0000000000000000
    PCM Polarization Energy =               0.0000000000000000
    EFP Energy =                            0.0000000000000000
    Total Energy =                       -527.7417535610514960


  Saving occupied orbitals to File 180.

*** tstop() called on cx1-27-4-2 at Sat Sep 10 17:16:54 2016
Module time:
	user time   =      18.30 seconds =       0.31 minutes
	system time =       0.57 seconds =       0.01 minutes
	total time  =          6 seconds =       0.10 minutes
Total time:
	user time   =     111.35 seconds =       1.86 minutes
	system time =       3.39 seconds =       0.06 minutes
	total time  =         33 seconds =       0.55 minutes


Properties will be evaluated at   0.000000,   0.000000,   0.000000 Bohr

Properties computed using the SCF density matrix

  Nuclear Dipole Moment: (a.u.)
     X:   -12.3206      Y:    -8.3399      Z:    -0.6028

  Electronic Dipole Moment: (a.u.)
     X:    12.0062      Y:     7.3586      Z:     0.1384

  Dipole Moment: (a.u.)
     X:    -0.3144      Y:    -0.9813      Z:    -0.4643     Total:     1.1302

  Dipole Moment: (Debye)
     X:    -0.7991      Y:    -2.4942      Z:    -1.1802     Total:     2.8728


*** tstart() called on cx1-27-4-2
*** at Sat Sep 10 17:16:54 2016


         ------------------------------------------------------------
                                   SCF GRAD                          
                          Rob Parrish, Justin Turney,                
                       Andy Simmonett, and Alex Sokolov              
         ------------------------------------------------------------

  ==> Geometry <==

    Molecular point group: c1
    Full point group: C1

    Geometry (in Angstrom), charge = 0, multiplicity = 1:

       Center              X                  Y                   Z               Mass       
    ------------   -----------------  -----------------  -----------------  -----------------
           H         -4.026392593939    -1.912582910521     0.457300351798     1.007825032070
           C         -3.308835015795    -1.120217251378     0.519213047433    12.000000000000
           C         -2.089873564881    -1.315949222941     0.077982211519    12.000000000000
           H         -3.606234107659    -0.183777492901     0.948816784585     1.007825032070
           O         -1.133788169586    -0.365335715008     0.145019337716    15.994914619560
           H         -1.782848861234    -2.252175448903    -0.354144797524     1.007825032070
           C          0.062081049738    -0.636140882150    -0.496542451677    12.000000000000
           C          1.054481999771     0.441242271225    -0.127375001509    12.000000000000
           H         -0.045191948093    -0.627887603475    -1.575649796123     1.007825032070
           H          0.485444213103    -1.585776200921    -0.187929664283     1.007825032070
           F          2.200824032514     0.201912463546    -0.732968012686    18.998403224000
           F          0.649942680164     1.633655932990    -0.497137216890    18.998403224000
           F          1.284635885364     0.481986565968     1.162640079534    18.998403224000

[...]
           H         -3.838092808602    -1.627549415573     1.638338552253     1.007825032070
           C         -3.180170651091    -0.875369407943     1.253423835282    12.000000000000
           C         -1.943507584379    -1.188545559056     0.952684865062    12.000000000000
           H         -3.548566533108     0.125157510603     1.139131403092     1.007825032070
           O         -1.048190524052    -0.274564998131     0.519527050392    15.994914619560
           H         -1.562038412851    -2.188808061051     1.064161495351     1.007825032070
           C          0.002846122897    -0.754011589269    -0.243591959853    12.000000000000
           C          0.995311706539     0.366631756760    -0.443708161372    12.000000000000
           H         -0.327012366647    -1.084376160427    -1.222046381130     1.007825032070
           H          0.522849486478    -1.567854273890     0.249508204098     1.007825032070
           F          2.001498735816    -0.072972455334    -1.174103136474    18.998403224000
           F          0.465091147939     1.390445358686    -1.068447139545    18.998403224000
           F          1.486022026528     0.798507517181     0.693628641049    18.998403224000

  Nuclear repulsion =  407.778769180012432

  ==> Basis Set <==

  Basis Set: CC-PVTZ
    Number of shells: 110
    Number of basis function: 310
    Number of Cartesian functions: 355
    Spherical Harmonics?: true
    Max angular momentum: 3

  ==> DFJKGrad: Density-Fitted SCF Gradients <==

    Gradient:                    1
    J tasked:                  Yes
    K tasked:                  Yes
    wK tasked:                  No
    OpenMP threads:              4
    Integrals threads:           4
    Memory (MB):              1430
    Schwarz Cutoff:          0E+00
    Fitting Condition:       1E-12

   => Auxiliary Basis Set <=

  Basis Set: 
    Number of shells: 250
    Number of basis function: 782
    Number of Cartesian functions: 943
    Spherical Harmonics?: true
    Max angular momentum: 4


  -Total Gradient:
     Atom            X                  Y                   Z
    ------   -----------------  -----------------  -----------------
       1        0.000003283576     0.000026357508     0.000031200935
       2        0.000028467257    -0.000005374759    -0.000006441446
       3       -0.000051133599    -0.000010301891    -0.000129569164
       4       -0.000006847974    -0.000032808993     0.000009731761
       5        0.000008002297    -0.000040790781     0.000046448792
       6       -0.000005300789     0.000037873092     0.000035459023
       7        0.000046315798     0.000015850689     0.000050833889
       8       -0.000107259126     0.000043051307    -0.000071333390
       9        0.000005923391     0.000013844009     0.000031684151
      10       -0.000010519497     0.000017692652    -0.000026665738
      11        0.000060173048    -0.000017216339    -0.000001159173
      12        0.000019953283    -0.000027308555     0.000035948757
      13        0.000008942323    -0.000020867944    -0.000006138403


*** tstop() called on cx1-27-4-2 at Sat Sep 10 17:19:04 2016
Module time:
	user time   =      24.27 seconds =       0.40 minutes
	system time =       0.53 seconds =       0.01 minutes
	total time  =          7 seconds =       0.12 minutes
Total time:
	user time   =     574.32 seconds =       9.57 minutes
	system time =      14.78 seconds =       0.25 minutes
	total time  =        163 seconds =       2.72 minutes

			-----------------------------------------
			 OPTKING 2.0: for geometry optimizations 
			  - R.A. King,  Bethel University        
			-----------------------------------------

	Previous internal coordinate definitions found.
	---Fragment 1 Geometry and Gradient---
	 H          -7.2529442809       -3.0756226632        3.0960111767
	 C          -6.0096515864       -1.6542084461        2.3686277771
	 C          -3.6726970717       -2.2460256031        1.8003134859
	 H          -6.7058189119        0.2365134185        2.1526463812
	 O          -1.9807930255       -0.5188526521        0.9817638439
	 H          -2.9518248093       -4.1362477928        2.0109737874
	 C           0.0053783928       -1.4248754047       -0.4603220923
	 C           1.8808665422        0.6928336119       -0.8384869079
	 H          -0.6179638150       -2.0491739682       -2.3093329820
	 H           0.9880423382       -2.9628151939        0.4715021737
	 F           3.7822844660       -0.1378979558       -2.2187333797
	 F           0.8788948964        2.6275609307       -2.0190724812
	 F           2.8081746576        1.5089605225        1.3107681695
	             0.0000032836        0.0000263575        0.0000312009
	             0.0000284673       -0.0000053748       -0.0000064414
	            -0.0000511336       -0.0000103019       -0.0001295692
	            -0.0000068480       -0.0000328090        0.0000097318
	             0.0000080023       -0.0000407908        0.0000464488
	            -0.0000053008        0.0000378731        0.0000354590
	             0.0000463158        0.0000158507        0.0000508339
	            -0.0001072591        0.0000430513       -0.0000713334
	             0.0000059234        0.0000138440        0.0000316842
	            -0.0000105195        0.0000176927       -0.0000266657
	             0.0000601730       -0.0000172163       -0.0000011592
	             0.0000199533       -0.0000273086        0.0000359488
	             0.0000089423       -0.0000208679       -0.0000061384

	---Fragment 1 Intrafragment Coordinates---
	 - Coordinate -           - BOHR/RAD -       - ANG/DEG -
	 R(1,2)           =         2.023680	       1.070885
	 R(2,3)           =         2.476809	       1.310671
	 R(2,4)           =         2.026358	       1.072302
	 R(3,5)           =         2.552585	       1.350770
	 R(3,6)           =         2.033955	       1.076323
	 R(5,7)           =         2.616365	       1.384521
	 R(7,8)           =         2.853972	       1.510257
	 R(7,9)           =         2.048694	       1.084122
	 R(7,10)          =         2.049191	       1.084385
	 R(8,11)          =         2.492105	       1.318765
	 R(8,12)          =         2.478084	       1.311345
	 R(8,13)          =         2.478964	       1.311811
	 B(1,2,3)         =         2.087853	     119.625158
	 B(1,2,4)         =         2.074435	     118.856347
	 B(2,3,5)         =         2.138024	     122.499726
	 B(2,3,6)         =         2.132583	     122.188024
	 B(3,2,4)         =         2.120752	     121.510156
	 B(3,5,7)         =         2.032647	     116.462074
	 B(5,3,6)         =         2.012099	     115.284800
	 B(5,7,8)         =         1.891194	     108.357413
	 B(5,7,9)         =         1.951965	     111.839342
	 B(5,7,10)        =         1.953351	     111.918756
	 B(7,8,11)        =         1.904377	     109.112756
	 B(7,8,12)        =         1.957072	     112.131987
	 B(7,8,13)        =         1.955440	     112.038442
	 B(8,7,9)         =         1.882282	     107.846820
	 B(8,7,10)        =         1.877608	     107.579009
	 B(9,7,10)        =         1.904568	     109.123702
	 B(11,8,12)       =         1.880622	     107.751690
	 B(11,8,13)       =         1.880232	     107.729376
	 B(12,8,13)       =         1.883110	     107.894284
	 D(1,2,3,5)       =        -3.089405	    -177.009864
	 D(1,2,3,6)       =         0.017348	       0.993961
	 D(2,3,5,7)       =        -2.710843	    -155.319846
	 D(3,5,7,8)       =        -2.989024	    -171.258451
	*D(3,5,7,9)       =         1.221730	      69.999999
	 D(3,5,7,10)      =        -0.921524	     -52.799413
	 D(4,2,3,5)       =         0.033640	       1.927450
	 D(4,2,3,6)       =         3.140393	     179.931275
	 D(5,7,8,11)      =        -3.137412	    -179.760467
	 D(5,7,8,12)      =        -1.055348	     -60.466981
	 D(5,7,8,13)      =         1.065214	      61.032280
	 D(6,3,5,7)       =         0.463358	      26.548477
	 D(9,7,8,11)      =        -1.021398	     -58.521788
	 D(9,7,8,12)      =         1.060666	      60.771697
	 D(9,7,8,13)      =        -3.101957	    -177.729042
	 D(10,7,8,11)     =         1.030814	      59.061278
	 D(10,7,8,12)     =         3.112878	     178.354764
	 D(10,7,8,13)     =        -1.049745	     -60.145975

	Current energy   :      -527.7418875091

	Energy change for the previous step:
		Projected    :        -0.0000013087
		Actual       :        -0.0000003791

	Performing BFGS update.
	Previous computed or guess Hessian on step 1.
	Steps to be used in Hessian update: 12 11
	Taking RFO optimization step.
	Going to follow RFO solution 1.
	Using RFO vector 1.
	Norm of target step-size    0.00276
	Projected energy change by RFO approximation:        -0.0000002125

	Back-transformation to cartesian coordinates...
	Successfully converged to displaced geometry.

	Back-transformation to cartesian coordinates to adjust frozen coordinates...
	Successfully converged to displaced geometry.

	--- Internal Coordinate Step in ANG or DEG, aJ/ANG or AJ/DEG ---
	 ---------------------------------------------------------------------------
	   Coordinate                Previous        Force       Change         New 
	   ----------                --------       ------       ------       ------
	    1 R(1,2)          =      1.070885     0.000077     0.000026     1.070912
	    2 R(2,3)          =      1.310671     0.000152    -0.000021     1.310650
	    3 R(2,4)          =      1.072302     0.000241     0.000019     1.072322
	    4 R(3,5)          =      1.350770     0.000073     0.000049     1.350819
	    5 R(3,6)          =      1.076323     0.000275     0.000036     1.076358
	    6 R(5,7)          =      1.384521    -0.000016    -0.000008     1.384513
	    7 R(7,8)          =      1.510257     0.000189     0.000050     1.510307
	    8 R(7,9)          =      1.084122     0.000285     0.000051     1.084173
	    9 R(7,10)         =      1.084385     0.000251     0.000062     1.084448
	   10 R(8,11)         =      1.318765    -0.000431    -0.000089     1.318676
	   11 R(8,12)         =      1.311345     0.000383     0.000074     1.311420
	   12 R(8,13)         =      1.311811     0.000073    -0.000013     1.311798
	   13 B(1,2,3)        =    119.625158    -0.000001     0.000317   119.625475
	   14 B(1,2,4)        =    118.856347     0.000002     0.010663   118.867010
	   15 B(2,3,5)        =    122.499726    -0.000002    -0.003455   122.496272
	   16 B(2,3,6)        =    122.188024     0.000001     0.002392   122.190416
	   17 B(3,2,4)        =    121.510156    -0.000001    -0.010354   121.499801
	   18 B(3,5,7)        =    116.462074    -0.000003    -0.002786   116.459289
	   19 B(5,3,6)        =    115.284800     0.000001     0.003773   115.288573
	   20 B(5,7,8)        =    108.357413    -0.000003    -0.005947   108.351466
	   21 B(5,7,9)        =    111.839342     0.000001     0.010239   111.849581
	   22 B(5,7,10)       =    111.918756    -0.000000    -0.004832   111.913924
	   23 B(7,8,11)       =    109.112756    -0.000001    -0.001639   109.111117
	   24 B(7,8,12)       =    112.131987    -0.000001    -0.006866   112.125121
	   25 B(7,8,13)       =    112.038442     0.000002     0.007458   112.045900
	   26 B(8,7,9)        =    107.846820     0.000001     0.005051   107.851871
	   27 B(8,7,10)       =    107.579009     0.000000    -0.003946   107.575062
	   28 B(9,7,10)       =    109.123702    -0.000000    -0.000775   109.122927
	   29 B(11,8,12)      =    107.751690    -0.000000    -0.007649   107.744041
	   30 B(11,8,13)      =    107.729376     0.000002     0.009582   107.738958
	   31 B(12,8,13)      =    107.894284    -0.000000    -0.000791   107.893493
	   32 D(1,2,3,5)      =   -177.009864    -0.000001    -0.089568  -177.099431
	   33 D(1,2,3,6)      =      0.993961     0.000000     0.011579     1.005540
	   34 D(2,3,5,7)      =   -155.319846     0.000001     0.014177  -155.305670
	   35 D(3,5,7,8)      =   -171.258451     0.000000     0.008549  -171.249902
	   36 *D(3,5,7,9)     =     69.999999    -0.000000     0.000000    69.999999
	   37 D(3,5,7,10)     =    -52.799413    -0.000000    -0.002978   -52.802391
	   38 D(4,2,3,5)      =      1.927450    -0.000001    -0.048852     1.878598
	   39 D(4,2,3,6)      =    179.931275     0.000001     0.052295   179.983570
	   40 D(5,7,8,11)     =   -179.760467     0.000000    -0.016176  -179.776642
	   41 D(5,7,8,12)     =    -60.466981    -0.000000    -0.031095   -60.498076
	   42 D(5,7,8,13)     =     61.032280    -0.000000    -0.031687    61.000593
	   43 D(6,3,5,7)      =     26.548477    -0.000001    -0.080479    26.467997
	   44 D(9,7,8,11)     =    -58.521788     0.000000    -0.004361   -58.526149
	   45 D(9,7,8,12)     =     60.771697    -0.000000    -0.019280    60.752417
	   46 D(9,7,8,13)     =   -177.729042    -0.000000    -0.019872  -177.748914
	   47 D(10,7,8,11)    =     59.061278     0.000000    -0.004703    59.056575
	   48 D(10,7,8,12)    =    178.354764    -0.000000    -0.019622   178.335142
	   49 D(10,7,8,13)    =    -60.145975    -0.000000    -0.020214   -60.166190
	 ---------------------------------------------------------------------------
	Successfully symmetrized geometry.

  ==> Convergence Check <==

  Measures of convergence in internal coordinates in au.
  Criteria marked as inactive (o), active & met (*), and active & unmet ( ).
  ---------------------------------------------------------------------------------------------
   Step     Total Energy     Delta E     MAX Force     RMS Force      MAX Disp      RMS Disp   
  ---------------------------------------------------------------------------------------------
    Convergence Criteria    1.00e-06 *    3.00e-04 *             o    1.20e-03 *             o
  ---------------------------------------------------------------------------------------------
     13    -527.74188751   -3.79e-07 *    6.63e-05 *    2.41e-05 o    1.56e-03      3.94e-04 o  ~
  ---------------------------------------------------------------------------------------------


  **** Optimization is complete! (in 13 steps) ****

  ==> Optimization Summary <==

  Measures of convergence in internal coordinates in au.
  --------------------------------------------------------------------------------------------------------------- ~
   Step         Total Energy             Delta E       MAX Force       RMS Force        MAX Disp        RMS Disp  ~
  --------------------------------------------------------------------------------------------------------------- ~
      1    -527.740248755283   -527.740248755283      0.01562324      0.00371424      0.09415606      0.02824166  ~
      2    -527.741527154946     -0.001278399664      0.00433390      0.00164790      0.02582052      0.00905052  ~
      3    -527.741753561052     -0.000226406105      0.00125196      0.00035366      0.02658247      0.00568607  ~
      4    -527.741776198114     -0.000022637062      0.00057312      0.00019139      0.05488177      0.01088626  ~
      5    -527.741803056226     -0.000026858112      0.00059939      0.00020260      0.33887068      0.12718432  ~
      6    -527.619338341571      0.122464714655      0.12148330      0.03910404      0.23507031      0.07882479  ~
      7    -527.727376771364     -0.108038429793      0.05292121      0.01545511      0.09595384      0.03580733  ~
      8    -527.741775816709     -0.014399045345      0.00432842      0.00119680      0.17353054      0.03395768  ~
      9    -527.741783737047     -0.000007920338      0.00533598      0.00110938      0.09215498      0.01772014  ~
     10    -527.741872373741     -0.000088636694      0.00112247      0.00034116      0.06597981      0.01316663  ~
     11    -527.741881291720     -0.000008917979      0.00115512      0.00030739      0.01579393      0.00314305  ~
     12    -527.741887130019     -0.000005838300      0.00021621      0.00006016      0.01221592      0.00230852  ~
     13    -527.741887509124     -0.000000379105      0.00006627      0.00002410      0.00156325      0.00039360  ~
  --------------------------------------------------------------------------------------------------------------- ~

	Writing optimization data to binary file.
	Final energy is   -527.7418875091244
	Final (previous) structure:
	Cartesian Geometry (in Angstrom)
	    H    -3.8380928086  -1.6275494156   1.6383385523
	    C    -3.1801706511  -0.8753694079   1.2534238353
	    C    -1.9435075844  -1.1885455591   0.9526848651
	    H    -3.5485665331   0.1251575106   1.1391314031
	    O    -1.0481905241  -0.2745649981   0.5195270504
	    H    -1.5620384129  -2.1888080611   1.0641614954
	    C     0.0028461229  -0.7540115893  -0.2435919599
	    C     0.9953117065   0.3666317568  -0.4437081614
	    H    -0.3270123666  -1.0843761604  -1.2220463811
	    H     0.5228494865  -1.5678542739   0.2495082041
	    F     2.0014987358  -0.0729724553  -1.1741031365
	    F     0.4650911479   1.3904453587  -1.0684471395
	    F     1.4860220265   0.7985075172   0.6936286410
	Saving final (previous) structure.
			--------------------------
			 OPTKING Finished Execution 
			--------------------------

    Final optimized geometry and variables:
    Molecular point group: c1
    Full point group: C1

    Geometry (in Angstrom), charge = 0, multiplicity = 1:

    H           -3.838092808602    -1.627549415573     1.638338552253
    C           -3.180170651091    -0.875369407943     1.253423835282
    C           -1.943507584379    -1.188545559056     0.952684865062
    H           -3.548566533108     0.125157510603     1.139131403092
    O           -1.048190524052    -0.274564998131     0.519527050392
    H           -1.562038412851    -2.188808061051     1.064161495351
    C            0.002846122897    -0.754011589269    -0.243591959853
    C            0.995311706539     0.366631756760    -0.443708161372
    H           -0.327012366647    -1.084376160427    -1.222046381130
    H            0.522849486478    -1.567854273890     0.249508204098
    F            2.001498735816    -0.072972455334    -1.174103136474
    F            0.465091147939     1.390445358686    -1.068447139545
    F            1.486022026528     0.798507517181     0.693628641049

	Cleaning optimization helper files.


Properties will be evaluated at   0.000000,   0.000000,   0.000000 Bohr

Properties computed using the  density matrix

  Nuclear Dipole Moment: (a.u.)
     X:   -11.9393      Y:    -7.9442      Z:     4.1534

  Electronic Dipole Moment: (a.u.)
     X:    11.5739      Y:     6.8849      Z:    -4.1795

  Dipole Moment: (a.u.)
     X:    -0.3654      Y:    -1.0593      Z:    -0.0262     Total:     1.1208

  Dipole Moment: (Debye)
     X:    -0.9287      Y:    -2.6924      Z:    -0.0665     Total:     2.8489

  Quadrupole Moment: (Debye Ang)
    XX:   -45.4789     YY:   -41.9875     ZZ:   -46.5311
    XY:     0.2380     XZ:    -0.2577     YZ:    -0.7510

  Traceless Quadrupole Moment: (Debye Ang)
    XX:    -0.8131     YY:     2.6783     ZZ:    -1.8652
    XY:     0.2380     XZ:    -0.2577     YZ:    -0.7510

  Mulliken Charges: (a.u.)
   Center  Symbol    Alpha    Beta     Spin     Total
       1     H     0.42494  0.42494  0.00000  0.15011
       2     C     3.18666  3.18666  0.00000 -0.37333
       3     C     2.97044  2.97044  0.00000  0.05913
       4     H     0.42280  0.42280  0.00000  0.15441
       5     O     4.14033  4.14033  0.00000 -0.28067
       6     H     0.43662  0.43662  0.00000  0.12676
       7     C     3.00127  3.00127  0.00000 -0.00254
       8     C     2.67283  2.67283  0.00000  0.65434
       9     H     0.45773  0.45773  0.00000  0.08453
      10     H     0.45970  0.45970  0.00000  0.08059
      11     F     4.61251  4.61251  0.00000 -0.22502
      12     F     4.60689  4.60689  0.00000 -0.21379
      13     F     4.60727  4.60727  0.00000 -0.21453

   Total alpha = 32.00000, Total beta = 32.00000, Total charge =  0.00000


*** Psi4 exiting successfully. Buy a developer a beer!
