    -----------------------------------------------------------------------
          Psi4: An Open-Source Ab Initio Electronic Structure Package
                              Psi4 (no tag) Driver

                          Git: Rev {detached?}  

    J. M. Turney, A. C. Simmonett, R. M. Parrish, E. G. Hohenstein,
    F. A. Evangelista, J. T. Fermann, B. J. Mintz, L. A. Burns, J. J. Wilke,
    M. L. Abrams, N. J. Russ, M. L. Leininger, C. L. Janssen, E. T. Seidl,
    W. D. Allen, H. F. Schaefer, R. A. King, E. F. Valeev, C. D. Sherrill,
    and T. D. Crawford, WIREs Comput. Mol. Sci. 2, 556-565 (2012)
    (doi: 10.1002/wcms.93)

                         Additional Contributions by
    A. E. DePrince, M. Saitow, U. Bozkaya, A. Yu. Sokolov
    -----------------------------------------------------------------------


    Psi4 started on: Fri Sep  2 13:04:40 2016

    Process ID:  28622
    PSI4DATADIR: /export131/home/mjharvey/miniconda3/share
    Memory level set to 256.000 MB

  ==> Input File <==

--------------------------------------------------------------------------
set {
	reference rhf
	basis 6-31G*
}


set_num_threads( 4 )
memory 2 gb

molecule MOL {
0 1

O	 -2.042549	 -1.228399	 -0.269030
C	 -1.653912	 -0.146171	 0.050137
C	 -0.332303	 0.024011	 0.778412
C	 -2.438579	 1.106236	 -0.272369
C	 0.845713	 -0.001731	 -0.208243
H	 -0.323783	 0.953829	 1.340327
H	 -0.235459	 -0.796807	 1.480410
C	 2.200309	 0.136118	 0.488247
H	 0.733710	 0.800019	 -0.936072
H	 0.811185	 -0.933796	 -0.764304
C	 2.090551	 0.077859	 2.011325
H	 2.866342	 -0.651624	 0.142867
H	 2.659624	 1.076924	 0.194167
H	 1.665397	 -0.866680	 2.338651
H	 1.456144	 0.874347	 2.388920
H	 3.064960	 0.181146	 2.478107
H	 -3.277823	 0.863061	 -0.908988
H	 -1.806773	 1.843019	 -0.759671
H	 -2.802853	 1.554979	 0.648059

	symmetry c1
}
set optking {
	frozen_dihedral = ("
		11 8 5 9
	")
}

ee = optimize('scf')
oeprop('DIPOLE', 'QUADRUPOLE', 'MULLIKEN_CHARGES')
f=open( 'psi4out.xyz', 'w' )
f.write( "19  " )
f.write( str(ee) + "\n" )
f.write( MOL.save_string_xyz() )
f.close()
--------------------------------------------------------------------------

  Memory set to   2.000 GiB by Python script.
gradient() will perform analytic gradient computation.

*** tstart() called on cx1-1-3-4.cx1.hpc.ic.ac.uk
*** at Fri Sep  2 13:04:41 2016


         ---------------------------------------------------------
                                   SCF
            by Justin Turney, Rob Parrish, and Andy Simmonett
                              RHF Reference
                        4 Threads,   2000 MiB Core
         ---------------------------------------------------------

  ==> Geometry <==

    Molecular point group: c1
    Full point group: C1

    Geometry (in Angstrom), charge = 0, multiplicity = 1:

       Center              X                  Y                   Z               Mass       
    ------------   -----------------  -----------------  -----------------  -----------------
           O         -1.849912747832    -1.224846896265    -0.644389341746    15.994914619560
           C         -1.461275747832    -0.142618896265    -0.325222341746    12.000000000000
           C         -0.139666747832     0.027563103735     0.403052658254    12.000000000000
           C         -2.245942747832     1.109788103735    -0.647728341746    12.000000000000
           C          1.038349252168     0.001821103735    -0.583602341746    12.000000000000
           H         -0.131146747832     0.957381103735     0.964967658254     1.007825032070
           H         -0.042822747832    -0.793254896265     1.105050658254     1.007825032070
           C          2.392945252168     0.139670103735     0.112887658254    12.000000000000
           H          0.926346252168     0.803571103735    -1.311431341746     1.007825032070
           H          1.003821252168    -0.930243896265    -1.139663341746     1.007825032070
           C          2.283187252168     0.081411103735     1.635965658254    12.000000000000
           H          3.058978252168    -0.648071896265    -0.232492341746     1.007825032070
           H          2.852260252168     1.080476103735    -0.181192341746     1.007825032070
           H          1.858033252168    -0.863127896265     1.963291658254     1.007825032070
           H          1.648780252168     0.877899103735     2.013560658254     1.007825032070
           H          3.257596252168     0.184698103735     2.102747658254     1.007825032070
           H         -3.085186747832     0.866613103735    -1.284347341746     1.007825032070
           H         -1.614136747832     1.846571103735    -1.135030341746     1.007825032070
           H         -2.610216747832     1.558531103735     0.272699658254     1.007825032070

  Running in c1 symmetry.

  Rotational constants: A =      0.18250  B =      0.04084  C =      0.03966 [cm^-1]
  Rotational constants: A =   5471.28883  B =   1224.42891  C =   1188.87662 [MHz]
  Nuclear repulsion =  307.834073697063729

  Charge       = 0
  Multiplicity = 1
  Electrons    = 56
  Nalpha       = 28
  Nbeta        = 28

  ==> Algorithm <==

  SCF Algorithm Type is DF.
  DIIS enabled.
  MOM disabled.
  Fractional occupation disabled.
  Guess Type is CORE.
  Energy threshold   = 1.00e-08
  Density threshold  = 1.00e-08
  Integral threshold = 0.00e+00

  ==> Primary Basis <==

  Basis Set: 6-31G*
    Number of shells: 66
    Number of basis function: 129
    Number of Cartesian functions: 129
    Spherical Harmonics?: false
    Max angular momentum: 2

  ==> Pre-Iterations <==

   -------------------------------------------------------
    Irrep   Nso     Nmo     Nalpha   Nbeta   Ndocc  Nsocc
   -------------------------------------------------------
     A        129     129       0       0       0       0
   -------------------------------------------------------
    Total     129     129      28      28      28       0
   -------------------------------------------------------

 OEINTS: Overlap, kinetic, potential, dipole, and quadrupole integrals
         stored in file 35.

  ==> Integral Setup <==

  ==> DFJK: Density-Fitted J/K Matrices <==

    J tasked:                  Yes
    K tasked:                  Yes
    wK tasked:                  No
    OpenMP threads:              4
    Integrals threads:           4
    Memory (MB):              1430
    Algorithm:                Core
    Integral Cache:           NONE
    Schwarz Cutoff:          1E-12
    Fitting Condition:       1E-12

   => Auxiliary Basis Set <=

  Basis Set: 
    Number of shells: 276
    Number of basis function: 867
    Number of Cartesian functions: 867
    Spherical Harmonics?: false
    Max angular momentum: 3

  Minimum eigenvalue in the overlap matrix is 3.0074768176E-03.
  Using Symmetric Orthogonalization.
  SCF Guess: Core (One-Electron) Hamiltonian.

  ==> Iterations <==

                           Total Energy        Delta E     RMS |[F,P]|

   @DF-RHF iter   1:  -238.80018222291193   -2.38800e+02   6.72491e-02 
   @DF-RHF iter   2:  -209.49298735952681    2.93072e+01   5.37029e-02 DIIS
   @DF-RHF iter   3:  -259.07175727571581   -4.95788e+01   5.36604e-02 DIIS
   @DF-RHF iter   4:  -298.60029515642810   -3.95285e+01   2.62575e-02 DIIS
   @DF-RHF iter   5:  -306.29225405850042   -7.69196e+00   1.56013e-02 DIIS
   @DF-RHF iter   6:  -308.94118758328347   -2.64893e+00   3.38672e-03 DIIS
   @DF-RHF iter   7:  -309.03369641638557   -9.25088e-02   1.30294e-03 DIIS
   @DF-RHF iter   8:  -309.04783826974250   -1.41419e-02   5.22417e-04 DIIS
   @DF-RHF iter   9:  -309.05098389920778   -3.14563e-03   1.33532e-04 DIIS
   @DF-RHF iter  10:  -309.05116295679005   -1.79058e-04   7.22127e-05 DIIS
   @DF-RHF iter  11:  -309.05120832108474   -4.53643e-05   1.53356e-05 DIIS
   @DF-RHF iter  12:  -309.05121312473335   -4.80365e-06   5.56226e-06 DIIS
   @DF-RHF iter  13:  -309.05121367529142   -5.50558e-07   2.18017e-06 DIIS
   @DF-RHF iter  14:  -309.05121381957832   -1.44287e-07   8.59133e-07 DIIS
   @DF-RHF iter  15:  -309.05121385455772   -3.49794e-08   3.18237e-07 DIIS
   @DF-RHF iter  16:  -309.05121386018465   -5.62693e-09   1.16377e-07 DIIS
   @DF-RHF iter  17:  -309.05121386080788   -6.23231e-10   4.67331e-08 DIIS
   @DF-RHF iter  18:  -309.05121386088359   -7.57154e-11   1.66377e-08 DIIS
   @DF-RHF iter  19:  -309.05121386089041   -6.82121e-12   4.70880e-09 DIIS

  ==> Post-Iterations <==

    Orbital Energies (a.u.)
    -----------------------

    Doubly Occupied:                                                      

       1A    -20.546300     2A    -11.323251     3A    -11.229028  
       4A    -11.227750     5A    -11.227599     6A    -11.223376  
       7A    -11.214898     8A     -1.392162     9A     -1.095502  
      10A     -1.025315    11A     -0.977229    12A     -0.906730  
      13A     -0.793403    14A     -0.733482    15A     -0.665959  
      16A     -0.654257    17A     -0.620929    18A     -0.604018  
      19A     -0.584894    20A     -0.566556    21A     -0.555833  
      22A     -0.542576    23A     -0.526668    24A     -0.503631  
      25A     -0.480927    26A     -0.463348    27A     -0.455773  
      28A     -0.396795  

    Virtual:                                                              

      29A      0.170713    30A      0.214079    31A      0.247036  
      32A      0.257376    33A      0.268503    34A      0.285931  
      35A      0.297864    36A      0.308908    37A      0.318853  
      38A      0.342902    39A      0.357919    40A      0.366923  
      41A      0.374487    42A      0.404408    43A      0.428709  
      44A      0.442871    45A      0.480060    46A      0.509367  
      47A      0.525961    48A      0.713097    49A      0.719493  
      50A      0.735388    51A      0.749440    52A      0.772154  
      53A      0.810673    54A      0.817603    55A      0.828838  
      56A      0.849820    57A      0.902827    58A      0.924738  
      59A      0.951289    60A      0.977997    61A      0.984895  
      62A      0.991122    63A      1.051906    64A      1.095907  
      65A      1.124026    66A      1.125611    67A      1.139134  
      68A      1.150026    69A      1.160758    70A      1.175108  
      71A      1.181478    72A      1.191182    73A      1.201124  
      74A      1.207264    75A      1.220484    76A      1.234779  
      77A      1.261870    78A      1.298370    79A      1.343820  
      80A      1.373266    81A      1.404607    82A      1.429962  
      83A      1.514338    84A      1.662222    85A      1.688867  
      86A      1.701726    87A      1.736811    88A      1.793185  
      89A      1.859131    90A      1.936153    91A      2.021364  
      92A      2.077979    93A      2.091536    94A      2.117046  
      95A      2.137716    96A      2.173472    97A      2.193800  
      98A      2.243780    99A      2.255409   100A      2.261907  
     101A      2.303213   102A      2.358814   103A      2.370488  
     104A      2.440118   105A      2.504394   106A      2.506979  
     107A      2.529079   108A      2.585942   109A      2.621408  
     110A      2.691339   111A      2.709271   112A      2.740823  
     113A      2.749988   114A      2.808657   115A      2.848348  
     116A      2.928756   117A      2.983968   118A      3.035436  
     119A      3.086825   120A      3.159816   121A      3.377815  
     122A      3.379624   123A      4.461674   124A      4.535205  
     125A      4.608588   126A      4.720359   127A      4.794495  
     128A      4.908904   129A      5.066304  

    Final Occupation by Irrep:
              A 
    DOCC [    28 ]

  Energy converged.

  @DF-RHF Final Energy:  -309.05121386089041

   => Energetics <=

    Nuclear Repulsion Energy =            307.8340736970637295
    One-Electron Energy =               -1028.6941953196201212
    Two-Electron Energy =                 411.8089077616658642
    DFT Exchange-Correlation Energy =       0.0000000000000000
    Empirical Dispersion Energy =           0.0000000000000000
    PCM Polarization Energy =               0.0000000000000000
    EFP Energy =                            0.0000000000000000
    Total Energy =                       -309.0512138608904706

    Alert: EFP and PCM quantities not currently incorporated into SCF psivars.

Properties will be evaluated at   0.000000,   0.000000,   0.000000 Bohr
  ==> Properties <==


Properties computed using the SCF density matrix

  Nuclear Dipole Moment: (a.u.)
     X:     6.6681      Y:     4.6262      Z:     2.9388

  Electronic Dipole Moment: (a.u.)
     X:    -6.1330      Y:    -3.5744      Z:    -2.6360

  Dipole Moment: (a.u.)
     X:     0.5351      Y:     1.0518      Z:     0.3028     Total:     1.2184

  Dipole Moment: (Debye)
     X:     1.3601      Y:     2.6735      Z:     0.7698     Total:     3.0967


  Saving occupied orbitals to File 180.

*** tstop() called on cx1-1-3-4.cx1.hpc.ic.ac.uk at Fri Sep  2 13:04:48 2016
Module time:
	user time   =      20.79 seconds =       0.35 minutes
	system time =       0.23 seconds =       0.00 minutes
	total time  =          7 seconds =       0.12 minutes
Total time:
	user time   =      20.79 seconds =       0.35 minutes
	system time =       0.23 seconds =       0.00 minutes
	total time  =          7 seconds =       0.12 minutes

*** tstart() called on cx1-1-3-4.cx1.hpc.ic.ac.uk
*** at Fri Sep  2 13:04:48 2016


         ------------------------------------------------------------
                                   SCF GRAD                          
                          Rob Parrish, Justin Turney,                
                       Andy Simmonett, and Alex Sokolov              
         ------------------------------------------------------------

  ==> Geometry <==

    Molecular point group: c1
    Full point group: C1

    Geometry (in Angstrom), charge = 0, multiplicity = 1:

       Center              X                  Y                   Z               Mass       
    ------------   -----------------  -----------------  -----------------  -----------------
           O         -1.849912747832    -1.224846896265    -0.644389341746    15.994914619560
           C         -1.461275747832    -0.142618896265    -0.325222341746    12.000000000000
           C         -0.139666747832     0.027563103735     0.403052658254    12.000000000000
           C         -2.245942747832     1.109788103735    -0.647728341746    12.000000000000
           C          1.038349252168     0.001821103735    -0.583602341746    12.000000000000
           H         -0.131146747832     0.957381103735     0.964967658254     1.007825032070
           H         -0.042822747832    -0.793254896265     1.105050658254     1.007825032070
           C          2.392945252168     0.139670103735     0.112887658254    12.000000000000
           H          0.926346252168     0.803571103735    -1.311431341746     1.007825032070
           H          1.003821252168    -0.930243896265    -1.139663341746     1.007825032070
           C          2.283187252168     0.081411103735     1.635965658254    12.000000000000
           H          3.058978252168    -0.648071896265    -0.232492341746     1.007825032070
           H          2.852260252168     1.080476103735    -0.181192341746     1.007825032070
           H          1.858033252168    -0.863127896265     1.963291658254     1.007825032070
           H          1.648780252168     0.877899103735     2.013560658254     1.007825032070
           H          3.257596252168     0.184698103735     2.102747658254     1.007825032070
           H         -3.085186747832     0.866613103735    -1.284347341746     1.007825032070
           H         -1.614136747832     1.846571103735    -1.135030341746     1.007825032070
           H         -2.610216747832     1.558531103735     0.272699658254     1.007825032070

  Nuclear repulsion =  307.834073697063729

  ==> Basis Set <==

  Basis Set: 6-31G*
    Number of shells: 66
    Number of basis function: 129
    Number of Cartesian functions: 129
    Spherical Harmonics?: false
    Max angular momentum: 2

  ==> DFJKGrad: Density-Fitted SCF Gradients <==

    Gradient:                    1
    J tasked:                  Yes
    K tasked:                  Yes
    wK tasked:                  No
    OpenMP threads:              4
    Integrals threads:           4
    Memory (MB):              1430
    Schwarz Cutoff:          0E+00
    Fitting Condition:       1E-12

   => Auxiliary Basis Set <=

  Basis Set: 
    Number of shells: 276
    Number of basis function: 867
    Number of Cartesian functions: 867
    Spherical Harmonics?: false
    Max angular momentum: 3


  -Total Gradient:
     Atom            X                  Y                   Z
    ------   -----------------  -----------------  -----------------
       1        0.000440773916     0.000495438083     0.000007978308
       2       -0.001389041063    -0.000532683757     0.000541658338
       3        0.008206624835     0.000018468163     0.003841270435
       4        0.000178431858     0.000083855998    -0.000072535650
       5        0.006800237286     0.001892239131     0.006079092900
       6        0.003189690268     0.001579377630     0.002217464979
       7        0.003653095964    -0.001990613437     0.002776252109
       8       -0.007493139565    -0.001797516674    -0.004238299857
       9        0.001818341071     0.002162025872    -0.000081749670
      10        0.002628477211    -0.001145953652    -0.000582299721
      11       -0.008498394988     0.000181504548    -0.004573179433
      12       -0.000026310020    -0.002138225794    -0.001208472730
      13       -0.001042406017     0.001126236748    -0.002360674624
      14       -0.003473075586    -0.001552982758    -0.001158253508
      15       -0.004643283861     0.001660224245    -0.001667385928
      16       -0.000413194137     0.000027889673     0.000446621788
      17        0.000046845897    -0.000056259340     0.000012684404
      18       -0.000033492505     0.000019446483     0.000014475735
      19        0.000049819437    -0.000032471164     0.000005352123


*** tstop() called on cx1-1-3-4.cx1.hpc.ic.ac.uk at Fri Sep  2 13:04:54 2016
Module time:
	user time   =      21.98 seconds =       0.37 minutes
	system time =       0.28 seconds =       0.00 minutes
	total time  =          6 seconds =       0.10 minutes
Total time:
	user time   =      42.80 seconds =       0.71 minutes
	system time =       0.52 seconds =       0.01 minutes
	total time  =         13 seconds =       0.22 minutes
CURRENT ENERGY: -309.0512138609

			-----------------------------------------
			 OPTKING 2.0: for geometry optimizations 
			  - R.A. King,  Bethel University        
			-----------------------------------------

	Internal coordinates to be generated automatically.
	Detected frag with atoms:  1 2 3 4 5 6 7 8 9 10 11 12 13 14 15 16 17 18 19
	---Fragment 1 Bond Connectivity---
	 1 : 2
	 2 : 1 3 4
	 3 : 2 5 6 7
	 4 : 2 17 18 19
	 5 : 3 8 9 10
	 6 : 3
	 7 : 3
	 8 : 5 11 12 13
	 9 : 5
	 10 : 5
	 11 : 8 14 15 16
	 12 : 8
	 13 : 8
	 14 : 11
	 15 : 11
	 16 : 11
	 17 : 4
	 18 : 4
	 19 : 4

	Assuming in current code that numbering for constraints corresponds to unified fragment.
	Frozen dihedral atom list: 
	    11     8     5     9
	---Fragment 1 Geometry and Gradient---
	 O          -3.4958284631       -2.3146251887       -1.2177193789
	 C          -2.7614109680       -0.2695106553       -0.6145811582
	 C          -0.2639319033        0.0520867174        0.7616591412
	 C          -4.2442167035        2.0971955816       -1.2240291744
	 C           1.9621957169        0.0034413873       -1.1028485964
	 H          -0.2478314366        1.8091880909        1.8235246012
	 H          -0.0809232657       -1.4990345075        2.0882431071
	 C           4.5220111776        0.2639382450        0.2133267579
	 H           1.7505407208        1.5185293144       -2.4782460780
	 H           1.8969472530       -1.7579062007       -2.1536515996
	 C           4.3145986167        0.1538446902        3.0915270569
	 H           5.7806311431       -1.2246783984       -0.4393468539
	 H           5.3899907363        2.0418039292       -0.3424039033
	 H           3.5111739924       -1.6310753416        3.7100835531
	 H           3.1157431299        1.6589888784        3.8050781961
	 H           6.1559647681        0.3490288333        3.9736172007
	 H          -5.8301580222        1.6376614292       -2.4270647354
	 H          -3.0502763944        3.4895136710       -2.1448964984
	 H          -4.9325948009        2.9451969556        0.5153276706
	             0.0004407739        0.0004954381        0.0000079783
	            -0.0013890411       -0.0005326838        0.0005416583
	             0.0082066248        0.0000184682        0.0038412704
	             0.0001784319        0.0000838560       -0.0000725356
	             0.0068002373        0.0018922391        0.0060790929
	             0.0031896903        0.0015793776        0.0022174650
	             0.0036530960       -0.0019906134        0.0027762521
	            -0.0074931396       -0.0017975167       -0.0042382999
	             0.0018183411        0.0021620259       -0.0000817497
	             0.0026284772       -0.0011459537       -0.0005822997
	            -0.0084983950        0.0001815045       -0.0045731794
	            -0.0000263100       -0.0021382258       -0.0012084727
	            -0.0010424060        0.0011262367       -0.0023606746
	            -0.0034730756       -0.0015529828       -0.0011582535
	            -0.0046432839        0.0016602242       -0.0016673859
	            -0.0004131941        0.0000278897        0.0004466218
	             0.0000468459       -0.0000562593        0.0000126844
	            -0.0000334925        0.0000194465        0.0000144757
	             0.0000498194       -0.0000324712        0.0000053521

	Previous optimization step data not found.  Starting new optimization.

	---Fragment 1 Intrafragment Coordinates---
	 - Coordinate -           - BOHR/RAD -       - ANG/DEG -
	 R(1,2)           =         2.255136	       1.193367
	 R(2,3)           =         2.869645	       1.518551
	 R(2,4)           =         2.858573	       1.512692
	 R(3,5)           =         2.904204	       1.536839
	 R(3,6)           =         2.053101	       1.086454
	 R(3,7)           =         2.049218	       1.084400
	 R(4,17)          =         2.042958	       1.081087
	 R(4,18)          =         2.052325	       1.086044
	 R(4,19)          =         2.053858	       1.086855
	 R(5,8)           =         2.890127	       1.529389
	 R(5,9)           =         2.057184	       1.088615
	 R(5,10)          =         2.052021	       1.085883
	 R(8,11)          =         2.887763	       1.528139
	 R(8,12)          =         2.055745	       1.087853
	 R(8,13)          =         2.055002	       1.087460
	 R(11,14)         =         2.052813	       1.086302
	 R(11,15)         =         2.052284	       1.086022
	 R(11,16)         =         2.051051	       1.085369
	 B(1,2,3)         =         2.109852	     120.885632
	 B(1,2,4)         =         2.123367	     121.659979
	 B(2,3,5)         =         1.936211	     110.936693
	 B(2,3,6)         =         1.929199	     110.534943
	 B(2,3,7)         =         1.879014	     107.659575
	 B(2,4,17)        =         1.919838	     109.998643
	 B(2,4,18)        =         1.934323	     110.828559
	 B(2,4,19)        =         1.912552	     109.581178
	 B(3,2,4)         =         2.049818	     117.445927
	 B(3,5,8)         =         1.966040	     112.645819
	 B(3,5,9)         =         1.915621	     109.757018
	 B(3,5,10)        =         1.895220	     108.588096
	 B(5,3,6)         =         1.918105	     109.899331
	 B(5,3,7)         =         1.911843	     109.540555
	 B(5,8,11)        =         1.968003	     112.758256
	 B(5,8,12)        =         1.909664	     109.415667
	 B(5,8,13)        =         1.905961	     109.203548
	 B(6,3,7)         =         1.888398	     108.197214
	 B(8,5,9)         =         1.906274	     109.221452
	 B(8,5,10)        =         1.916366	     109.799707
	 B(8,11,14)       =         1.940762	     111.197443
	 B(8,11,15)       =         1.939634	     111.132847
	 B(8,11,16)       =         1.939636	     111.132958
	 B(9,5,10)        =         1.861390	     106.649773
	 B(11,8,12)       =         1.910072	     109.439050
	 B(11,8,13)       =         1.910123	     109.441998
	 B(12,8,13)       =         1.856691	     106.380565
	 B(14,11,15)      =         1.879999	     107.716025
	 B(14,11,16)      =         1.880232	     107.729373
	 B(15,11,16)      =         1.880856	     107.765125
	 B(17,4,18)       =         1.917699	     109.876061
	 B(17,4,19)       =         1.908566	     109.352762
	 B(18,4,19)       =         1.870111	     107.149457
	 D(1,2,3,5)       =         1.419639	      81.339340
	 D(1,2,3,6)       =        -2.731233	    -156.488130
	 D(1,2,3,7)       =        -0.672026	     -38.504249
	 D(1,2,4,17)      =        -0.123096	      -7.052904
	 D(1,2,4,18)      =        -2.247263	    -128.758683
	 D(1,2,4,19)      =         1.975639	     113.195760
	 D(2,3,5,8)       =        -3.119694	    -178.745300
	 D(2,3,5,9)       =         1.035412	      59.324765
	 D(2,3,5,10)      =        -0.993200	     -56.906146
	 D(3,2,4,17)      =         3.000178	     171.897516
	 D(3,2,4,18)      =         0.876011	      50.191737
	 D(3,2,4,19)      =        -1.184273	     -67.853820
	 D(3,5,8,11)      =         0.135572	       7.767675
	 D(3,5,8,12)      =         2.265585	     129.808468
	 D(3,5,8,13)      =        -1.991868	    -114.125609
	 D(4,2,3,5)       =        -1.703785	     -97.619661
	 D(4,2,3,6)       =         0.428528	      24.552869
	 D(4,2,3,7)       =         2.487736	     142.536749
	 D(5,8,11,14)     =         1.050157	      60.169557
	 D(5,8,11,15)     =        -1.044030	     -59.818495
	 D(5,8,11,16)     =        -3.138546	    -179.825434
	 D(6,3,5,8)       =         1.024730	      58.712715
	 D(6,3,5,9)       =        -1.103349	     -63.217220
	 D(6,3,5,10)      =        -3.131961	    -179.448132
	 D(7,3,5,8)       =        -1.047735	     -60.030774
	 D(7,3,5,9)       =         3.107372	     178.039291
	 D(7,3,5,10)      =         1.078760	      61.808379
	*D(9,5,8,11)      =         2.268928	     129.999987
	 D(9,5,8,12)      =        -1.884244	    -107.959221
	 D(9,5,8,13)      =         0.141489	       8.106702
	 D(10,5,8,11)     =        -1.978907	    -113.383037
	 D(10,5,8,12)     =         0.151106	       8.657756
	 D(10,5,8,13)     =         2.176839	     124.723679
	 D(12,8,11,14)    =        -1.079627	     -61.858055
	 D(12,8,11,15)    =         3.109372	     178.153893
	 D(12,8,11,16)    =         1.014856	      58.146954
	 D(13,8,11,14)    =        -3.107940	    -178.071872
	 D(13,8,11,15)    =         1.081058	      61.940076
	 D(13,8,11,16)    =        -1.013458	     -58.066863

	Current energy   :      -309.0512138609

	Generating empirical Hessian (Schlegel '84) for each fragment.
	Taking RFO optimization step.
	Going to follow RFO solution 1.
	Using RFO vector 1.
	Norm of target step-size    0.34502
	Projected energy change by RFO approximation:        -0.0191444519

	Back-transformation to cartesian coordinates...
	Successfully converged to displaced geometry.

	Back-transformation to cartesian coordinates to adjust frozen coordinates...
	Successfully converged to displaced geometry.

	--- Internal Coordinate Step in ANG or DEG, aJ/ANG or AJ/DEG ---
	 ---------------------------------------------------------------------------
	   Coordinate                Previous        Force       Change         New 
	   ----------                --------       ------       ------       ------
	    1 R(1,2)          =      1.193367     0.004902     0.000285     1.193652
	    2 R(2,3)          =      1.518551    -0.003074    -0.000602     1.517949
	    3 R(2,4)          =      1.512692     0.000863     0.000166     1.512858
	    4 R(3,5)          =      1.536839     0.041208     0.008512     1.545350
	    5 R(3,6)          =      1.086454    -0.020791    -0.003559     1.082895
	    6 R(3,7)          =      1.084400    -0.029909    -0.005087     1.079312
	    7 R(4,17)         =      1.081087     0.000257     0.000043     1.081130
	    8 R(4,18)         =      1.086044     0.000105     0.000018     1.086062
	    9 R(4,19)         =      1.086855     0.000211     0.000036     1.086891
	   10 R(5,8)          =      1.529389     0.243960     0.049315     1.578705
	   11 R(5,9)          =      1.088615    -0.012028    -0.002073     1.086542
	   12 R(5,10)         =      1.085883    -0.009872    -0.001687     1.084196
	   13 R(8,11)         =      1.528139     0.047111     0.009489     1.537627
	   14 R(8,12)         =      1.087853    -0.015785    -0.002714     1.085139
	   15 R(8,13)         =      1.087460    -0.009660    -0.001659     1.085801
	   16 R(11,14)        =      1.086302    -0.019448    -0.003328     1.082974
	   17 R(11,15)        =      1.086022    -0.027602    -0.004719     1.081303
	   18 R(11,16)        =      1.085369     0.001452     0.000248     1.085617
	   19 B(1,2,3)        =    120.885632     0.000010     0.027551   120.913183
	   20 B(1,2,4)        =    121.659979    -0.000018    -0.047422   121.612557
	   21 B(2,3,5)        =    110.936693    -0.000270    -1.031753   109.904940
	   22 B(2,3,6)        =    110.534943    -0.000066    -0.922545   109.612397
	   23 B(2,3,7)        =    107.659575    -0.000081    -0.887599   106.771976
	   24 B(2,4,17)       =    109.998643     0.000007     0.029476   110.028118
	   25 B(2,4,18)       =    110.828559    -0.000006    -0.027890   110.800669
	   26 B(2,4,19)       =    109.581178     0.000005     0.022485   109.603663
	   27 B(3,2,4)        =    117.445927     0.000008     0.023748   117.469675
	   28 B(3,5,8)        =    112.645819     0.002763     9.125159   121.770977
	   29 B(3,5,9)        =    109.757018    -0.001117    -4.486062   105.270956
	   30 B(3,5,10)       =    108.588096    -0.000896    -2.684880   105.903216
	   31 B(5,3,6)        =    109.899331     0.000196     0.981767   110.881098
	   32 B(5,3,7)        =    109.540555     0.000233     1.300462   110.841017
	   33 B(5,8,11)       =    112.758256     0.002982    10.000966   122.759222
	   34 B(5,8,12)       =    109.415667    -0.000852    -1.958253   107.457414
	   35 B(5,8,13)       =    109.203548    -0.000764    -1.602658   107.600890
	   36 B(6,3,7)        =    108.197214    -0.000007     0.534725   108.731939
	   37 B(8,5,9)        =    109.221452    -0.000683    -1.459986   107.761466
	   38 B(8,5,10)       =    109.799707    -0.000668    -0.814937   108.984770
	   39 B(8,11,14)      =    111.197443     0.000192     0.967030   112.164473
	   40 B(8,11,15)      =    111.132847     0.000320     1.558605   112.691452
	   41 B(8,11,16)      =    111.132958    -0.000215    -1.338910   109.794049
	   42 B(9,5,10)       =    106.649773     0.000479    -0.493666   106.156107
	   43 B(11,8,12)      =    109.439050    -0.000903    -2.671263   106.767787
	   44 B(11,8,13)      =    109.441998    -0.001037    -3.472619   105.969379
	   45 B(12,8,13)      =    106.380565     0.000428    -1.367207   105.013358
	   46 B(14,11,15)     =    107.716025    -0.000078     0.504490   108.220516
	   47 B(14,11,16)     =    107.729373    -0.000097    -0.886948   106.842426
	   48 B(15,11,16)     =    107.765125    -0.000140    -0.940852   106.824273
	   49 B(17,4,18)      =    109.876061    -0.000001    -0.008341   109.867721
	   50 B(17,4,19)      =    109.352762    -0.000005    -0.017617   109.335145
	   51 B(18,4,19)      =    107.149457     0.000000     0.001068   107.150525
	   52 D(1,2,3,5)      =     81.339340     0.000006     0.382519    81.721859
	   53 D(1,2,3,6)      =   -156.488130     0.000010     0.313230  -156.174900
	   54 D(1,2,3,7)      =    -38.504249    -0.000011    -0.060192   -38.564441
	   55 D(1,2,4,17)     =     -7.052904    -0.000001    -0.148351    -7.201255
	   56 D(1,2,4,18)     =   -128.758683    -0.000001    -0.139167  -128.897850
	   57 D(1,2,4,19)     =    113.195760    -0.000001    -0.137533   113.058226
	   58 D(2,3,5,8)      =   -178.745300    -0.000009    -0.746914  -179.492214
	   59 D(2,3,5,9)      =     59.324765    -0.000058    -1.571775    57.752990
	   60 D(2,3,5,10)     =    -56.906146     0.000068     2.467318   -54.438828
	   61 D(3,2,4,17)     =    171.897516     0.000001     0.128830   172.026347
	   62 D(3,2,4,18)     =     50.191737     0.000001     0.138015    50.329751
	   63 D(3,2,4,19)     =    -67.853820     0.000001     0.139648   -67.714172
	   64 D(3,5,8,11)     =      7.767675     0.000011     0.651830     8.419505
	   65 D(3,5,8,12)     =    129.808468     0.000070     2.803391   132.611859
	   66 D(3,5,8,13)     =   -114.125609    -0.000020    -0.640299  -114.765908
	   67 D(4,2,3,5)      =    -97.619661     0.000004     0.108216   -97.511446
	   68 D(4,2,3,6)      =     24.552869     0.000008     0.038926    24.591795
	   69 D(4,2,3,7)      =    142.536749    -0.000013    -0.334495   142.202254
	   70 D(5,8,11,14)    =     60.169557     0.000027     1.221001    61.390558
	   71 D(5,8,11,15)    =    -59.818495    -0.000029    -1.222036   -61.040531
	   72 D(5,8,11,16)    =   -179.825434    -0.000004    -0.156107  -179.981540
	   73 D(6,3,5,8)      =     58.712715     0.000021     0.448821    59.161536
	   74 D(6,3,5,9)      =    -63.217220    -0.000028    -0.376040   -63.593260
	   75 D(6,3,5,10)     =   -179.448132     0.000098     3.663054  -175.785078
	   76 D(7,3,5,8)      =    -60.030774    -0.000037    -1.671814   -61.702588
	   77 D(7,3,5,9)      =    178.039291    -0.000086    -2.496676   175.542615
	   78 D(7,3,5,10)     =     61.808379     0.000041     1.542418    63.350797
	   79 *D(9,5,8,11)    =    129.999987     0.000000     0.000000   129.999987
	   80 D(9,5,8,12)     =   -107.959221     0.000059     2.151561  -105.807660
	   81 D(9,5,8,13)     =      8.106702    -0.000031    -1.292129     6.814574
	   82 D(10,5,8,11)    =   -113.383037    -0.000045    -1.833477  -115.216513
	   83 D(10,5,8,12)    =      8.657756     0.000014     0.318085     8.975840
	   84 D(10,5,8,13)    =    124.723679    -0.000077    -3.125605   121.598074
	   85 D(12,8,11,14)   =    -61.858055    -0.000039    -1.254442   -63.112497
	   86 D(12,8,11,15)   =    178.153893    -0.000095    -3.697478   174.456414
	   87 D(12,8,11,16)   =     58.146954    -0.000070    -2.631549    55.515405
	   88 D(13,8,11,14)   =   -178.071872     0.000096     3.389808  -174.682064
	   89 D(13,8,11,15)   =     61.940076     0.000040     0.946772    62.886847
	   90 D(13,8,11,16)   =    -58.066863     0.000064     2.012701   -56.054162
	 ---------------------------------------------------------------------------

  ==> Convergence Check <==

  Measures of convergence in internal coordinates in au.
  Criteria marked as inactive (o), active & met (*), and active & unmet ( ).
  --------------------------------------------------------------------------------------------- ~
   Step     Total Energy     Delta E     MAX Force     RMS Force      MAX Disp      RMS Disp    ~
  --------------------------------------------------------------------------------------------- ~
    Convergence Criteria    1.00e-06 *    3.00e-04 *             o    1.20e-03 *             o  ~
  --------------------------------------------------------------------------------------------- ~
      1    -309.05121386   -3.09e+02      3.92e-02      7.67e-03 o    1.75e-01      3.63e-02 o  ~
  ---------------------------------------------------------------------------------------------

	Writing optimization data to binary file.
	Structure for next step:
	Cartesian Geometry (in Angstrom)
	    O    -1.9235019321  -1.2106197020  -0.8268733989
	    C    -1.5717208832  -0.1390936607  -0.4358670209
	    C    -0.3417996729   0.0055147435   0.4419435166
	    C    -2.3170895736   1.1241905209  -0.8063761911
	    C     0.9318666316   0.0078729043  -0.4332000991
	    H    -0.4138258473   0.9176567107   1.0211420241
	    H    -0.3413373713  -0.8354969109   1.1184155036
	    C     2.3736545977   0.1325450304   0.1976821733
	    H     0.8009951592   0.8339424821  -1.1267819446
	    H     0.8845993478  -0.8966910351  -1.0290276328
	    C     2.6270458260   0.0699871257   1.7129963225
	    H     2.9946081474  -0.6333695865  -0.2554391359
	    H     2.7984896151   1.0738460043  -0.1376267237
	    H     2.3222578102  -0.8776920916   2.1394255799
	    H     2.1247797245   0.8608341545   2.2529094287
	    H     3.6885992624   0.1780206708   1.9129901191
	    H    -3.0800854811   0.9023989434  -1.5395117483
	    H    -1.6353789701   1.8733722922  -1.1982025290
	    H    -2.7821660537   1.5466117519   0.0805264991
			--------------------------
			 OPTKING Finished Execution 
			--------------------------

    Structure for next step:
    Molecular point group: c1
    Full point group: C1

    Geometry (in Angstrom), charge = 0, multiplicity = 1:

    O           -1.894291465811    -1.210924909451    -0.808535007384
    C           -1.542510443821    -0.139398950042    -0.417528659241
    C           -0.312589327459     0.005209443180     0.460281811174
    C           -2.287879077321     1.123885135151    -0.788037801134
    C            0.961076879785     0.007567603777    -0.414861737671
    H           -0.384615496297     0.917351340666     1.039480274493
    H           -0.312127025841    -0.835802147069     1.136753746517
    C            2.402864735769     0.132239720383     0.216020486569
    H            0.830205417373     0.833637118490    -1.108443530202
    H            0.913809599572    -0.896996266532    -1.010689225879
    C            2.656255944795     0.069681820408     1.731334520054
    H            3.023818238061    -0.633674838058    -0.237100788072
    H            2.827699720733     1.073540622363    -0.119288384824
    H            2.351467952252    -0.877997324523     2.157763744841
    H            2.153989881617     0.860528788801     2.271247585045
    H            3.717809300049     0.177715357307     1.931328301312
    H           -3.050874926562     0.902093574534    -1.521173302430
    H           -1.606168525842     1.873066849222    -1.179864109188
    H           -2.752955521863     1.546306333846     0.098864821273

gradient() will perform analytic gradient computation.

*** tstart() called on cx1-1-3-4.cx1.hpc.ic.ac.uk
*** at Fri Sep  2 13:04:56 2016


         ---------------------------------------------------------
                                   SCF
            by Justin Turney, Rob Parrish, and Andy Simmonett
                              RHF Reference
                        4 Threads,   2000 MiB Core
         ---------------------------------------------------------

  ==> Geometry <==

    Molecular point group: c1
    Full point group: C1

    Geometry (in Angstrom), charge = 0, multiplicity = 1:

       Center              X                  Y                   Z               Mass       
    ------------   -----------------  -----------------  -----------------  -----------------
           O         -1.894291465811    -1.210924909451    -0.808535007384    15.994914619560
           C         -1.542510443821    -0.139398950042    -0.417528659241    12.000000000000
           C         -0.312589327459     0.005209443180     0.460281811174    12.000000000000
           C         -2.287879077321     1.123885135151    -0.788037801134    12.000000000000
           C          0.961076879785     0.007567603777    -0.414861737671    12.000000000000
           H         -0.384615496297     0.917351340666     1.039480274493     1.007825032070
           H         -0.312127025841    -0.835802147069     1.136753746517     1.007825032070
           C          2.402864735769     0.132239720383     0.216020486569    12.000000000000
           H          0.830205417373     0.833637118490    -1.108443530202     1.007825032070
           H          0.913809599572    -0.896996266532    -1.010689225879     1.007825032070
           C          2.656255944795     0.069681820408     1.731334520054    12.000000000000
           H          3.023818238061    -0.633674838058    -0.237100788072     1.007825032070
           H          2.827699720733     1.073540622363    -0.119288384824     1.007825032070
           H          2.351467952252    -0.877997324523     2.157763744841     1.007825032070
           H          2.153989881617     0.860528788801     2.271247585045     1.007825032070
           H          3.717809300049     0.177715357307     1.931328301312     1.007825032070
           H         -3.050874926562     0.902093574534    -1.521173302430     1.007825032070
           H         -1.606168525842     1.873066849222    -1.179864109188     1.007825032070
           H         -2.752955521863     1.546306333846     0.098864821273     1.007825032070

  Running in c1 symmetry.

  Rotational constants: A =      0.19398  B =      0.03657  C =      0.03523 [cm^-1]
  Rotational constants: A =   5815.43412  B =   1096.38747  C =   1056.27873 [MHz]
  Nuclear repulsion =  301.178463820042396

  Charge       = 0
  Multiplicity = 1
  Electrons    = 56
  Nalpha       = 28
  Nbeta        = 28

  ==> Algorithm <==

  SCF Algorithm Type is DF.
  DIIS enabled.
  MOM disabled.
  Fractional occupation disabled.
  Guess Type is READ.
  Energy threshold   = 1.00e-08
  Density threshold  = 1.00e-08
  Integral threshold = 0.00e+00

  ==> Primary Basis <==

  Basis Set: 6-31G*
    Number of shells: 66
    Number of basis function: 129
    Number of Cartesian functions: 129
    Spherical Harmonics?: false
    Max angular momentum: 2

  ==> Pre-Iterations <==

   -------------------------------------------------------
    Irrep   Nso     Nmo     Nalpha   Nbeta   Ndocc  Nsocc
   -------------------------------------------------------
     A        129     129       0       0       0       0
   -------------------------------------------------------
    Total     129     129      28      28      28       0
   -------------------------------------------------------

 OEINTS: Overlap, kinetic, potential, dipole, and quadrupole integrals
         stored in file 35.

  ==> Integral Setup <==

  ==> DFJK: Density-Fitted J/K Matrices <==

    J tasked:                  Yes
    K tasked:                  Yes
    wK tasked:                  No
    OpenMP threads:              4
    Integrals threads:           4
    Memory (MB):              1430
    Algorithm:                Core
    Integral Cache:           NONE
    Schwarz Cutoff:          1E-12
    Fitting Condition:       1E-12

   => Auxiliary Basis Set <=

  Basis Set: 
    Number of shells: 276
    Number of basis function: 867
    Number of Cartesian functions: 867
    Spherical Harmonics?: false
    Max angular momentum: 3

  Minimum eigenvalue in the overlap matrix is 3.5326850493E-03.
  Using Symmetric Orthogonalization.
  SCF Guess: Reading in previously saved MOs, projecting if necessary.

  Using orbitals from previous SCF, no projection.
  Recomputing DOCC and SOCC from number of alpha and beta electrons from previous calculation.
              A 
    DOCC [    28 ]

  ==> Iterations <==

                           Total Energy        Delta E     RMS |[F,P]|

   @DF-RHF iter   0:  -308.98411301632638   -3.08984e+02   2.82381e-03 
   @DF-RHF iter   1:  -309.04639064303154   -6.22776e-02   5.07032e-04 
   @DF-RHF iter   2:  -309.05042828785037   -4.03764e-03   1.76871e-04 DIIS
   @DF-RHF iter   3:  -309.05101546336920   -5.87176e-04   6.96058e-05 DIIS
   @DF-RHF iter   4:  -309.05109465198535   -7.91886e-05   2.14234e-05 DIIS
   @DF-RHF iter   5:  -309.05111533940959   -2.06874e-05   1.03139e-05 DIIS
   @DF-RHF iter   6:  -309.05112082054751   -5.48114e-06   4.25365e-06 DIIS
   @DF-RHF iter   7:  -309.05112167768328   -8.57136e-07   1.73533e-06 DIIS
   @DF-RHF iter   8:  -309.05112176696849   -8.92852e-08   8.20484e-07 DIIS
   @DF-RHF iter   9:  -309.05112178700534   -2.00369e-08   2.81556e-07 DIIS
   @DF-RHF iter  10:  -309.05112178984854   -2.84319e-09   6.02273e-08 DIIS
   @DF-RHF iter  11:  -309.05112178995608   -1.07548e-10   1.35969e-08 DIIS
   @DF-RHF iter  12:  -309.05112178995972   -3.63798e-12   3.87994e-09 DIIS

  ==> Post-Iterations <==

    Orbital Energies (a.u.)
    -----------------------

    Doubly Occupied:                                                      

       1A    -20.548562     2A    -11.325356     3A    -11.234259  
       4A    -11.229410     5A    -11.228923     6A    -11.228636  
       7A    -11.216645     8A     -1.394048     9A     -1.080663  
      10A     -1.027375    11A     -0.984473    12A     -0.901318  
      13A     -0.796882    14A     -0.732572    15A     -0.660084  
      16A     -0.647865    17A     -0.621102    18A     -0.604150  
      19A     -0.584588    20A     -0.575505    21A     -0.548822  
      22A     -0.545569    23A     -0.520341    24A     -0.498602  
      25A     -0.480183    26A     -0.465994    27A     -0.458422  
      28A     -0.398259  

    Virtual:                                                              

      29A      0.167511    30A      0.210041    31A      0.244410  
      32A      0.267289    33A      0.278097    34A      0.287016  
      35A      0.299575    36A      0.306543    37A      0.317793  
      38A      0.330477    39A      0.343187    40A      0.356408  
      41A      0.375090    42A      0.389615    43A      0.406695  
      44A      0.437650    45A      0.466549    46A      0.493375  
      47A      0.520194    48A      0.697676    49A      0.721282  
      50A      0.730793    51A      0.754032    52A      0.779887  
      53A      0.802480    54A      0.816569    55A      0.825151  
      56A      0.841098    57A      0.878796    58A      0.928280  
      59A      0.942606    60A      0.979659    61A      0.985196  
      62A      0.995321    63A      1.036670    64A      1.089500  
      65A      1.092287    66A      1.120397    67A      1.128376  
      68A      1.133972    69A      1.156243    70A      1.169268  
      71A      1.175111    72A      1.184063    73A      1.189672  
      74A      1.202905    75A      1.217404    76A      1.227609  
      77A      1.264986    78A      1.273096    79A      1.345439  
      80A      1.365844    81A      1.410505    82A      1.454505  
      83A      1.463012    84A      1.539573    85A      1.681829  
      86A      1.693641    87A      1.728653    88A      1.793468  
      89A      1.871447    90A      1.930036    91A      1.993821  
      92A      2.042533    93A      2.079527    94A      2.097245  
      95A      2.118972    96A      2.148907    97A      2.193047  
      98A      2.209342    99A      2.223223   100A      2.263147  
     101A      2.296581   102A      2.335840   103A      2.367714  
     104A      2.434145   105A      2.458392   106A      2.510237  
     107A      2.523798   108A      2.544392   109A      2.617534  
     110A      2.675724   111A      2.700706   112A      2.734385  
     113A      2.740887   114A      2.790987   115A      2.832958  
     116A      2.901977   117A      2.975250   118A      3.060131  
     119A      3.066422   120A      3.134699   121A      3.374889  
     122A      3.375951   123A      4.463121   124A      4.502942  
     125A      4.582044   126A      4.710901   127A      4.794496  
     128A      4.903233   129A      5.028998  

    Final Occupation by Irrep:
              A 
    DOCC [    28 ]

  Energy converged.

  @DF-RHF Final Energy:  -309.05112178995972

   => Energetics <=

    Nuclear Repulsion Energy =            301.1784638200423956
    One-Electron Energy =               -1015.3819585796172760
    Two-Electron Energy =                 405.1523729696148735
    DFT Exchange-Correlation Energy =       0.0000000000000000
    Empirical Dispersion Energy =           0.0000000000000000
    PCM Polarization Energy =               0.0000000000000000
    EFP Energy =                            0.0000000000000000
    Total Energy =                       -309.0511217899599501

    Alert: EFP and PCM quantities not currently incorporated into SCF psivars.

Properties will be evaluated at   0.000000,   0.000000,   0.000000 Bohr
  ==> Properties <==


Properties computed using the SCF density matrix

  Nuclear Dipole Moment: (a.u.)
     X:     7.2207      Y:     4.6251      Z:     3.2387

  Electronic Dipole Moment: (a.u.)
     X:    -6.7309      Y:    -3.5797      Z:    -2.8667

  Dipole Moment: (a.u.)
     X:     0.4898      Y:     1.0454      Z:     0.3720     Total:     1.2129

  Dipole Moment: (Debye)
     X:     1.2450      Y:     2.6570      Z:     0.9455     Total:     3.0828


  Saving occupied orbitals to File 180.

*** tstop() called on cx1-1-3-4.cx1.hpc.ic.ac.uk at Fri Sep  2 13:05:03 2016
Module time:
	user time   =      20.92 seconds =       0.35 minutes
	system time =       0.25 seconds =       0.00 minutes
	total time  =          7 seconds =       0.12 minutes
Total time:
	user time   =      65.44 seconds =       1.09 minutes
	system time =       0.86 seconds =       0.01 minutes
	total time  =         22 seconds =       0.37 minutes

*** tstart() called on cx1-1-3-4.cx1.hpc.ic.ac.uk
*** at Fri Sep  2 13:05:03 2016


         ------------------------------------------------------------
                                   SCF GRAD                          
                          Rob Parrish, Justin Turney,                
                       Andy Simmonett, and Alex Sokolov              
         ------------------------------------------------------------

  ==> Geometry <==

    Molecular point group: c1
    Full point group: C1

    Geometry (in Angstrom), charge = 0, multiplicity = 1:

       Center              X                  Y                   Z               Mass       
    ------------   -----------------  -----------------  -----------------  -----------------
           O         -1.894291465811    -1.210924909451    -0.808535007384    15.994914619560
           C         -1.542510443821    -0.139398950042    -0.417528659241    12.000000000000
           C         -0.312589327459     0.005209443180     0.460281811174    12.000000000000
           C         -2.287879077321     1.123885135151    -0.788037801134    12.000000000000
           C          0.961076879785     0.007567603777    -0.414861737671    12.000000000000
           H         -0.384615496297     0.917351340666     1.039480274493     1.007825032070
           H         -0.312127025841    -0.835802147069     1.136753746517     1.007825032070
           C          2.402864735769     0.132239720383     0.216020486569    12.000000000000
           H          0.830205417373     0.833637118490    -1.108443530202     1.007825032070
           H          0.913809599572    -0.896996266532    -1.010689225879     1.007825032070
           C          2.656255944795     0.069681820408     1.731334520054    12.000000000000
           H          3.023818238061    -0.633674838058    -0.237100788072     1.007825032070
           H          2.827699720733     1.073540622363    -0.119288384824     1.007825032070
           H          2.351467952252    -0.877997324523     2.157763744841     1.007825032070
           H          2.153989881617     0.860528788801     2.271247585045     1.007825032070
           H          3.717809300049     0.177715357307     1.931328301312     1.007825032070
           H         -3.050874926562     0.902093574534    -1.521173302430     1.007825032070
           H         -1.606168525842     1.873066849222    -1.179864109188     1.007825032070
           H         -2.752955521863     1.546306333846     0.098864821273     1.007825032070

  Nuclear repulsion =  301.178463820042396

  ==> Basis Set <==

  Basis Set: 6-31G*
    Number of shells: 66
    Number of basis function: 129
    Number of Cartesian functions: 129
    Spherical Harmonics?: false
    Max angular momentum: 2

  ==> DFJKGrad: Density-Fitted SCF Gradients <==

    Gradient:                    1
    J tasked:                  Yes
    K tasked:                  Yes
    wK tasked:                  No
    OpenMP threads:              4
    Integrals threads:           4
    Memory (MB):              1430
    Schwarz Cutoff:          0E+00
    Fitting Condition:       1E-12

   => Auxiliary Basis Set <=

  Basis Set: 
    Number of shells: 276
    Number of basis function: 867
    Number of Cartesian functions: 867
    Spherical Harmonics?: false
    Max angular momentum: 3


  -Total Gradient:
     Atom            X                  Y                   Z
    ------   -----------------  -----------------  -----------------
       1       -0.000238828357    -0.000602282359    -0.000363222652
       2        0.000101550191     0.000686177466     0.002477595118
       3       -0.007796307424    -0.000248316622    -0.005217679396
       4        0.000033165486    -0.000095492388    -0.000197969705
       5       -0.000390692245    -0.000599269810    -0.002021482307
       6       -0.001247795014    -0.001476907159    -0.002421657583
       7       -0.001265940354     0.001957248868    -0.003314755460
       8        0.001255348731    -0.004345973223     0.002012953844
       9       -0.004866697996     0.001032738346     0.002644308473
      10       -0.002175900838    -0.000064402640    -0.000128114860
      11        0.008390447811     0.004141393506     0.002448095742
      12        0.001546432781     0.000566853975     0.001669020419
      13        0.001308067387    -0.000427503548     0.001778422419
      14        0.002193861222     0.001498636896    -0.001114629516
      15        0.003331274524    -0.001906852453    -0.000848295083
      16       -0.000171753345    -0.000162568777     0.002620751772
      17       -0.000083214049     0.000078016928    -0.000045477990
      18        0.000090620399    -0.000040884742    -0.000019784130
      19       -0.000013638913     0.000009387740     0.000041920895


*** tstop() called on cx1-1-3-4.cx1.hpc.ic.ac.uk at Fri Sep  2 13:05:09 2016
Module time:
	user time   =      22.35 seconds =       0.37 minutes
	system time =       0.31 seconds =       0.01 minutes
	total time  =          6 seconds =       0.10 minutes
Total time:
	user time   =      87.81 seconds =       1.46 minutes
	system time =       1.17 seconds =       0.02 minutes
	total time  =         28 seconds =       0.47 minutes
CURRENT ENERGY: -309.0511217900

			-----------------------------------------
			 OPTKING 2.0: for geometry optimizations 
			  - R.A. King,  Bethel University        
			-----------------------------------------

	Previous internal coordinate definitions found.
	---Fragment 1 Geometry and Gradient---
	 O          -3.5796920862       -2.2883164464       -1.5279097328
	 C          -2.9149222959       -0.2634258388       -0.7890148186
	 C          -0.5907082210        0.0098444209        0.8698065671
	 C          -4.3234648813        2.1238351103       -1.4891756265
	 C           1.8161720954        0.0143006986       -0.7839750672
	 H          -0.7268179545        1.7335428015        1.9643330393
	 H          -0.5898345975       -1.5794371592        2.1481532614
	 C           4.5407562850        0.2498968554        0.4082195587
	 H           1.5688608729        1.5753458482       -2.0946547058
	 H           1.7268498808       -1.6950772860       -1.9099258424
	 C           5.0195962745        0.1316795570        3.2717480873
	 H           5.7141883456       -1.1974719012       -0.4480555553
	 H           5.3435780582        2.0286977688       -0.2254223782
	 H           4.4436304400       -1.6591744888        4.0775825372
	 H           4.0704509693        1.6261637403        4.2920359157
	 H           7.0256413914        0.3358333549        3.6496815622
	 H          -5.7653180769        1.7047098021       -2.8746009423
	 H          -3.0352186371        3.5395833736       -2.2296200404
	 H          -5.2023319923        2.9220954885        0.1868274364
	            -0.0002388284       -0.0006022824       -0.0003632227
	             0.0001015502        0.0006861775        0.0024775951
	            -0.0077963074       -0.0002483166       -0.0052176794
	             0.0000331655       -0.0000954924       -0.0001979697
	            -0.0003906922       -0.0005992698       -0.0020214823
	            -0.0012477950       -0.0014769072       -0.0024216576
	            -0.0012659404        0.0019572489       -0.0033147555
	             0.0012553487       -0.0043459732        0.0020129538
	            -0.0048666980        0.0010327383        0.0026443085
	            -0.0021759008       -0.0000644026       -0.0001281149
	             0.0083904478        0.0041413935        0.0024480957
	             0.0015464328        0.0005668540        0.0016690204
	             0.0013080674       -0.0004275035        0.0017784224
	             0.0021938612        0.0014986369       -0.0011146295
	             0.0033312745       -0.0019068525       -0.0008482951
	            -0.0001717533       -0.0001625688        0.0026207518
	            -0.0000832140        0.0000780169       -0.0000454780
	             0.0000906204       -0.0000408847       -0.0000197841
	            -0.0000136389        0.0000093877        0.0000419209

	---Fragment 1 Intrafragment Coordinates---
	 - Coordinate -           - BOHR/RAD -       - ANG/DEG -
	 R(1,2)           =         2.255674	       1.193652
	 R(2,3)           =         2.868508	       1.517949
	 R(2,4)           =         2.858887	       1.512858
	 R(3,5)           =         2.920289	       1.545350
	 R(3,6)           =         2.046375	       1.082895
	 R(3,7)           =         2.039605	       1.079312
	 R(4,17)          =         2.043039	       1.081130
	 R(4,18)          =         2.052359	       1.086062
	 R(4,19)          =         2.053926	       1.086891
	 R(5,8)           =         2.983319	       1.578705
	 R(5,9)           =         2.053267	       1.086542
	 R(5,10)          =         2.048833	       1.084196
	 R(8,11)          =         2.905694	       1.537627
	 R(8,12)          =         2.050616	       1.085139
	 R(8,13)          =         2.051867	       1.085801
	 R(11,14)         =         2.046525	       1.082974
	 R(11,15)         =         2.043367	       1.081303
	 R(11,16)         =         2.051519	       1.085617
	 B(1,2,3)         =         2.110333	     120.913183
	 B(1,2,4)         =         2.122540	     121.612557
	 B(2,3,5)         =         1.918203	     109.904940
	 B(2,3,6)         =         1.913097	     109.612397
	 B(2,3,7)         =         1.863523	     106.771976
	 B(2,4,17)        =         1.920353	     110.028118
	 B(2,4,18)        =         1.933836	     110.800669
	 B(2,4,19)        =         1.912945	     109.603663
	 B(3,2,4)         =         2.050233	     117.469675
	 B(3,5,8)         =         2.125304	     121.770977
	 B(3,5,9)         =         1.837325	     105.270956
	 B(3,5,10)        =         1.848360	     105.903216
	 B(5,3,6)         =         1.935240	     110.881098
	 B(5,3,7)         =         1.934541	     110.841017
	 B(5,8,11)        =         2.142553	     122.759222
	 B(5,8,12)        =         1.875486	     107.457414
	 B(5,8,13)        =         1.877990	     107.600890
	 B(6,3,7)         =         1.897730	     108.731939
	 B(8,5,9)         =         1.880792	     107.761466
	 B(8,5,10)        =         1.902143	     108.984770
	 B(8,11,14)       =         1.957639	     112.164473
	 B(8,11,15)       =         1.966837	     112.691452
	 B(8,11,16)       =         1.916268	     109.794049
	 B(9,5,10)        =         1.852774	     106.156107
	 B(11,8,12)       =         1.863449	     106.767787
	 B(11,8,13)       =         1.849515	     105.969379
	 B(12,8,13)       =         1.832829	     105.013358
	 B(14,11,15)      =         1.888804	     108.220516
	 B(14,11,16)      =         1.864752	     106.842426
	 B(15,11,16)      =         1.864435	     106.824273
	 B(17,4,18)       =         1.917553	     109.867721
	 B(17,4,19)       =         1.908258	     109.335145
	 B(18,4,19)       =         1.870129	     107.150525
	 D(1,2,3,5)       =         1.426316	      81.721859
	 D(1,2,3,6)       =        -2.725766	    -156.174900
	 D(1,2,3,7)       =        -0.673076	     -38.564441
	 D(1,2,4,17)      =        -0.125686	      -7.201255
	 D(1,2,4,18)      =        -2.249692	    -128.897850
	 D(1,2,4,19)      =         1.973238	     113.058226
	 D(2,3,5,8)       =        -3.132730	    -179.492214
	 D(2,3,5,9)       =         1.007980	      57.752990
	 D(2,3,5,10)      =        -0.950137	     -54.438828
	 D(3,2,4,17)      =         3.002426	     172.026347
	 D(3,2,4,18)      =         0.878420	      50.329751
	 D(3,2,4,19)      =        -1.181835	     -67.714172
	 D(3,5,8,11)      =         0.146948	       8.419505
	 D(3,5,8,12)      =         2.314514	     132.611859
	 D(3,5,8,13)      =        -2.003043	    -114.765908
	 D(4,2,3,5)       =        -1.701896	     -97.511446
	 D(4,2,3,6)       =         0.429208	      24.591795
	 D(4,2,3,7)       =         2.481898	     142.202254
	 D(5,8,11,14)     =         1.071467	      61.390558
	 D(5,8,11,15)     =        -1.065358	     -61.040531
	 D(5,8,11,16)     =        -3.141270	    -179.981540
	 D(6,3,5,8)       =         1.032564	      59.161536
	 D(6,3,5,9)       =        -1.109912	     -63.593260
	 D(6,3,5,10)      =        -3.068028	    -175.785078
	 D(7,3,5,8)       =        -1.076913	     -61.702588
	 D(7,3,5,9)       =         3.063797	     175.542615
	 D(7,3,5,10)      =         1.105680	      63.350797
	*D(9,5,8,11)      =         2.268928	     129.999987
	 D(9,5,8,12)      =        -1.846692	    -105.807660
	 D(9,5,8,13)      =         0.118937	       6.814574
	 D(10,5,8,11)     =        -2.010908	    -115.216513
	 D(10,5,8,12)     =         0.156658	       8.975840
	 D(10,5,8,13)     =         2.122287	     121.598074
	 D(12,8,11,14)    =        -1.101521	     -63.112497
	 D(12,8,11,15)    =         3.044839	     174.456414
	 D(12,8,11,16)    =         0.968927	      55.515405
	 D(13,8,11,14)    =        -3.048777	    -174.682064
	 D(13,8,11,15)    =         1.097583	      62.886847
	 D(13,8,11,16)    =        -0.978330	     -56.054162

	Current energy   :      -309.0511217900

	Energy change for the previous step:
		Projected    :        -0.0191444519
		Actual       :         0.0000920709

	Performing BFGS update.
	Previous computed or guess Hessian on step 1.
	Steps to be used in Hessian update: 1
	Taking RFO optimization step.
	Going to follow RFO solution 1.
	Using RFO vector 1.
	Norm of target step-size    0.13037
	Projected energy change by RFO approximation:        -0.0062182588

	Back-transformation to cartesian coordinates...
	Successfully converged to displaced geometry.

	Back-transformation to cartesian coordinates to adjust frozen coordinates...
	Successfully converged to displaced geometry.

	--- Internal Coordinate Step in ANG or DEG, aJ/ANG or AJ/DEG ---
	 ---------------------------------------------------------------------------
	   Coordinate                Previous        Force       Change         New 
	   ----------                --------       ------       ------       ------
	    1 R(1,2)          =      1.193652    -0.006015    -0.000217     1.193434
	    2 R(2,3)          =      1.517949     0.008310     0.001050     1.518999
	    3 R(2,4)          =      1.512858    -0.000000     0.000006     1.512863
	    4 R(3,5)          =      1.545350    -0.028478    -0.003572     1.541779
	    5 R(3,6)          =      1.082895     0.020237     0.002153     1.085048
	    6 R(3,7)          =      1.079312     0.029686     0.003141     1.082453
	    7 R(4,17)         =      1.081130    -0.000606    -0.000065     1.081065
	    8 R(4,18)         =      1.086062    -0.000295    -0.000032     1.086030
	    9 R(4,19)         =      1.086891    -0.000360    -0.000039     1.086852
	   10 R(5,8)          =      1.578705    -0.162124    -0.019835     1.558870
	   11 R(5,9)          =      1.086542     0.002609     0.000228     1.086770
	   12 R(5,10)         =      1.084196    -0.001804    -0.000255     1.083941
	   13 R(8,11)         =      1.537627    -0.042681    -0.005327     1.532300
	   14 R(8,12)         =      1.085139     0.001748     0.000110     1.085250
	   15 R(8,13)         =      1.085801     0.003361     0.000325     1.086126
	   16 R(11,14)        =      1.082974     0.019507     0.002077     1.085052
	   17 R(11,15)        =      1.081303     0.027728     0.002951     1.084254
	   18 R(11,16)        =      1.085617    -0.002461    -0.000267     1.085350
	   19 B(1,2,3)        =    120.913183    -0.000011    -0.016833   120.896350
	   20 B(1,2,4)        =    121.612557     0.000007     0.012159   121.624716
	   21 B(2,3,5)        =    109.904940    -0.000165    -0.349414   109.555526
	   22 B(2,3,6)        =    109.612397     0.000125     0.359773   109.972170
	   23 B(2,3,7)        =    106.771976     0.000123     0.381939   107.153915
	   24 B(2,4,17)       =    110.028118    -0.000013    -0.039640   109.988478
	   25 B(2,4,18)       =    110.800669     0.000013     0.037901   110.838570
	   26 B(2,4,19)       =    109.603663     0.000001     0.005044   109.608707
	   27 B(3,2,4)        =    117.469675     0.000004     0.009257   117.478932
	   28 B(3,5,8)        =    121.770977    -0.001811    -3.551912   118.219065
	   29 B(3,5,9)        =    105.270956     0.000828     2.080791   107.351747
	   30 B(3,5,10)       =    105.903216     0.000662     1.474878   107.378094
	   31 B(5,3,6)        =    110.881098    -0.000001    -0.075589   110.805509
	   32 B(5,3,7)        =    110.841017    -0.000008    -0.055496   110.785522
	   33 B(5,8,11)       =    122.759222    -0.001812    -3.522207   119.237015
	   34 B(5,8,12)       =    107.457414     0.000421     0.309559   107.766973
	   35 B(5,8,13)       =    107.600890     0.000422     0.411779   108.012669
	   36 B(6,3,7)        =    108.731939    -0.000067    -0.238697   108.493242
	   37 B(8,5,9)        =    107.761466     0.000279    -0.123732   107.637733
	   38 B(8,5,10)       =    108.984770     0.000428     0.356728   109.341498
	   39 B(8,11,14)      =    112.164473     0.000045     0.195474   112.359947
	   40 B(8,11,15)      =    112.691452    -0.000098    -0.225682   112.465770
	   41 B(8,11,16)      =    109.794049    -0.000234    -0.714618   109.079431
	   42 B(9,5,10)       =    106.156107    -0.000241     0.149775   106.305882
	   43 B(11,8,12)      =    106.767787     0.000676     1.507291   108.275078
	   44 B(11,8,13)      =    105.969379     0.000680     1.534922   107.504301
	   45 B(12,8,13)      =    105.013358    -0.000217     0.185585   105.198943
	   46 B(14,11,15)     =    108.220516    -0.000017    -0.074738   108.145778
	   47 B(14,11,16)     =    106.842426     0.000140     0.419214   107.261640
	   48 B(15,11,16)     =    106.824273     0.000187     0.452376   107.276649
	   49 B(17,4,18)      =    109.867721     0.000001     0.000876   109.868596
	   50 B(17,4,19)      =    109.335145     0.000003     0.001097   109.336242
	   51 B(18,4,19)      =    107.150525    -0.000004    -0.004445   107.146080
	   52 D(1,2,3,5)      =     81.721859    -0.000000     0.180348    81.902207
	   53 D(1,2,3,6)      =   -156.174900    -0.000006     0.092717  -156.082183
	   54 D(1,2,3,7)      =    -38.564441     0.000006     0.217003   -38.347437
	   55 D(1,2,4,17)     =     -7.201255    -0.000001    -0.429650    -7.630905
	   56 D(1,2,4,18)     =   -128.897850    -0.000001    -0.429243  -129.327093
	   57 D(1,2,4,19)     =    113.058226    -0.000002    -0.449886   112.608341
	   58 D(2,3,5,8)      =   -179.492214     0.000000     0.009126  -179.483087
	   59 D(2,3,5,9)      =     57.752990     0.000039     0.897957    58.650947
	   60 D(2,3,5,10)     =    -54.438828    -0.000041    -0.864478   -55.303306
	   61 D(3,2,4,17)     =    172.026347     0.000001     0.362041   172.388388
	   62 D(3,2,4,18)     =     50.329751     0.000001     0.362448    50.692200
	   63 D(3,2,4,19)     =    -67.714172     0.000000     0.341805   -67.372367
	   64 D(3,5,8,11)     =      8.419505    -0.000010    -0.140061     8.279444
	   65 D(3,5,8,12)     =    132.611859    -0.000030    -0.503778   132.108081
	   66 D(3,5,8,13)     =   -114.765908     0.000004     0.057806  -114.708102
	   67 D(4,2,3,5)      =    -97.511446    -0.000002    -0.605492   -98.116937
	   68 D(4,2,3,6)      =     24.591795    -0.000009    -0.693123    23.898673
	   69 D(4,2,3,7)      =    142.202254     0.000004    -0.568836   141.633418
	   70 D(5,8,11,14)    =     61.390558    -0.000012    -0.381817    61.008741
	   71 D(5,8,11,15)    =    -61.040531     0.000003    -0.261525   -61.302056
	   72 D(5,8,11,16)    =   -179.981540    -0.000000    -0.207394  -180.188934
	   73 D(6,3,5,8)      =     59.161536    -0.000010    -0.160011    59.001525
	   74 D(6,3,5,9)      =    -63.593260     0.000029     0.728820   -62.864441
	   75 D(6,3,5,10)     =   -175.785078    -0.000051    -1.033615  -176.818693
	   76 D(7,3,5,8)      =    -61.702588     0.000011     0.228603   -61.473985
	   77 D(7,3,5,9)      =    175.542615     0.000049     1.117434   176.660049
	   78 D(7,3,5,10)     =     63.350797    -0.000031    -0.645001    62.705796
	   79 *D(9,5,8,11)    =    129.999987     0.000000     0.000000   129.999987
	   80 D(9,5,8,12)     =   -105.807660    -0.000020    -0.363717  -106.171377
	   81 D(9,5,8,13)     =      6.814574     0.000014     0.197867     7.012440
	   82 D(10,5,8,11)    =   -115.216513     0.000019     0.293622  -114.922891
	   83 D(10,5,8,12)    =      8.975840    -0.000001    -0.070095     8.905746
	   84 D(10,5,8,13)    =    121.598074     0.000033     0.491489   122.089563
	   85 D(12,8,11,14)   =    -63.112497     0.000032     0.540414   -62.572083
	   86 D(12,8,11,15)   =    174.456414     0.000047     0.660706   175.117120
	   87 D(12,8,11,16)   =     55.515405     0.000043     0.714838    56.230243
	   88 D(13,8,11,14)   =   -174.682064    -0.000046    -1.072011  -175.754075
	   89 D(13,8,11,15)   =     62.886847    -0.000032    -0.951719    61.935128
	   90 D(13,8,11,16)   =    -56.054162    -0.000035    -0.897587   -56.951750
	 ---------------------------------------------------------------------------

  ==> Convergence Check <==

  Measures of convergence in internal coordinates in au.
  Criteria marked as inactive (o), active & met (*), and active & unmet ( ).
  ---------------------------------------------------------------------------------------------
   Step     Total Energy     Delta E     MAX Force     RMS Force      MAX Disp      RMS Disp   
  ---------------------------------------------------------------------------------------------
    Convergence Criteria    1.00e-06 *    3.00e-04 *             o    1.20e-03 *             o
  ---------------------------------------------------------------------------------------------
      2    -309.05112179    9.21e-05      2.38e-02      4.92e-03 o    6.20e-02      1.37e-02 o  ~
  ---------------------------------------------------------------------------------------------

	Writing optimization data to binary file.
	Structure for next step:
	Cartesian Geometry (in Angstrom)
	    O    -1.8652063941  -1.2152150360  -0.7512409571
	    C    -1.4980874108  -0.1400702233  -0.3857644182
	    C    -0.2392058459   0.0115493917   0.4506492119
	    C    -2.2613350718   1.1191446029  -0.7330205791
	    C     0.9968771168   0.0019247554  -0.4708101733
	    H    -0.2844685869   0.9308896706   1.0251870159
	    H    -0.2112355759  -0.8228699050   1.1396100369
	    C     2.4054225560   0.1335423514   0.1839813253
	    H     0.8829355911   0.8222079669  -1.1745307844
	    H     0.9569809717  -0.9092839710  -1.0565019415
	    C     2.5297870182   0.0744650165   1.7100829845
	    H     3.0407879961  -0.6377363716  -0.2393469830
	    H     2.8414383476   1.0729662752  -0.1431930127
	    H     2.1826422820  -0.8699075830   2.1162707445
	    H     1.9860571851   0.8736095837   2.2013384881
	    H     3.5744898813   0.1788124516   1.9852066907
	    H    -3.0512278998   0.8907901778  -1.4348926233
	    H    -1.5983291119   1.8689150405  -1.1545979982
	    H    -2.6933366021   1.5442954548   0.1691259807
			--------------------------
			 OPTKING Finished Execution 
			--------------------------

    Structure for next step:
    Molecular point group: c1
    Full point group: C1

    Geometry (in Angstrom), charge = 0, multiplicity = 1:

    O           -1.875737869707    -1.214723134831    -0.756295704708
    C           -1.508618914407    -0.139578404218    -0.390819193721
    C           -0.249737445620     0.012041199206     0.445594372505
    C           -2.271866517134     1.119636325797    -0.738075328106
    C            0.986345422653     0.002416563618    -0.475864942378
    H           -0.295000183255     0.931381407899     1.020132132575
    H           -0.221767177754    -0.822378033744     1.134555144846
    C            2.394890754284     0.134034149570     0.178926506266
    H            0.872403905614     0.822699712516    -1.179585499764
    H            0.946449280570    -0.908792093169    -1.061556665825
    C            2.519255206956     0.074956819185     1.705028048858
    H            3.030256145811    -0.637244514492    -0.244401769706
    H            2.830906512604     1.073458001654    -0.148247806774
    H            2.172110497337    -0.869415708208     2.111215777903
    H            1.975525415443     0.874101325424     2.196283514969
    H            3.563957990319     0.179304246304     1.980151734095
    H           -3.061759284781     0.891281918170    -1.439947318776
    H           -1.608860607929     1.869406706158    -1.159652715014
    H           -2.703868014473     1.544787145270     0.164071162737

gradient() will perform analytic gradient computation.

*** tstart() called on cx1-1-3-4.cx1.hpc.ic.ac.uk
*** at Fri Sep  2 13:05:09 2016


         ---------------------------------------------------------
                                   SCF
            by Justin Turney, Rob Parrish, and Andy Simmonett
                              RHF Reference
                        4 Threads,   2000 MiB Core
         ---------------------------------------------------------

  ==> Geometry <==

    Molecular point group: c1
    Full point group: C1

    Geometry (in Angstrom), charge = 0, multiplicity = 1:

       Center              X                  Y                   Z               Mass       
    ------------   -----------------  -----------------  -----------------  -----------------
           O         -1.875737869707    -1.214723134831    -0.756295704708    15.994914619560
           C         -1.508618914407    -0.139578404218    -0.390819193721    12.000000000000
           C         -0.249737445620     0.012041199206     0.445594372505    12.000000000000
           C         -2.271866517134     1.119636325797    -0.738075328106    12.000000000000
           C          0.986345422653     0.002416563618    -0.475864942378    12.000000000000
           H         -0.295000183255     0.931381407899     1.020132132575     1.007825032070
           H         -0.221767177754    -0.822378033744     1.134555144846     1.007825032070
           C          2.394890754284     0.134034149570     0.178926506266    12.000000000000
           H          0.872403905614     0.822699712516    -1.179585499764     1.007825032070
           H          0.946449280570    -0.908792093169    -1.061556665825     1.007825032070
           C          2.519255206956     0.074956819185     1.705028048858    12.000000000000
           H          3.030256145811    -0.637244514492    -0.244401769706     1.007825032070
           H          2.830906512604     1.073458001654    -0.148247806774     1.007825032070
           H          2.172110497337    -0.869415708208     2.111215777903     1.007825032070
           H          1.975525415443     0.874101325424     2.196283514969     1.007825032070
           H          3.563957990319     0.179304246304     1.980151734095     1.007825032070
           H         -3.061759284781     0.891281918170    -1.439947318776     1.007825032070
           H         -1.608860607929     1.869406706158    -1.159652715014     1.007825032070
           H         -2.703868014473     1.544787145270     0.164071162737     1.007825032070

  Running in c1 symmetry.

  Rotational constants: A =      0.18941  B =      0.03810  C =      0.03681 [cm^-1]
  Rotational constants: A =   5678.44176  B =   1142.28291  C =   1103.45415 [MHz]
  Nuclear repulsion =  303.518976638346032

  Charge       = 0
  Multiplicity = 1
  Electrons    = 56
  Nalpha       = 28
  Nbeta        = 28

  ==> Algorithm <==

  SCF Algorithm Type is DF.
  DIIS enabled.
  MOM disabled.
  Fractional occupation disabled.
  Guess Type is READ.
  Energy threshold   = 1.00e-08
  Density threshold  = 1.00e-08
  Integral threshold = 0.00e+00

  ==> Primary Basis <==

  Basis Set: 6-31G*
    Number of shells: 66
    Number of basis function: 129
    Number of Cartesian functions: 129
    Spherical Harmonics?: false
    Max angular momentum: 2

  ==> Pre-Iterations <==

   -------------------------------------------------------
    Irrep   Nso     Nmo     Nalpha   Nbeta   Ndocc  Nsocc
   -------------------------------------------------------
     A        129     129       0       0       0       0
   -------------------------------------------------------
    Total     129     129      28      28      28       0
   -------------------------------------------------------

 OEINTS: Overlap, kinetic, potential, dipole, and quadrupole integrals
         stored in file 35.

  ==> Integral Setup <==

  ==> DFJK: Density-Fitted J/K Matrices <==

    J tasked:                  Yes
    K tasked:                  Yes
    wK tasked:                  No
    OpenMP threads:              4
    Integrals threads:           4
    Memory (MB):              1430
    Algorithm:                Core
    Integral Cache:           NONE
    Schwarz Cutoff:          1E-12
    Fitting Condition:       1E-12

   => Auxiliary Basis Set <=

  Basis Set: 
    Number of shells: 276
    Number of basis function: 867
    Number of Cartesian functions: 867
    Spherical Harmonics?: false
    Max angular momentum: 3

  Minimum eigenvalue in the overlap matrix is 3.3586349108E-03.
  Using Symmetric Orthogonalization.
  SCF Guess: Reading in previously saved MOs, projecting if necessary.

  Using orbitals from previous SCF, no projection.
  Recomputing DOCC and SOCC from number of alpha and beta electrons from previous calculation.
              A 
    DOCC [    28 ]

  ==> Iterations <==

                           Total Energy        Delta E     RMS |[F,P]|

   @DF-RHF iter   0:  -309.05401311735847   -3.09054e+02   9.89477e-04 
   @DF-RHF iter   1:  -309.05449718697508   -4.84070e-04   1.64350e-04 
   @DF-RHF iter   2:  -309.05493121771957   -4.34031e-04   5.57805e-05 DIIS
   @DF-RHF iter   3:  -309.05499490425512   -6.36865e-05   1.72622e-05 DIIS
   @DF-RHF iter   4:  -309.05499989498179   -4.99073e-06   6.70977e-06 DIIS
   @DF-RHF iter   5:  -309.05500175792082   -1.86294e-06   3.57861e-06 DIIS
   @DF-RHF iter   6:  -309.05500225031773   -4.92397e-07   1.73108e-06 DIIS
   @DF-RHF iter   7:  -309.05500237994664   -1.29629e-07   5.48373e-07 DIIS
   @DF-RHF iter   8:  -309.05500239231486   -1.23682e-08   2.30105e-07 DIIS
   @DF-RHF iter   9:  -309.05500239436384   -2.04898e-09   7.91014e-08 DIIS
   @DF-RHF iter  10:  -309.05500239460179   -2.37947e-10   1.54301e-08 DIIS
   @DF-RHF iter  11:  -309.05500239460838   -6.59384e-12   4.15009e-09 DIIS

  ==> Post-Iterations <==

    Orbital Energies (a.u.)
    -----------------------

    Doubly Occupied:                                                      

[...]
	 R(8,11)          =         2.893328	       1.531083
	 R(8,12)          =         2.051054	       1.085371
	 R(8,13)          =         2.052549	       1.086162
	 R(11,14)         =         2.050874	       1.085276
	 R(11,15)         =         2.049803	       1.084709
	 R(11,16)         =         2.051251	       1.085475
	 B(1,2,3)         =         2.109688	     120.876235
	 B(1,2,4)         =         2.122889	     121.632595
	 B(2,3,5)         =         1.917448	     109.861703
	 B(2,3,6)         =         1.923407	     110.203108
	 B(2,3,7)         =         1.873802	     107.360948
	 B(2,4,17)        =         1.919951	     110.005074
	 B(2,4,18)        =         1.934765	     110.853876
	 B(2,4,19)        =         1.912128	     109.556889
	 B(3,2,4)         =         2.050509	     117.485537
	 B(3,5,8)         =         2.027643	     116.175398
	 B(3,5,9)         =         1.878397	     107.624207
	 B(3,5,10)        =         1.875489	     107.457615
	 B(5,3,6)         =         1.930167	     110.590421
	 B(5,3,7)         =         1.927642	     110.445755
	 B(5,8,11)        =         2.045440	     117.195057
	 B(5,8,12)        =         1.894462	     108.544705
	 B(5,8,13)        =         1.896357	     108.653237
	 B(6,3,7)         =         1.890418	     108.312955
	 B(8,5,9)         =         1.894588	     108.551876
	 B(8,5,10)        =         1.918165	     109.902764
	 B(8,11,14)       =         1.956704	     112.110898
	 B(8,11,15)       =         1.956104	     112.076507
	 B(8,11,16)       =         1.914968	     109.719596
	 B(9,5,10)        =         1.862574	     106.717650
	 B(11,8,12)       =         1.893826	     108.508211
	 B(11,8,13)       =         1.879420	     107.682807
	 B(12,8,13)       =         1.844214	     105.665679
	 B(14,11,15)      =         1.883835	     107.935801
	 B(14,11,16)      =         1.874208	     107.384227
	 B(15,11,16)      =         1.874349	     107.392268
	 B(17,4,18)       =         1.917823	     109.883150
	 B(17,4,19)       =         1.908330	     109.339259
	 B(18,4,19)       =         1.870077	     107.147516
	 D(1,2,3,5)       =         1.399242	      80.170644
	 D(1,2,3,6)       =        -2.752925	    -157.730955
	 D(1,2,3,7)       =        -0.697553	     -39.966846
	 D(1,2,4,17)      =        -0.126879	      -7.269636
	 D(1,2,4,18)      =        -2.251570	    -129.005457
	 D(1,2,4,19)      =         1.971369	     112.951117
	 D(2,3,5,8)       =        -3.127477	    -179.191244
	 D(2,3,5,9)       =         1.028515	      58.929564
	 D(2,3,5,10)      =        -0.971657	     -55.671817
	 D(3,2,4,17)      =         2.999766	     171.873915
	 D(3,2,4,18)      =         0.875075	      50.138094
	 D(3,2,4,19)      =        -1.185172	     -67.905331
	 D(3,5,8,11)      =         0.150320	       8.612673
	 D(3,5,8,12)      =         2.302053	     131.897905
	 D(3,5,8,13)      =        -1.983662	    -113.655462
	 D(4,2,3,5)       =        -1.727522	     -98.979742
	 D(4,2,3,6)       =         0.403497	      23.118658
	 D(4,2,3,7)       =         2.458868	     140.882768
	 D(5,8,11,14)     =         1.054361	      60.410441
	 D(5,8,11,15)     =        -1.067358	     -61.155133
	 D(5,8,11,16)     =         3.135197	     179.633580
	 D(6,3,5,8)       =         1.028714	      58.940981
	 D(6,3,5,9)       =        -1.098479	     -62.938211
	 D(6,3,5,10)      =        -3.098650	    -177.539592
	 D(7,3,5,8)       =        -1.063688	     -60.944808
	 D(7,3,5,9)       =         3.092305	     177.176000
	 D(7,3,5,10)      =         1.092133	      62.574619
	*D(9,5,8,11)      =         2.268928	     129.999987
	 D(9,5,8,12)      =        -1.862524	    -106.714781
	 D(9,5,8,13)      =         0.134946	       7.731851
	 D(10,5,8,11)     =        -1.983178	    -113.627755
	 D(10,5,8,12)     =         0.168555	       9.657477
	 D(10,5,8,13)     =         2.166025	     124.104109
	 D(12,8,11,14)    =        -1.097697	     -62.893413
	 D(12,8,11,15)    =         3.063769	     175.541012
	 D(12,8,11,16)    =         0.983139	      56.329726
	 D(13,8,11,14)    =        -3.086124	    -176.821875
	 D(13,8,11,15)    =         1.075342	      61.612550
	 D(13,8,11,16)    =        -1.005288	     -57.598736

	Current energy   :      -309.0556572511

	Energy change for the previous step:
		Projected    :         0.0000008813
		Actual       :        -0.0000002637

	Performing BFGS update.
	Previous computed or guess Hessian on step 1.
	Steps to be used in Hessian update: 10 9
	Taking RFO optimization step.
	Going to follow RFO solution 1.
	Rejecting RFO root 1 because normalization gives large value.
	Using RFO vector 2.
	Norm of target step-size    0.00718
	Projected energy change by RFO approximation:        -0.0000005047

	Back-transformation to cartesian coordinates...
	Successfully converged to displaced geometry.

	Back-transformation to cartesian coordinates to adjust frozen coordinates...
	Successfully converged to displaced geometry.

	--- Internal Coordinate Step in ANG or DEG, aJ/ANG or AJ/DEG ---
	 ---------------------------------------------------------------------------
	   Coordinate                Previous        Force       Change         New 
	   ----------                --------       ------       ------       ------
	    1 R(1,2)          =      1.193446    -0.000008    -0.000001     1.193445
	    2 R(2,3)          =      1.519052     0.000039     0.000011     1.519062
	    3 R(2,4)          =      1.512762    -0.000094    -0.000016     1.512746
	    4 R(3,5)          =      1.540626    -0.000251    -0.000037     1.540589
	    5 R(3,6)          =      1.085273     0.000048     0.000000     1.085273
	    6 R(3,7)          =      1.082894     0.000097     0.000017     1.082910
	    7 R(4,17)         =      1.081093    -0.000015    -0.000002     1.081091
	    8 R(4,18)         =      1.086038     0.000053     0.000012     1.086050
	    9 R(4,19)         =      1.086885    -0.000015    -0.000004     1.086881
	   10 R(5,8)          =      1.553730    -0.000130    -0.000019     1.553712
	   11 R(5,9)          =      1.086742    -0.000001     0.000003     1.086745
	   12 R(5,10)         =      1.083711    -0.000076    -0.000009     1.083702
	   13 R(8,11)         =      1.531083    -0.000039     0.000005     1.531088
	   14 R(8,12)         =      1.085371    -0.000046    -0.000006     1.085365
	   15 R(8,13)         =      1.086162    -0.000026    -0.000003     1.086159
	   16 R(11,14)        =      1.085276     0.000013     0.000004     1.085280
	   17 R(11,15)        =      1.084709     0.000091     0.000007     1.084716
	   18 R(11,16)        =      1.085475    -0.000006    -0.000001     1.085474
	   19 B(1,2,3)        =    120.876235    -0.000000    -0.001593   120.874642
	   20 B(1,2,4)        =    121.632595     0.000000     0.002206   121.634802
	   21 B(2,3,5)        =    109.861703    -0.000001    -0.002534   109.859168
	   22 B(2,3,6)        =    110.203108     0.000001     0.004885   110.207993
	   23 B(2,3,7)        =    107.360948    -0.000000    -0.001562   107.359386
	   24 B(2,4,17)       =    110.005074    -0.000000     0.000663   110.005738
	   25 B(2,4,18)       =    110.853876    -0.000001    -0.008662   110.845214
	   26 B(2,4,19)       =    109.556889     0.000001     0.006446   109.563335
	   27 B(3,2,4)        =    117.485537    -0.000000    -0.000852   117.484685
	   28 B(3,5,8)        =    116.175398    -0.000002    -0.003205   116.172193
	   29 B(3,5,9)        =    107.624207     0.000001    -0.000654   107.623553
	   30 B(3,5,10)       =    107.457615     0.000000    -0.001175   107.456440
	   31 B(5,3,6)        =    110.590421    -0.000000     0.001415   110.591835
	   32 B(5,3,7)        =    110.445755     0.000000    -0.000714   110.445041
	   33 B(5,8,11)       =    117.195057    -0.000002    -0.003210   117.191847
	   34 B(5,8,12)       =    108.544705     0.000000    -0.000635   108.544070
	   35 B(5,8,13)       =    108.653237     0.000000    -0.003097   108.650141
	   36 B(6,3,7)        =    108.312955    -0.000000    -0.001526   108.311429
	   37 B(8,5,9)        =    108.551876     0.000000    -0.000158   108.551718
	   38 B(8,5,10)       =    109.902764     0.000001     0.004706   109.907470
	   39 B(8,11,14)      =    112.110898     0.000001     0.001713   112.112612
	   40 B(8,11,15)      =    112.076507    -0.000001    -0.000439   112.076068
	   41 B(8,11,16)      =    109.719596    -0.000000    -0.001192   109.718404
	   42 B(9,5,10)       =    106.717650    -0.000000     0.000677   106.718328
	   43 B(11,8,12)      =    108.508211     0.000001     0.006123   108.514334
	   44 B(11,8,13)      =    107.682807     0.000001     0.001302   107.684109
	   45 B(12,8,13)      =    105.665679    -0.000000    -0.000224   105.665455
	   46 B(14,11,15)     =    107.935801     0.000000     0.000353   107.936154
	   47 B(14,11,16)     =    107.384227    -0.000000    -0.000612   107.383614
	   48 B(15,11,16)     =    107.392268     0.000001     0.000125   107.392393
	   49 B(17,4,18)      =    109.883150     0.000000    -0.002043   109.881108
	   50 B(17,4,19)      =    109.339259     0.000000     0.004438   109.343697
	   51 B(18,4,19)      =    107.147516     0.000000    -0.000668   107.146848
	   52 D(1,2,3,5)      =     80.170644    -0.000000    -0.109614    80.061031
	   53 D(1,2,3,6)      =   -157.730955    -0.000000    -0.106307  -157.837262
	   54 D(1,2,3,7)      =    -39.966846    -0.000000    -0.106368   -40.073214
	   55 D(1,2,4,17)     =     -7.269636     0.000000     0.066319    -7.203317
	   56 D(1,2,4,18)     =   -129.005457     0.000000     0.074192  -128.931265
	   57 D(1,2,4,19)     =    112.951117     0.000000     0.076256   113.027373
	   58 D(2,3,5,8)      =   -179.191244     0.000000     0.005934  -179.185310
	   59 D(2,3,5,9)      =     58.929564     0.000000     0.008827    58.938391
	   60 D(2,3,5,10)     =    -55.671817     0.000000     0.008944   -55.662873
	   61 D(3,2,4,17)     =    171.873915    -0.000000     0.048388   171.922303
	   62 D(3,2,4,18)     =     50.138094    -0.000000     0.056261    50.194355
	   63 D(3,2,4,19)     =    -67.905331     0.000000     0.058325   -67.847007
	   64 D(3,5,8,11)     =      8.612673     0.000000     0.003203     8.615876
	   65 D(3,5,8,12)     =    131.897905     0.000000     0.008538   131.906443
	   66 D(3,5,8,13)     =   -113.655462     0.000000     0.006326  -113.649137
	   67 D(4,2,3,5)      =    -98.979742     0.000000    -0.091860   -99.071603
	   68 D(4,2,3,6)      =     23.118658     0.000000    -0.088553    23.030104
	   69 D(4,2,3,7)      =    140.882768     0.000000    -0.088615   140.794153
	   70 D(5,8,11,14)    =     60.410441     0.000000     0.100055    60.510496
	   71 D(5,8,11,15)    =    -61.155133     0.000000     0.098670   -61.056463
	   72 D(5,8,11,16)    =    179.633580     0.000000     0.099586   179.733166
	   73 D(6,3,5,8)      =     58.940981    -0.000000     0.000561    58.941541
	   74 D(6,3,5,9)      =    -62.938211    -0.000000     0.003453   -62.934758
	   75 D(6,3,5,10)     =   -177.539592    -0.000000     0.003570  -177.536022
	   76 D(7,3,5,8)      =    -60.944808    -0.000000     0.002014   -60.942795
	   77 D(7,3,5,9)      =    177.176000    -0.000000     0.004907   177.180906
	   78 D(7,3,5,10)     =     62.574619    -0.000000     0.005023    62.579642
	   79 *D(9,5,8,11)    =    129.999987    -0.000000     0.000000   129.999987
	   80 D(9,5,8,12)     =   -106.714781     0.000000     0.005335  -106.709446
	   81 D(9,5,8,13)     =      7.731851    -0.000000     0.003123     7.734974
	   82 D(10,5,8,11)    =   -113.627755     0.000000     0.003330  -113.624425
	   83 D(10,5,8,12)    =      9.657477     0.000000     0.008665     9.666142
	   84 D(10,5,8,13)    =    124.104109     0.000000     0.006453   124.110562
	   85 D(12,8,11,14)   =    -62.893413     0.000000     0.098168   -62.795246
	   86 D(12,8,11,15)   =    175.541012     0.000000     0.096783   175.637796
	   87 D(12,8,11,16)   =     56.329726     0.000000     0.097699    56.427424
	   88 D(13,8,11,14)   =   -176.821875     0.000000     0.094721  -176.727154
	   89 D(13,8,11,15)   =     61.612550     0.000000     0.093337    61.705888
	   90 D(13,8,11,16)   =    -57.598736     0.000000     0.094253   -57.504484
	 ---------------------------------------------------------------------------

  ==> Convergence Check <==

  Measures of convergence in internal coordinates in au.
  Criteria marked as inactive (o), active & met (*), and active & unmet ( ).
  ---------------------------------------------------------------------------------------------
   Step     Total Energy     Delta E     MAX Force     RMS Force      MAX Disp      RMS Disp   
  ---------------------------------------------------------------------------------------------
    Convergence Criteria    1.00e-06 *    3.00e-04 *             o    1.20e-03 *             o
  ---------------------------------------------------------------------------------------------
     11    -309.05565725   -2.64e-07 *    3.04e-05 *    7.72e-06 o    1.91e-03      7.56e-04 o  ~
  ---------------------------------------------------------------------------------------------


  **** Optimization is complete! (in 11 steps) ****

  ==> Optimization Summary <==

  Measures of convergence in internal coordinates in au.
  --------------------------------------------------------------------------------------------------------------- ~
   Step         Total Energy             Delta E       MAX Force       RMS Force        MAX Disp        RMS Disp  ~
  --------------------------------------------------------------------------------------------------------------- ~
      1    -309.051213860890   -309.051213860890      0.03918331      0.00767366      0.17454978      0.03632928  ~
      2    -309.051121789960      0.000092070931      0.02381031      0.00492474      0.06199256      0.01373655  ~
      3    -309.055002394608     -0.003880604649      0.01009821      0.00194188      0.05601885      0.01939998  ~
      4    -309.055176617614     -0.000174223006      0.00430542      0.00102416      0.11705017      0.04274297  ~
      5    -309.053569620293      0.001606997321      0.01484496      0.00300171      0.06923253      0.02699134  ~
      6    -309.055651158910     -0.002081538617      0.00089771      0.00017295      0.14050092      0.04416655  ~
      7    -309.055323471705      0.000327687205      0.00076845      0.00027723      0.11697016      0.03683458  ~
      8    -309.055649114538     -0.000325642833      0.00035886      0.00007979      0.02365638      0.00826310  ~
      9    -309.055655207782     -0.000006093245      0.00040399      0.00007816      0.00676180      0.00246318  ~
     10    -309.055656987387     -0.000001779605      0.00007825      0.00001938      0.00461350      0.00148404  ~
     11    -309.055657251118     -0.000000263731      0.00003043      0.00000772      0.00191312      0.00075642  ~
  --------------------------------------------------------------------------------------------------------------- ~

	Writing optimization data to binary file.
	Final energy is   -309.0556572511177
	Final (previous) structure:
	Cartesian Geometry (in Angstrom)
	    O    -1.8564732802  -1.2152362681  -0.7346427637
	    C    -1.4942755546  -0.1380444943  -0.3702460553
	    C    -0.2143597874   0.0240045639   0.4316731966
	    C    -2.2737907343   1.1152778714  -0.7018920796
	    C     1.0022512400  -0.0030721019  -0.5131298935
	    H    -0.2397545125   0.9514203051   0.9947645636
	    H    -0.1665062599  -0.7991047100   1.1337130074
	    C     2.3959940951   0.1323398581   0.1600881566
	    H     0.8827433010   0.8077381685  -1.2267914752
	    H     0.9539776085  -0.9260633538  -1.0789801560
	    C     2.4429804540   0.0746083547   1.6893609933
	    H     3.0464399221  -0.6419884536  -0.2340768372
	    H     2.8407540689   1.0740466909  -0.1483359211
	    H     2.0642671633  -0.8667267201   2.0744424205
	    H     1.8717264138   0.8760770581   2.1453331848
	    H     3.4693658684   0.1742299841   2.0282781089
	    H    -3.0753496462   0.8814306004  -1.3886092810
	    H    -1.6249632828   1.8708512455  -1.1350319378
	    H    -2.6915322164   1.5356840746   0.2091899454
	Saving final (previous) structure.
			--------------------------
			 OPTKING Finished Execution 
			--------------------------

    Final optimized geometry and variables:
    Molecular point group: c1
    Full point group: C1

    Geometry (in Angstrom), charge = 0, multiplicity = 1:

    O           -1.856473138442    -1.215236175308    -0.734642707605
    C           -1.494275440523    -0.138044483743    -0.370246026990
    C           -0.214359770987     0.024004562107     0.431673163611
    C           -2.273790560648     1.115277786200    -0.701892026019
    C            1.002251163468    -0.003072101648    -0.513129854311
    H           -0.239754494144     0.951420232466     0.994764487614
    H           -0.166506247186    -0.799104649023     1.133712920801
    C            2.395993912129     0.132339847993     0.160088144382
    H            0.882743233622     0.807738106830    -1.226791381556
    H            0.953977535656    -0.926063283122    -1.078980073604
    C            2.442980267468     0.074608348980     1.689360864320
    H            3.046439689429    -0.641988404620    -0.234076819335
    H            2.840753851938     1.074046608835    -0.148335909762
    H            2.064267005617    -0.866726653873     2.074442262093
    H            1.871726270900     0.876076991224     2.145333020961
    H            3.469365603436     0.174229970816     2.028277954051
    H           -3.075349411345     0.881430533054    -1.388609174945
    H           -1.624963158717     1.870851102670    -1.135031851113
    H           -2.691532010872     1.535683957310     0.209189929475

	Cleaning optimization helper files.


Properties will be evaluated at   0.000000,   0.000000,   0.000000 Bohr

Properties computed using the  density matrix

  Nuclear Dipole Moment: (a.u.)
     X:     6.8638      Y:     4.6230      Z:     3.1594

  Electronic Dipole Moment: (a.u.)
     X:    -6.3606      Y:    -3.5751      Z:    -2.8121

  Dipole Moment: (a.u.)
     X:     0.5032      Y:     1.0479      Z:     0.3473     Total:     1.2132

  Dipole Moment: (Debye)
     X:     1.2790      Y:     2.6635      Z:     0.8827     Total:     3.0838

  Quadrupole Moment: (Debye Ang)
    XX:   -46.6710     YY:   -47.6035     ZZ:   -45.6287
    XY:    -5.7595     XZ:    -2.0283     YZ:    -2.3069

  Traceless Quadrupole Moment: (Debye Ang)
    XX:    -0.0366     YY:    -0.9691     ZZ:     1.0057
    XY:    -5.7595     XZ:    -2.0283     YZ:    -2.3069

  Mulliken Charges: (a.u.)
   Center  Symbol    Alpha    Beta     Spin     Total
       1     O     4.26242  4.26242  0.00000 -0.52484
       2     C     2.73711  2.73711  0.00000  0.52578
       3     C     3.20172  3.20172  0.00000 -0.40345
       4     C     3.28951  3.28951  0.00000 -0.57903
       5     C     3.16667  3.16667  0.00000 -0.33334
       6     H     0.41650  0.41650  0.00000  0.16700
       7     H     0.39984  0.39984  0.00000  0.20032
       8     C     3.15542  3.15542  0.00000 -0.31084
       9     H     0.41886  0.41886  0.00000  0.16229
      10     H     0.40326  0.40326  0.00000  0.19348
      11     C     3.24387  3.24387  0.00000 -0.48773
      12     H     0.41565  0.41565  0.00000  0.16870
      13     H     0.41936  0.41936  0.00000  0.16128
      14     H     0.41856  0.41856  0.00000  0.16289
      15     H     0.42109  0.42109  0.00000  0.15782
      16     H     0.41639  0.41639  0.00000  0.16721
      17     H     0.39702  0.39702  0.00000  0.20595
      18     H     0.41000  0.41000  0.00000  0.18001
      19     H     0.40675  0.40675  0.00000  0.18651

   Total alpha = 28.00000, Total beta = 28.00000, Total charge =  0.00000


*** PSI4 exiting successfully. Buy a developer a beer!
