    -----------------------------------------------------------------------
          Psi4: An Open-Source Ab Initio Electronic Structure Package
                              Psi4 1.0.54 Driver

                          Git: Rev {master} 8d4cec3 dirty

    J. M. Turney, A. C. Simmonett, R. M. Parrish, E. G. Hohenstein,
    F. A. Evangelista, J. T. Fermann, B. J. Mintz, L. A. Burns, J. J. Wilke,
    M. L. Abrams, N. J. Russ, M. L. Leininger, C. L. Janssen, E. T. Seidl,
    W. D. Allen, H. F. Schaefer, R. A. King, E. F. Valeev, C. D. Sherrill,
    and T. D. Crawford, WIREs Comput. Mol. Sci. 2, 556-565 (2012)
    (doi: 10.1002/wcms.93)

                         Additional Contributions by
    A. E. DePrince, U. Bozkaya, A. Yu. Sokolov, D. G. A. Smith, R. Di Remigio,
    R. M. Richard, J. F. Gonthier, H. R. McAlexander, M. Saitow, and
    B. P. Pritchard
    -----------------------------------------------------------------------


    Psi4 started on: Sat Sep 10 15:14:15 2016

    Process ID:  33934
    PSI4DATADIR: /export131/home/mjharvey/miniconda3/share/psi4
    Memory level set to 256.000 MB

  ==> Input File <==

--------------------------------------------------------------------------
set {
	reference rhf
	basis cc-pvtz
}


set_num_threads( 4 )
memory 2 gb

molecule MOL {
0 1

H	 0.395136	 3.540761	 -1.852900
O	 -0.067968	 2.949236	 -1.289263
C	 0.803130	 1.958494	 -0.807978
C	 0.027642	 1.012027	 0.090274
H	 1.609712	 2.409673	 -0.235589
H	 1.255289	 1.417152	 -1.634394
C	 -1.138737	 0.285728	 -0.581921
H	 -0.350894	 1.583555	 0.931447
H	 0.728474	 0.285268	 0.493844
C	 -1.933983	 -0.631436	 0.343653
H	 -0.763151	 -0.285569	 -1.422081
H	 -1.808359	 1.035291	 -0.992333
H	 -2.789188	 -1.049673	 -0.174718
H	 -1.335629	 -1.461368	 0.700418
H	 -2.305435	 -0.092167	 1.209725

	symmetry c1
}
set optking {
	frozen_dihedral = ("
		8 4 7 11
	")
}

ee,wfn = optimize('scf', return_wfn=True)
oeprop( wfn, 'DIPOLE', 'QUADRUPOLE', 'MULLIKEN_CHARGES')
f=open( 'psi4out.xyz', 'w' )
f.write( "15  " )
f.write( str(ee) + "\n" )
f.write( MOL.save_string_xyz() )
f.close()
--------------------------------------------------------------------------

  Memory set to   2.000 GiB by Python script.
gradient() will perform analytic gradient computation.

*** tstart() called on cx1-27-1-2
*** at Sat Sep 10 15:14:15 2016


         ---------------------------------------------------------
                                   SCF
            by Justin Turney, Rob Parrish, and Andy Simmonett
                              RHF Reference
                        4 Threads,   2000 MiB Core
         ---------------------------------------------------------

  ==> Geometry <==

    Molecular point group: c1
    Full point group: C1

    Geometry (in Angstrom), charge = 0, multiplicity = 1:

       Center              X                  Y                   Z               Mass       
    ------------   -----------------  -----------------  -----------------  -----------------
           H          0.845994785472     2.378245145687    -1.379136141290     1.007825032070
           O          0.382890785472     1.786720145687    -0.815499141290    15.994914619560
           C          1.253988785472     0.795978145687    -0.334214141290    12.000000000000
           C          0.478500785472    -0.150488854313     0.564037858710    12.000000000000
           H          2.060570785472     1.247157145687     0.238174858710     1.007825032070
           H          1.706147785472     0.254636145687    -1.160630141290     1.007825032070
           C         -0.687878214528    -0.876787854313    -0.108157141290    12.000000000000
           H          0.099964785472     0.421039145687     1.405210858710     1.007825032070
           H          1.179332785472    -0.877247854313     0.967607858710     1.007825032070
           C         -1.483124214528    -1.793951854313     0.817416858710    12.000000000000
           H         -0.312292214528    -1.448084854313    -0.948317141290     1.007825032070
           H         -1.357500214528    -0.127224854313    -0.518569141290     1.007825032070
           H         -2.338329214528    -2.212188854313     0.299045858710     1.007825032070
           H         -0.884770214528    -2.623883854313     1.174181858710     1.007825032070
           H         -1.854576214528    -1.254682854313     1.683488858710     1.007825032070

  Running in c1 symmetry.

  Rotational constants: A =      0.42528  B =      0.07863  C =      0.07237 [cm^-1]
  Rotational constants: A =  12749.54658  B =   2357.24940  C =   2169.47642 [MHz]
  Nuclear repulsion =  188.500446552557662

  Charge       = 0
  Multiplicity = 1
  Electrons    = 42
  Nalpha       = 21
  Nbeta        = 21

  ==> Algorithm <==

  SCF Algorithm Type is DF.
  DIIS enabled.
  MOM disabled.
  Fractional occupation disabled.
  Guess Type is SAD.
  Energy threshold   = 1.00e-08
  Density threshold  = 1.00e-08
  Integral threshold = 0.00e+00

  ==> Primary Basis <==

  Basis Set: CC-PVTZ
    Number of shells: 110
    Number of basis function: 290
    Number of Cartesian functions: 325
    Spherical Harmonics?: true
    Max angular momentum: 3

  ==> Pre-Iterations <==

   -------------------------------------------------------
    Irrep   Nso     Nmo     Nalpha   Nbeta   Ndocc  Nsocc
   -------------------------------------------------------
     A        290     290       0       0       0       0
   -------------------------------------------------------
    Total     290     290      21      21      21       0
   -------------------------------------------------------

  ==> Integral Setup <==

  ==> DFJK: Density-Fitted J/K Matrices <==

    J tasked:                  Yes
    K tasked:                  Yes
    wK tasked:                  No
    OpenMP threads:              4
    Integrals threads:           4
    Memory (MB):              1430
    Algorithm:                Core
    Integral Cache:           NONE
    Schwarz Cutoff:          1E-12
    Fitting Condition:       1E-12

   => Auxiliary Basis Set <=

  Basis Set: 
    Number of shells: 225
    Number of basis function: 695
    Number of Cartesian functions: 830
    Spherical Harmonics?: true
    Max angular momentum: 4

  Minimum eigenvalue in the overlap matrix is 4.8511743723E-04.
  Using Symmetric Orthogonalization.
  SCF Guess: Superposition of Atomic Densities via on-the-fly atomic UHF.

  ==> Iterations <==

                           Total Energy        Delta E     RMS |[F,P]|

   @DF-RHF iter   0:  -234.19727376579868   -2.34197e+02   1.49465e-02 
   @DF-RHF iter   1:  -232.11759057596873    2.07968e+00   1.35434e-03 
   @DF-RHF iter   2:  -232.22373304274248   -1.06142e-01   4.65777e-04 DIIS
   @DF-RHF iter   3:  -232.23578946090464   -1.20564e-02   2.35339e-04 DIIS
   @DF-RHF iter   4:  -232.23838265868841   -2.59320e-03   4.54303e-05 DIIS
   @DF-RHF iter   5:  -232.23856073980107   -1.78081e-04   1.28962e-05 DIIS
   @DF-RHF iter   6:  -232.23857768465649   -1.69449e-05   3.97250e-06 DIIS
   @DF-RHF iter   7:  -232.23857922876181   -1.54411e-06   1.40342e-06 DIIS
   @DF-RHF iter   8:  -232.23857943180082   -2.03039e-07   3.60988e-07 DIIS
   @DF-RHF iter   9:  -232.23857944744310   -1.56423e-08   8.44276e-08 DIIS
   @DF-RHF iter  10:  -232.23857944814557   -7.02471e-10   2.45940e-08 DIIS
   @DF-RHF iter  11:  -232.23857944819844   -5.28644e-11   7.14380e-09 DIIS

  ==> Post-Iterations <==

    Orbital Energies (a.u.)
    -----------------------

    Doubly Occupied:                                                      

       1A    -20.546536     2A    -11.266716     3A    -11.211024  
       4A    -11.207095     5A    -11.203398     6A     -1.364413  
       7A     -1.064280     8A     -0.975680     9A     -0.858880  
      10A     -0.785864    11A     -0.708241    12A     -0.640530  
      13A     -0.610705    14A     -0.592723    15A     -0.547262  
      16A     -0.530610    17A     -0.516342    18A     -0.473546  
      19A     -0.465612    20A     -0.458975    21A     -0.432933  

    Virtual:                                                              

      22A      0.140734    23A      0.155071    24A      0.176492  
      25A      0.180775    26A      0.205435    27A      0.217761  
      28A      0.228419    29A      0.242620    30A      0.251692  
      31A      0.261498    32A      0.310335    33A      0.323916  
      34A      0.343274    35A      0.374617    36A      0.403205  
      37A      0.420734    38A      0.433220    39A      0.455761  
      40A      0.474154    41A      0.513851    42A      0.549218  
      43A      0.563948    44A      0.575574    45A      0.584171  
      46A      0.590860    47A      0.613326    48A      0.632422  
      49A      0.638191    50A      0.650481    51A      0.656843  
      52A      0.665644    53A      0.684447    54A      0.687829  
      55A      0.695789    56A      0.712814    57A      0.725066  
      58A      0.757857    59A      0.775208    60A      0.808350  
      61A      0.839004    62A      0.848183    63A      0.865944  
      64A      0.898371    65A      0.916626    66A      0.930709  
      67A      0.951646    68A      0.989140    69A      1.010886  
      70A      1.057218    71A      1.064548    72A      1.078111  
      73A      1.093453    74A      1.120665    75A      1.154374  
      76A      1.191892    77A      1.224315    78A      1.236891  
      79A      1.248853    80A      1.272900    81A      1.279845  
      82A      1.303984    83A      1.312184    84A      1.317453  
      85A      1.341760    86A      1.361466    87A      1.373287  
      88A      1.389250    89A      1.399127    90A      1.418902  
      91A      1.432717    92A      1.436359    93A      1.465501  
      94A      1.479335    95A      1.498954    96A      1.511343  
      97A      1.518016    98A      1.551968    99A      1.567115  
     100A      1.591455   101A      1.605084   102A      1.609815  
     103A      1.643469   104A      1.653213   105A      1.681577  
     106A      1.712470   107A      1.737515   108A      1.777632  
     109A      1.802553   110A      1.827244   111A      1.835988  
     112A      1.868609   113A      1.885231   114A      1.944075  
     115A      2.041707   116A      2.136349   117A      2.285974  
     118A      2.308648   119A      2.388076   120A      2.409930  
     121A      2.534479   122A      2.587727   123A      2.606953  
     124A      2.640270   125A      2.666459   126A      2.695111  
     127A      2.708891   128A      2.727611   129A      2.767111  
     130A      2.803658   131A      2.813847   132A      2.850798  
     133A      2.870691   134A      2.877861   135A      2.922120  
     136A      2.932653   137A      2.969444   138A      3.011891  
     139A      3.032033   140A      3.036492   141A      3.097341  
     142A      3.112708   143A      3.129622   144A      3.156540  
     145A      3.179957   146A      3.199041   147A      3.217512  
     148A      3.245099   149A      3.248969   150A      3.284595  
     151A      3.306058   152A      3.316678   153A      3.336069  
     154A      3.346343   155A      3.356661   156A      3.376533  
     157A      3.404079   158A      3.418431   159A      3.428237  
     160A      3.430111   161A      3.453547   162A      3.467514  
     163A      3.477622   164A      3.486744   165A      3.508707  
     166A      3.525972   167A      3.555481   168A      3.576816  
     169A      3.598467   170A      3.602029   171A      3.632069  
     172A      3.653978   173A      3.679212   174A      3.710127  
     175A      3.747381   176A      3.762392   177A      3.782196  
     178A      3.796155   179A      3.816823   180A      3.829073  
     181A      3.851005   182A      3.870309   183A      3.892465  
     184A      3.899628   185A      3.938858   186A      3.945493  
     187A      3.972878   188A      3.989586   189A      4.026082  
     190A      4.036422   191A      4.052704   192A      4.094928  
     193A      4.123778   194A      4.136858   195A      4.146185  
     196A      4.162000   197A      4.175585   198A      4.187105  
     199A      4.201653   200A      4.218352   201A      4.233280  
     202A      4.246527   203A      4.266224   204A      4.284205  
     205A      4.305054   206A      4.329671   207A      4.348821  
     208A      4.377330   209A      4.386851   210A      4.407835  
     211A      4.416739   212A      4.432889   213A      4.461029  
     214A      4.484997   215A      4.488296   216A      4.496347  
     217A      4.530758   218A      4.552324   219A      4.577942  
     220A      4.595440   221A      4.619643   222A      4.639846  
     223A      4.662697   224A      4.679746   225A      4.698428  
     226A      4.729891   227A      4.762748   228A      4.772627  
     229A      4.800300   230A      4.842280   231A      4.851097  
     232A      4.902959   233A      4.987755   234A      5.033330  
     235A      5.038679   236A      5.062565   237A      5.106694  
     238A      5.143222   239A      5.175504   240A      5.189807  
     241A      5.232322   242A      5.246905   243A      5.252912  
     244A      5.288030   245A      5.303276   246A      5.337769  
     247A      5.341588   248A      5.386028   249A      5.424393  
     250A      5.429325   251A      5.500989   252A      5.514910  
     253A      5.595096   254A      5.601867   255A      5.628787  
     256A      5.720378   257A      5.749230   258A      5.768217  
     259A      5.773122   260A      5.807497   261A      5.836463  
     262A      5.866961   263A      5.900653   264A      5.906559  
     265A      5.927278   266A      5.944413   267A      5.989609  
     268A      6.025489   269A      6.081575   270A      6.258410  
     271A      6.318585   272A      6.326056   273A      6.348285  
     274A      6.374800   275A      6.460866   276A      6.490639  
     277A      6.688236   278A      7.083908   279A      7.173370  
     280A      7.247860   281A      7.294351   282A      7.444068  
     283A      7.546846   284A      7.737276   285A      8.042123  
     286A     12.798160   287A     13.283568   288A     13.511441  
     289A     13.801649   290A     14.234209  

    Final Occupation by Irrep:
              A 
    DOCC [    21 ]

  Energy converged.

  @DF-RHF Final Energy:  -232.23857944819844

   => Energetics <=

    Nuclear Repulsion Energy =            188.5004465525576620
    One-Electron Energy =                -688.5553261856405243
    Two-Electron Energy =                 267.8163001848844260
    DFT Exchange-Correlation Energy =       0.0000000000000000
    Empirical Dispersion Energy =           0.0000000000000000
    PCM Polarization Energy =               0.0000000000000000
    EFP Energy =                            0.0000000000000000
    Total Energy =                       -232.2385794481984362


  Saving occupied orbitals to File 180.

*** tstop() called on cx1-27-1-2 at Sat Sep 10 15:14:20 2016
Module time:
	user time   =      15.65 seconds =       0.26 minutes
	system time =       0.51 seconds =       0.01 minutes
	total time  =          5 seconds =       0.08 minutes
Total time:
	user time   =      15.65 seconds =       0.26 minutes
	system time =       0.51 seconds =       0.01 minutes
	total time  =          5 seconds =       0.08 minutes


Properties will be evaluated at   0.000000,   0.000000,   0.000000 Bohr

Properties computed using the SCF density matrix

  Nuclear Dipole Moment: (a.u.)
     X:    -0.8001      Y:    -3.9684      Z:     1.6470

  Electronic Dipole Moment: (a.u.)
     X:     1.3906      Y:     3.9785      Z:    -1.8256

  Dipole Moment: (a.u.)
     X:     0.5905      Y:     0.0101      Z:    -0.1785     Total:     0.6170

  Dipole Moment: (Debye)
     X:     1.5009      Y:     0.0258      Z:    -0.4538     Total:     1.5683


*** tstart() called on cx1-27-1-2
*** at Sat Sep 10 15:14:20 2016


         ------------------------------------------------------------
                                   SCF GRAD                          
                          Rob Parrish, Justin Turney,                
                       Andy Simmonett, and Alex Sokolov              
         ------------------------------------------------------------

  ==> Geometry <==

    Molecular point group: c1
    Full point group: C1

    Geometry (in Angstrom), charge = 0, multiplicity = 1:

       Center              X                  Y                   Z               Mass       
    ------------   -----------------  -----------------  -----------------  -----------------
           H          0.845994785472     2.378245145687    -1.379136141290     1.007825032070
           O          0.382890785472     1.786720145687    -0.815499141290    15.994914619560
           C          1.253988785472     0.795978145687    -0.334214141290    12.000000000000
           C          0.478500785472    -0.150488854313     0.564037858710    12.000000000000
           H          2.060570785472     1.247157145687     0.238174858710     1.007825032070
           H          1.706147785472     0.254636145687    -1.160630141290     1.007825032070
           C         -0.687878214528    -0.876787854313    -0.108157141290    12.000000000000
           H          0.099964785472     0.421039145687     1.405210858710     1.007825032070
           H          1.179332785472    -0.877247854313     0.967607858710     1.007825032070
           C         -1.483124214528    -1.793951854313     0.817416858710    12.000000000000
           H         -0.312292214528    -1.448084854313    -0.948317141290     1.007825032070
           H         -1.357500214528    -0.127224854313    -0.518569141290     1.007825032070
           H         -2.338329214528    -2.212188854313     0.299045858710     1.007825032070
           H         -0.884770214528    -2.623883854313     1.174181858710     1.007825032070
           H         -1.854576214528    -1.254682854313     1.683488858710     1.007825032070

  Nuclear repulsion =  188.500446552557662

  ==> Basis Set <==

  Basis Set: CC-PVTZ
    Number of shells: 110
    Number of basis function: 290
    Number of Cartesian functions: 325
    Spherical Harmonics?: true
    Max angular momentum: 3

  ==> DFJKGrad: Density-Fitted SCF Gradients <==

    Gradient:                    1
    J tasked:                  Yes
    K tasked:                  Yes
    wK tasked:                  No
    OpenMP threads:              4
    Integrals threads:           4
    Memory (MB):              1430
    Schwarz Cutoff:          0E+00
    Fitting Condition:       1E-12

   => Auxiliary Basis Set <=

  Basis Set: 
    Number of shells: 225
    Number of basis function: 695
    Number of Cartesian functions: 830
    Spherical Harmonics?: true
    Max angular momentum: 4


  -Total Gradient:
     Atom            X                  Y                   Z
    ------   -----------------  -----------------  -----------------
       1        0.000070459688     0.000023265704    -0.000055465904
       2       -0.000589611661    -0.000379795462    -0.000095064658
       3        0.002255419557     0.000389439695     0.000107130912
       4        0.001536875221     0.003365283702    -0.003928976661
       5        0.000038007081     0.000060689026    -0.000063447897
       6        0.000494755559     0.001351782674     0.000973962808
       7        0.001490315321    -0.006833670895     0.002722974172
       8       -0.000205579152    -0.000301852295    -0.000959863247
       9       -0.000291043261    -0.000201124053    -0.000393008869
      10       -0.001766503907    -0.001053257430    -0.000593727380
      11       -0.000338395226     0.001774513853     0.002137250196
      12       -0.000921388629     0.001678924651     0.000480436600
      13       -0.000044569285    -0.000260953256     0.000196339788
      14       -0.001415202951     0.000243047980    -0.001030975132
      15       -0.000313538355     0.000143706108     0.000502435271


*** tstop() called on cx1-27-1-2 at Sat Sep 10 15:14:25 2016
Module time:
	user time   =      17.68 seconds =       0.29 minutes
	system time =       0.43 seconds =       0.01 minutes
	total time  =          5 seconds =       0.08 minutes
Total time:
	user time   =      33.39 seconds =       0.56 minutes
	system time =       0.95 seconds =       0.02 minutes
	total time  =         10 seconds =       0.17 minutes

			-----------------------------------------
			 OPTKING 2.0: for geometry optimizations 
			  - R.A. King,  Bethel University        
			-----------------------------------------

	Internal coordinates to be generated automatically.
	Detected frag 1 with atoms:  1 2 3 4 5 6 7 8 9 10 11 12 13 14 15
	---Fragment 1 Bond Connectivity---
	 1 : 2
	 2 : 1 3
	 3 : 2 4 5 6
	 4 : 3 7 8 9
	 5 : 3
	 6 : 3
	 7 : 4 10 11 12
	 8 : 4
	 9 : 4
	 10 : 7 13 14 15
	 11 : 7
	 12 : 7
	 13 : 10
	 14 : 10
	 15 : 10

	Assuming in current code that numbering for constraints corresponds to unified fragment.
	Frozen dihedral atom list: 
	     8     4     7    11
	---Fragment 1 Geometry and Gradient---
	 H           1.5986984544        4.4942320022       -2.6061896070
	 O           0.7235587233        3.3764117515       -1.5410700386
	 C           2.3696953783        1.5041807031       -0.6315731968
	 C           0.9042354389       -0.2843827207        1.0658770815
	 H           3.8939144620        2.3567854500        0.4500852547
	 H           3.2241520568        0.4811925789       -2.1932731086
	 C          -1.2999014382       -1.6568889213       -0.2043873764
	 H           0.1889060675        0.7956486766        2.6554636819
	 H           2.2286159841       -1.6577581953        1.8285138570
	 C          -2.8026985865       -3.3900777002        1.5446939994
	 H          -0.5901467589       -2.7364837918       -1.7920596842
	 H          -2.5653036308       -0.2404201319       -0.9799536580
	 H          -4.4188018240       -4.1804310889        0.5651147741
	 H          -1.6719733960       -4.9584218892        2.2188821432
	 H          -3.5046411380       -2.3710069783        3.1813328907
	             0.0000704597        0.0000232657       -0.0000554659
	            -0.0005896117       -0.0003797955       -0.0000950647
	             0.0022554196        0.0003894397        0.0001071309
	             0.0015368752        0.0033652837       -0.0039289767
	             0.0000380071        0.0000606890       -0.0000634479
	             0.0004947556        0.0013517827        0.0009739628
	             0.0014903153       -0.0068336709        0.0027229742
	            -0.0002055792       -0.0003018523       -0.0009598632
	            -0.0002910433       -0.0002011241       -0.0003930089
	            -0.0017665039       -0.0010532574       -0.0005937274
	            -0.0003383952        0.0017745139        0.0021372502
	            -0.0009213886        0.0016789247        0.0004804366
	            -0.0000445693       -0.0002609533        0.0001963398
	            -0.0014152030        0.0002430480       -0.0010309751
	            -0.0003135384        0.0001437061        0.0005024353

	Previous optimization step data not found.  Starting new optimization.

	---Fragment 1 Intrafragment Coordinates---
	 - Coordinate -           - BOHR/RAD -       - ANG/DEG -
	 R(1,2)           =         1.774788	       0.939177
	 R(2,3)           =         2.653714	       1.404285
	 R(3,4)           =         2.868426	       1.517906
	 R(3,5)           =         2.054304	       1.087091
	 R(3,6)           =         2.053170	       1.086491
	 R(4,7)           =         2.890599	       1.529639
	 R(4,8)           =         2.050597	       1.085129
	 R(4,9)           =         2.054692	       1.087296
	 R(7,10)          =         2.884723	       1.526530
	 R(7,11)          =         2.046944	       1.083196
	 R(7,12)          =         2.051616	       1.085669
	 R(10,13)         =         2.048420	       1.083977
	 R(10,14)         =         2.047626	       1.083557
	 R(10,15)         =         2.051783	       1.085757
	 B(1,2,3)         =         1.922146	     110.130830
	 B(2,3,4)         =         1.902668	     109.014830
	 B(2,3,5)         =         1.926122	     110.358651
	 B(2,3,6)         =         1.927286	     110.425328
	 B(3,4,7)         =         2.010398	     115.187333
	 B(3,4,8)         =         1.884454	     107.971243
	 B(3,4,9)         =         1.882961	     107.885728
	 B(4,3,5)         =         1.903147	     109.042263
	 B(4,3,6)         =         1.930566	     110.613264
	 B(4,7,10)        =         1.999909	     114.586373
	 B(4,7,11)        =         1.903797	     109.079546
	 B(4,7,12)        =         1.884528	     107.975490
	 B(5,3,6)         =         1.873924	     107.367924
	 B(7,4,8)         =         1.901529	     108.949614
	 B(7,4,9)         =         1.914768	     109.708128
	 B(7,10,13)       =         1.931431	     110.662860
	 B(7,10,14)       =         1.952115	     111.847934
	 B(7,10,15)       =         1.942774	     111.312765
	 B(8,4,9)         =         1.864158	     106.808364
	 B(10,7,11)       =         1.911380	     109.513984
	 B(10,7,12)       =         1.899385	     108.826733
	 B(11,7,12)       =         1.859585	     106.546358
	 B(13,10,14)      =         1.872972	     107.313373
	 B(13,10,15)      =         1.878822	     107.648593
	 B(14,10,15)      =         1.882526	     107.860770
	 D(1,2,3,4)       =        -3.134309	    -179.582672
	 D(1,2,3,5)       =         1.059131	      60.683714
	 D(1,2,3,6)       =        -1.009980	     -57.867583
	 D(2,3,4,7)       =         1.047860	      60.037982
	 D(2,3,4,8)       =        -1.081311	     -61.954580
	 D(2,3,4,9)       =        -3.090097	    -177.049525
	 D(3,4,7,10)      =        -3.112030	    -178.306184
	 D(3,4,7,11)      =         1.021640	      58.535662
	 D(3,4,7,12)      =        -0.992574	     -56.870306
	 D(4,7,10,13)     =         3.061672	     175.420882
	 D(4,7,10,14)     =        -1.134175	     -64.983443
	 D(4,7,10,15)     =         0.973109	      55.755031
	 D(5,3,4,7)       =        -3.131410	    -179.416557
	 D(5,3,4,8)       =         1.022604	      58.590881
	 D(5,3,4,9)       =        -0.986182	     -56.504064
	 D(6,3,4,7)       =        -1.074478	     -61.563032
	 D(6,3,4,8)       =         3.079536	     176.444406
	 D(6,3,4,9)       =         1.070750	      61.349461
	 D(8,4,7,10)      =        -0.992078	     -56.841866
	*D(8,4,7,11)      =         3.141593	     180.000000
	 D(8,4,7,12)      =         1.127378	      64.594012
	 D(9,4,7,10)      =         1.042972	      59.757885
	 D(9,4,7,11)      =        -1.106543	     -63.400270
	 D(9,4,7,12)      =        -3.120758	    -178.806237
	 D(11,7,10,13)    =        -1.076080	     -61.654825
	 D(11,7,10,14)    =         1.011259	      57.940850
	 D(11,7,10,15)    =         3.118542	     178.679323
	 D(12,7,10,13)    =         0.950377	      54.452572
	 D(12,7,10,14)    =         3.037715	     174.048247
	 D(12,7,10,15)    =        -1.138186	     -65.213279

	Current energy   :      -232.2385794482

	Generating empirical Hessian (Schlegel '84) for each fragment.
	Taking RFO optimization step.
	Going to follow RFO solution 1.
	Using RFO vector 1.
	Norm of target step-size    0.33522
	Projected energy change by RFO approximation:         0.0013748789

	Back-transformation to cartesian coordinates...
	Could not converge backtransformation.
	Using first guess instead.

	Back-transformation to cartesian coordinates to adjust frozen coordinates...
	Successfully converged to displaced geometry.

	--- Internal Coordinate Step in ANG or DEG, aJ/ANG or AJ/DEG ---
	 ---------------------------------------------------------------------------
	   Coordinate                Previous        Force       Change         New 
	   ----------                --------       ------       ------       ------
	    1 R(1,2)          =      0.939177    -0.000681     0.000207     0.939384
	    2 R(2,3)          =      1.404285    -0.001006     0.002806     1.407091
	    3 R(3,4)          =      1.517906    -0.012748    -0.002321     1.515585
	    4 R(3,5)          =      1.087091    -0.000165     0.003091     1.090182
	    5 R(3,6)          =      1.086491     0.009956     0.004805     1.091296
	    6 R(4,7)          =      1.529639    -0.021657    -0.004444     1.525195
	    7 R(4,8)          =      1.085129     0.006849     0.001287     1.086416
	    8 R(4,9)          =      1.087296     0.001640     0.000373     1.087669
	    9 R(7,10)         =      1.526530    -0.015158    -0.002793     1.523737
	   10 R(7,11)         =      1.083196     0.022335     0.004106     1.087302
	   11 R(7,12)         =      1.085669    -0.012736    -0.002137     1.083531
	   12 R(10,13)        =      1.083977    -0.000346     0.003996     1.087973
	   13 R(10,14)        =      1.083557     0.010769     0.006574     1.090131
	   14 R(10,15)        =      1.085757    -0.004774     0.001698     1.087455
	   15 B(1,2,3)        =    110.130830     0.000005    -0.083003   110.047827
	   16 B(2,3,4)        =    109.014830     0.000086     0.156583   109.171413
	   17 B(2,3,5)        =    110.358651    -0.000037    -0.057695   110.300956
	   18 B(2,3,6)        =    110.425328     0.000007     0.167832   110.593160
	   19 B(3,4,7)        =    115.187333    -0.000405    -1.439449   113.747883
	   20 B(3,4,8)        =    107.971243     0.000105     0.660955   108.632198
	   21 B(3,4,9)        =    107.885728     0.000104    -0.090557   107.795171
	   22 B(4,3,5)        =    109.042263    -0.000006     0.066038   109.108300
	   23 B(4,3,6)        =    110.613264    -0.000100    -0.617294   109.995971
	   24 B(4,7,10)       =    114.586373    -0.000543    -1.993548   112.592825
	   25 B(4,7,11)       =    109.079546     0.000171     0.126664   109.206210
	   26 B(4,7,12)       =    107.975490     0.000209     1.362760   109.338250
	   27 B(5,3,6)        =    107.367924     0.000047     0.278954   107.646878
	   28 B(7,4,8)        =    108.949614     0.000166     0.946763   109.896377
	   29 B(7,4,9)        =    109.708128     0.000114     0.035670   109.743798
	   30 B(7,10,13)      =    110.662860    -0.000009     0.076540   110.739400
	   31 B(7,10,14)      =    111.847934    -0.000045    -0.261243   111.586691
	   32 B(7,10,15)      =    111.312765    -0.000018    -0.347554   110.965212
	   33 B(8,4,9)        =    106.808364    -0.000066    -0.037737   106.770628
	   34 B(10,7,11)      =    109.513984     0.000131    -0.401352   109.112632
	   35 B(10,7,12)      =    108.826733     0.000178     1.017164   109.843897
	   36 B(11,7,12)      =    106.546358    -0.000120     0.017066   106.563424
	   37 B(13,10,14)     =    107.313373     0.000055     0.470418   107.783792
	   38 B(13,10,15)     =    107.648593     0.000017     0.175505   107.824098
	   39 B(14,10,15)     =    107.860770     0.000004    -0.077142   107.783628
	   40 D(1,2,3,4)      =   -179.582672     0.000007     0.115708  -179.466964
	   41 D(1,2,3,5)      =     60.683714     0.000001    -0.028108    60.655606
	   42 D(1,2,3,6)      =    -57.867583    -0.000008    -0.442668   -58.310251
	   43 D(2,3,4,7)      =     60.037982     0.000010     4.822929    64.860912
	   44 D(2,3,4,8)      =    -61.954580     0.000005     4.083740   -57.870839
	   45 D(2,3,4,9)      =   -177.049525    -0.000001     3.836665  -173.212860
	   46 D(3,4,7,10)     =   -178.306184    -0.000015    -2.363648  -180.669832
	   47 D(3,4,7,11)     =     58.535662     0.000004    -0.571357    57.964304
	   48 D(3,4,7,12)     =    -56.870306    -0.000010    -1.408688   -58.278994
	   49 D(4,7,10,13)    =    175.420882     0.000009     5.036997   180.457880
	   50 D(4,7,10,14)    =    -64.983443     0.000017     5.510214   -59.473229
	   51 D(4,7,10,15)    =     55.755031     0.000008     4.993694    60.748724
	   52 D(5,3,4,7)      =   -179.416557     0.000011     4.887530  -174.529027
	   53 D(5,3,4,8)      =     58.590881     0.000006     4.148341    62.739222
	   54 D(5,3,4,9)      =    -56.504064    -0.000001     3.901265   -52.602799
	   55 D(6,3,4,7)      =    -61.563032     0.000010     4.904548   -56.658484
	   56 D(6,3,4,8)      =    176.444406     0.000005     4.165359   180.609765
	   57 D(6,3,4,9)      =     61.349461    -0.000002     3.918284    65.267745
	   58 D(8,4,7,10)     =    -56.841866    -0.000019    -1.792884   -58.634751
	   59 *D(8,4,7,11)    =    180.000000    -0.000000     0.000000   180.000000
	   60 D(8,4,7,12)     =     64.594012    -0.000014    -0.837925    63.756087
	   61 D(9,4,7,10)     =     59.757885    -0.000001    -1.268294    58.489591
	   62 D(9,4,7,11)     =    -63.400270     0.000018     0.523997   -62.876273
	   63 D(9,4,7,12)     =   -178.806237     0.000005    -0.313334  -179.119571
	   64 D(11,7,10,13)   =    -61.654825    -0.000006     3.531849   -58.122976
	   65 D(11,7,10,14)   =     57.940850     0.000002     4.005065    61.945915
	   66 D(11,7,10,15)   =    178.679323    -0.000007     3.488545   182.167868
	   67 D(12,7,10,13)   =     54.452572     0.000001     3.899717    58.352289
	   68 D(12,7,10,14)   =    174.048247     0.000008     4.372933   178.421180
	   69 D(12,7,10,15)   =    -65.213279    -0.000000     3.856413   -61.356867
	 ---------------------------------------------------------------------------
	Successfully symmetrized geometry.

  ==> Convergence Check <==

  Measures of convergence in internal coordinates in au.
  Criteria marked as inactive (o), active & met (*), and active & unmet ( ).
  --------------------------------------------------------------------------------------------- ~
   Step     Total Energy     Delta E     MAX Force     RMS Force      MAX Disp      RMS Disp    ~
  --------------------------------------------------------------------------------------------- ~
    Convergence Criteria    1.00e-06 *    3.00e-04 *             o    1.20e-03 *             o  ~
  --------------------------------------------------------------------------------------------- ~
      1    -232.23857945   -2.32e+02      7.14e-03      1.49e-03 o    9.62e-02      4.02e-02 o  ~
  ---------------------------------------------------------------------------------------------

	Writing optimization data to binary file.
	Structure for next step:
	Cartesian Geometry (in Angstrom)
	    H     0.8699291556   2.4010943807  -1.3456859028
	    O     0.3994015511   1.8270005616  -0.7699580548
	    C     1.2359311429   0.7785095351  -0.3447629176
	    C     0.4541616817  -0.1416837955   0.5712489739
	    H     2.0947430637   1.1756843288   0.1967084569
	    H     1.6149937266   0.2184800103  -1.2012707748
	    C    -0.6994193158  -0.8612649670  -0.1198907588
	    H     0.0786647023   0.4394458015   1.4088588911
	    H     1.1489848154  -0.8709491218   0.9816356046
	    C    -1.4567347313  -1.7909623532   0.8202741048
	    H    -0.3114718823  -1.4387815899  -0.9554722409
	    H    -1.3790855277  -0.1291402073  -0.5395183491
	    H    -2.2663057427  -2.2937341826   0.2953928328
	    H    -0.8039568228  -2.5576418606   1.2379684886
	    H    -1.8909150347  -1.2368223549   1.6491135267
			--------------------------
			 OPTKING Finished Execution 
			--------------------------

    Structure for next step:
    Molecular point group: c1
    Full point group: C1

    Geometry (in Angstrom), charge = 0, multiplicity = 1:

    H            0.870676634354     2.391482987181    -1.353087632720
    O            0.400149029868     1.817389168047    -0.777359784725
    C            1.236678621660     0.768898141586    -0.352164647478
    C            0.454909160471    -0.151295188998     0.563847243960
    H            2.095490542403     1.166072935262     0.189306727017
    H            1.615741205351     0.208868616763    -1.208672504747
    C           -0.698671837017    -0.870876360517    -0.127292488709
    H            0.079412181058     0.429834407964     1.401457161222
    H            1.149732294136    -0.880560515334     0.974233874674
    C           -1.455987252545    -1.800573746701     0.812872374916
    H           -0.310724403548    -1.448392983410    -0.962873970764
    H           -1.378338048988    -0.138751600833    -0.546920078989
    H           -2.265558263902    -2.303345576150     0.287991102888
    H           -0.803209344029    -2.567253254086     1.230566758672
    H           -1.890167555910    -1.246433748423     1.641711796745

gradient() will perform analytic gradient computation.

*** tstart() called on cx1-27-1-2
*** at Sat Sep 10 15:14:26 2016


         ---------------------------------------------------------
                                   SCF
            by Justin Turney, Rob Parrish, and Andy Simmonett
                              RHF Reference
                        4 Threads,   2000 MiB Core
         ---------------------------------------------------------

  ==> Geometry <==

    Molecular point group: c1
    Full point group: C1

    Geometry (in Angstrom), charge = 0, multiplicity = 1:

       Center              X                  Y                   Z               Mass       
    ------------   -----------------  -----------------  -----------------  -----------------
           H          0.870676634354     2.391482987181    -1.353087632720     1.007825032070
           O          0.400149029868     1.817389168047    -0.777359784725    15.994914619560
           C          1.236678621660     0.768898141586    -0.352164647478    12.000000000000
           C          0.454909160471    -0.151295188998     0.563847243960    12.000000000000
           H          2.095490542403     1.166072935262     0.189306727017     1.007825032070
           H          1.615741205351     0.208868616763    -1.208672504747     1.007825032070
           C         -0.698671837017    -0.870876360517    -0.127292488709    12.000000000000
           H          0.079412181058     0.429834407964     1.401457161222     1.007825032070
           H          1.149732294136    -0.880560515334     0.974233874674     1.007825032070
           C         -1.455987252545    -1.800573746701     0.812872374916    12.000000000000
           H         -0.310724403548    -1.448392983410    -0.962873970764     1.007825032070
           H         -1.378338048988    -0.138751600833    -0.546920078989     1.007825032070
           H         -2.265558263902    -2.303345576150     0.287991102888     1.007825032070
           H         -0.803209344029    -2.567253254086     1.230566758672     1.007825032070
           H         -1.890167555910    -1.246433748423     1.641711796745     1.007825032070

  Running in c1 symmetry.

  Rotational constants: A =      0.43059  B =      0.07870  C =      0.07292 [cm^-1]
  Rotational constants: A =  12908.73425  B =   2359.26588  C =   2186.05990 [MHz]
  Nuclear repulsion =  188.739885166441582

  Charge       = 0
  Multiplicity = 1
  Electrons    = 42
  Nalpha       = 21
  Nbeta        = 21

  ==> Algorithm <==

  SCF Algorithm Type is DF.
  DIIS enabled.
  MOM disabled.
  Fractional occupation disabled.
  Guess Type is READ.
  Energy threshold   = 1.00e-08
  Density threshold  = 1.00e-08
  Integral threshold = 0.00e+00

  ==> Primary Basis <==

  Basis Set: CC-PVTZ
    Number of shells: 110
    Number of basis function: 290
    Number of Cartesian functions: 325
    Spherical Harmonics?: true
    Max angular momentum: 3

  ==> Pre-Iterations <==

   -------------------------------------------------------
    Irrep   Nso     Nmo     Nalpha   Nbeta   Ndocc  Nsocc
   -------------------------------------------------------
     A        290     290       0       0       0       0
   -------------------------------------------------------
    Total     290     290      21      21      21       0
   -------------------------------------------------------

  ==> Integral Setup <==

  ==> DFJK: Density-Fitted J/K Matrices <==

    J tasked:                  Yes
    K tasked:                  Yes
    wK tasked:                  No
    OpenMP threads:              4
    Integrals threads:           4
    Memory (MB):              1430
    Algorithm:                Core
    Integral Cache:           NONE
    Schwarz Cutoff:          1E-12
    Fitting Condition:       1E-12

   => Auxiliary Basis Set <=

  Basis Set: 
    Number of shells: 225
    Number of basis function: 695
    Number of Cartesian functions: 830
    Spherical Harmonics?: true
    Max angular momentum: 4

  Minimum eigenvalue in the overlap matrix is 4.6909319019E-04.
  Using Symmetric Orthogonalization.
  SCF Guess: Reading in previously saved MOs, projecting if necessary.

  Using orbitals from previous SCF, no projection.
  Recomputing DOCC and SOCC from number of alpha and beta electrons from previous calculation.
              A 
    DOCC [    21 ]

  ==> Iterations <==

                           Total Energy        Delta E     RMS |[F,P]|

   @DF-RHF iter   0:  -232.21973406700232   -2.32220e+02   3.99967e-04 
   @DF-RHF iter   1:  -232.23848795586628   -1.87539e-02   7.74380e-05 
   @DF-RHF iter   2:  -232.23893898779158   -4.51032e-04   2.81738e-05 DIIS
   @DF-RHF iter   3:  -232.23900511696837   -6.61292e-05   1.11013e-05 DIIS
   @DF-RHF iter   4:  -232.23901272809638   -7.61113e-06   1.85133e-06 DIIS
   @DF-RHF iter   5:  -232.23901301230512   -2.84209e-07   8.29392e-07 DIIS
   @DF-RHF iter   6:  -232.23901305029040   -3.79853e-08   1.97153e-07 DIIS
   @DF-RHF iter   7:  -232.23901305405712   -3.76673e-09   5.47728e-08 DIIS
   @DF-RHF iter   8:  -232.23901305437539   -3.18266e-10   1.64436e-08 DIIS
   @DF-RHF iter   9:  -232.23901305440444   -2.90470e-11   4.57322e-09 DIIS

  ==> Post-Iterations <==

    Orbital Energies (a.u.)
    -----------------------

    Doubly Occupied:                                                      

       1A    -20.546588     2A    -11.266999     3A    -11.210847  
       4A    -11.207492     5A    -11.204425     6A     -1.363200  
       7A     -1.066896     8A     -0.974881     9A     -0.855983  
      10A     -0.787111    11A     -0.707494    12A     -0.639023  
      13A     -0.611598    14A     -0.593145    15A     -0.547513  
      16A     -0.529565    17A     -0.514570    18A     -0.477051  
      19A     -0.465917    20A     -0.458214    21A     -0.432786  

    Virtual:                                                              

      22A      0.141384    23A      0.155014    24A      0.176014  
      25A      0.180293    26A      0.204242    27A      0.217191  
      28A      0.229203    29A      0.247320    30A      0.248828  
      31A      0.261431    32A      0.310196    33A      0.321467  
      34A      0.341903    35A      0.374326    36A      0.404798  
      37A      0.423393    38A      0.431825    39A      0.459093  
      40A      0.475203    41A      0.517879    42A      0.548124  
      43A      0.563859    44A      0.573424    45A      0.583883  
      46A      0.590203    47A      0.611469    48A      0.631837  
      49A      0.640762    50A      0.648914    51A      0.655654  
      52A      0.666081    53A      0.683806    54A      0.685046  
      55A      0.695378    56A      0.710962    57A      0.724282  
      58A      0.754685    59A      0.771005    60A      0.811763  
      61A      0.839823    62A      0.847739    63A      0.867368  
      64A      0.901352    65A      0.916381    66A      0.934050  
      67A      0.943566    68A      0.989075    69A      1.007809  
      70A      1.058758    71A      1.062567    72A      1.079184  
      73A      1.101069    74A      1.121966    75A      1.150134  
      76A      1.189829    77A      1.223953    78A      1.233643  
      79A      1.251677    80A      1.277707    81A      1.285033  
      82A      1.300676    83A      1.315252    84A      1.318101  
      85A      1.343698    86A      1.357256    87A      1.375076  
      88A      1.387751    89A      1.394642    90A      1.420349  
      91A      1.426604    92A      1.438809    93A      1.463596  
      94A      1.474718    95A      1.497003    96A      1.505154  
      97A      1.528809    98A      1.544352    99A      1.564571  
     100A      1.591608   101A      1.598209   102A      1.607533  
     103A      1.648763   104A      1.651635   105A      1.682850  
     106A      1.708054   107A      1.733667   108A      1.776061  
     109A      1.805633   110A      1.815707   111A      1.838515  
     112A      1.869933   113A      1.888719   114A      1.932977  
     115A      2.041525   116A      2.136468   117A      2.281515  
     118A      2.308003   119A      2.383066   120A      2.407982  
     121A      2.543364   122A      2.594318   123A      2.606020  
     124A      2.641606   125A      2.671770   126A      2.698650  
     127A      2.712827   128A      2.728105   129A      2.776978  
     130A      2.801975   131A      2.812974   132A      2.858698  
     133A      2.875352   134A      2.879110   135A      2.917886  
     136A      2.930265   137A      2.971826   138A      3.008623  
     139A      3.031815   140A      3.035703   141A      3.093440  
     142A      3.107505   143A      3.129220   144A      3.152579  
     145A      3.171597   146A      3.197154   147A      3.219618  
     148A      3.243858   149A      3.249096   150A      3.292174  
     151A      3.302157   152A      3.315454   153A      3.333708  
     154A      3.344961   155A      3.364700   156A      3.381273  
     157A      3.408513   158A      3.422571   159A      3.423732  
     160A      3.432175   161A      3.448302   162A      3.468063  
     163A      3.472914   164A      3.485086   165A      3.507541  
     166A      3.525474   167A      3.554375   168A      3.573884  
     169A      3.599433   170A      3.603049   171A      3.634308  
     172A      3.658164   173A      3.681521   174A      3.715385  
     175A      3.741971   176A      3.762439   177A      3.777816  
     178A      3.789381   179A      3.815092   180A      3.825745  
     181A      3.844987   182A      3.870358   183A      3.890962  
     184A      3.902360   185A      3.935233   186A      3.953040  
     187A      3.975799   188A      3.999544   189A      4.015758  
     190A      4.032865   191A      4.053290   192A      4.099711  
     193A      4.130770   194A      4.132524   195A      4.146079  
     196A      4.158817   197A      4.178003   198A      4.181987  
     199A      4.197591   200A      4.222505   201A      4.231995  
     202A      4.245903   203A      4.256767   204A      4.290151  
     205A      4.304451   206A      4.327482   207A      4.342705  
     208A      4.370712   209A      4.387111   210A      4.403546  
     211A      4.415481   212A      4.426225   213A      4.455165  
     214A      4.483098   215A      4.484624   216A      4.499387  
     217A      4.533712   218A      4.550866   219A      4.570275  
     220A      4.590391   221A      4.607194   222A      4.634055  
     223A      4.663876   224A      4.680700   225A      4.692511  
     226A      4.722520   227A      4.760732   228A      4.777059  
     229A      4.791418   230A      4.833437   231A      4.853655  
     232A      4.912189   233A      4.985431   234A      5.022547  
     235A      5.038532   236A      5.052952   237A      5.095687  
     238A      5.135008   239A      5.172692   240A      5.186209  
     241A      5.227800   242A      5.245635   243A      5.255692  
     244A      5.282172   245A      5.299618   246A      5.325116  
     247A      5.338086   248A      5.380182   249A      5.415232  
     250A      5.441946   251A      5.488602   252A      5.524849  
     253A      5.585954   254A      5.610256   255A      5.627685  
     256A      5.704768   257A      5.737973   258A      5.756107  
     259A      5.764398   260A      5.803297   261A      5.830530  
     262A      5.855574   263A      5.893625   264A      5.905503  
     265A      5.920377   266A      5.939677   267A      5.988945  
     268A      6.024164   269A      6.076833   270A      6.254102  
     271A      6.310615   272A      6.324464   273A      6.343196  
     274A      6.379160   275A      6.455304   276A      6.487662  
     277A      6.682818   278A      7.080906   279A      7.172909  
     280A      7.244683   281A      7.291590   282A      7.441597  
     283A      7.545680   284A      7.739096   285A      8.040671  
     286A     12.760742   287A     13.214232   288A     13.520348  
     289A     13.815900   290A     14.200897  

    Final Occupation by Irrep:
              A 
    DOCC [    21 ]

  Energy converged.

  @DF-RHF Final Energy:  -232.23901305440444

   => Energetics <=

    Nuclear Repulsion Energy =            188.7398851664415815
    One-Electron Energy =                -689.0351973283616189
    Two-Electron Energy =                 268.0562991075155992
    DFT Exchange-Correlation Energy =       0.0000000000000000
    Empirical Dispersion Energy =           0.0000000000000000
    PCM Polarization Energy =               0.0000000000000000
    EFP Energy =                            0.0000000000000000
    Total Energy =                       -232.2390130544044382


  Saving occupied orbitals to File 180.

*** tstop() called on cx1-27-1-2 at Sat Sep 10 15:14:30 2016
Module time:
	user time   =      14.82 seconds =       0.25 minutes
	system time =       0.64 seconds =       0.01 minutes
	total time  =          4 seconds =       0.07 minutes
Total time:
	user time   =      49.91 seconds =       0.83 minutes
	system time =       1.64 seconds =       0.03 minutes
	total time  =         15 seconds =       0.25 minutes


Properties will be evaluated at   0.000000,   0.000000,   0.000000 Bohr

Properties computed using the SCF density matrix

  Nuclear Dipole Moment: (a.u.)
     X:    -0.7827      Y:    -4.1053      Z:     1.5466

  Electronic Dipole Moment: (a.u.)
     X:     1.3642      Y:     4.0791      Z:    -1.7480

  Dipole Moment: (a.u.)
     X:     0.5816      Y:    -0.0262      Z:    -0.2015     Total:     0.6160

  Dipole Moment: (Debye)
     X:     1.4782      Y:    -0.0667      Z:    -0.5121     Total:     1.5658


*** tstart() called on cx1-27-1-2
*** at Sat Sep 10 15:14:30 2016


         ------------------------------------------------------------
                                   SCF GRAD                          
                          Rob Parrish, Justin Turney,                
                       Andy Simmonett, and Alex Sokolov              
         ------------------------------------------------------------

  ==> Geometry <==

    Molecular point group: c1
    Full point group: C1

    Geometry (in Angstrom), charge = 0, multiplicity = 1:

       Center              X                  Y                   Z               Mass       
    ------------   -----------------  -----------------  -----------------  -----------------
           H          0.870676634354     2.391482987181    -1.353087632720     1.007825032070
           O          0.400149029868     1.817389168047    -0.777359784725    15.994914619560
           C          1.236678621660     0.768898141586    -0.352164647478    12.000000000000
           C          0.454909160471    -0.151295188998     0.563847243960    12.000000000000
           H          2.095490542403     1.166072935262     0.189306727017     1.007825032070
           H          1.615741205351     0.208868616763    -1.208672504747     1.007825032070
           C         -0.698671837017    -0.870876360517    -0.127292488709    12.000000000000
           H          0.079412181058     0.429834407964     1.401457161222     1.007825032070
           H          1.149732294136    -0.880560515334     0.974233874674     1.007825032070
           C         -1.455987252545    -1.800573746701     0.812872374916    12.000000000000
           H         -0.310724403548    -1.448392983410    -0.962873970764     1.007825032070
           H         -1.378338048988    -0.138751600833    -0.546920078989     1.007825032070
           H         -2.265558263902    -2.303345576150     0.287991102888     1.007825032070
           H         -0.803209344029    -2.567253254086     1.230566758672     1.007825032070
           H         -1.890167555910    -1.246433748423     1.641711796745     1.007825032070

  Nuclear repulsion =  188.739885166441582

  ==> Basis Set <==

  Basis Set: CC-PVTZ
    Number of shells: 110
    Number of basis function: 290
    Number of Cartesian functions: 325
    Spherical Harmonics?: true
    Max angular momentum: 3

  ==> DFJKGrad: Density-Fitted SCF Gradients <==

    Gradient:                    1
    J tasked:                  Yes
    K tasked:                  Yes
    wK tasked:                  No
    OpenMP threads:              4
    Integrals threads:           4
    Memory (MB):              1430
    Schwarz Cutoff:          0E+00
    Fitting Condition:       1E-12

   => Auxiliary Basis Set <=

  Basis Set: 
    Number of shells: 225
    Number of basis function: 695
    Number of Cartesian functions: 830
    Spherical Harmonics?: true
    Max angular momentum: 4


  -Total Gradient:
     Atom            X                  Y                   Z
    ------   -----------------  -----------------  -----------------
       1        0.000197674698     0.000207908078    -0.000118360064
       2       -0.001695842030     0.001902616004    -0.000331062379
       3       -0.001618991146    -0.002014825670    -0.000525598210
       4       -0.000418303747     0.000119874968     0.000763543898
       5        0.001394207163     0.000225301074     0.001727439309
       6        0.001050090699    -0.001288131052    -0.001521659182
       7       -0.000697894162     0.000929814446    -0.000377884393
       8       -0.000094954770    -0.000034881316     0.000525086286
       9        0.000514396077     0.000074267120     0.000155279679
      10        0.002203158419     0.002083108111    -0.000525805145
      11       -0.000207074486    -0.000413045461     0.000121733691
      12       -0.000190824838     0.000204785499    -0.000301893923
      13       -0.001716016109    -0.000824176552    -0.002098275725
      14        0.001822957201    -0.002529266685     0.001402290989
      15       -0.000542582969     0.001356651434     0.001105165170


*** tstop() called on cx1-27-1-2 at Sat Sep 10 15:14:35 2016
Module time:
	user time   =      19.41 seconds =       0.32 minutes
	system time =       0.47 seconds =       0.01 minutes
	total time  =          5 seconds =       0.08 minutes
Total time:
	user time   =      69.41 seconds =       1.16 minutes
	system time =       2.11 seconds =       0.04 minutes
	total time  =         20 seconds =       0.33 minutes

			-----------------------------------------
			 OPTKING 2.0: for geometry optimizations 
			  - R.A. King,  Bethel University        
			-----------------------------------------

	Previous internal coordinate definitions found.
	---Fragment 1 Geometry and Gradient---
	 H           1.6453403892        4.5192478972       -2.5569650596
	 O           0.7561720788        3.4343678045       -1.4689970998
	 C           2.3369839093        1.4530069117       -0.6654947374
	 C           0.8596537286       -0.2859064724        1.0655168719
	 H           3.9599032392        2.2035584986        0.3577378692
	 H           3.0533083797        0.3947044834       -2.2840600183
	 C          -1.3202984287       -1.6457178170       -0.2405479424
	 H           0.1500672738        0.8122693135        2.6483702217
	 H           2.1726791621       -1.6640182174        1.8410352125
	 C          -2.7514171603       -3.4025912633        1.5361061696
	 H          -0.5871840255       -2.7370660714       -1.8195681052
	 H          -2.6046814311       -0.2622025261       -1.0335291659
	 H          -4.2812846569       -4.3526923283        0.5442243132
	 H          -1.5178456876       -4.8514055640        2.3254341621
	 H          -3.5718990259       -2.3554184273        3.1023856850
	             0.0001976747        0.0002079081       -0.0001183601
	            -0.0016958420        0.0019026160       -0.0003310624
	            -0.0016189911       -0.0020148257       -0.0005255982
	            -0.0004183037        0.0001198750        0.0007635439
	             0.0013942072        0.0002253011        0.0017274393
	             0.0010500907       -0.0012881311       -0.0015216592
	            -0.0006978942        0.0009298144       -0.0003778844
	            -0.0000949548       -0.0000348813        0.0005250863
	             0.0005143961        0.0000742671        0.0001552797
	             0.0022031584        0.0020831081       -0.0005258051
	            -0.0002070745       -0.0004130455        0.0001217337
	            -0.0001908248        0.0002047855       -0.0003018939
	            -0.0017160161       -0.0008241766       -0.0020982757
	             0.0018229572       -0.0025292667        0.0014022910
	            -0.0005425830        0.0013566514        0.0011051652

	---Fragment 1 Intrafragment Coordinates---
	 - Coordinate -           - BOHR/RAD -       - ANG/DEG -
	 R(1,2)           =         1.775179	       0.939384
	 R(2,3)           =         2.659017	       1.407091
	 R(3,4)           =         2.864040	       1.515585
	 R(3,5)           =         2.060146	       1.090182
	 R(3,6)           =         2.062251	       1.091296
	 R(4,7)           =         2.882201	       1.525195
	 R(4,8)           =         2.053029	       1.086416
	 R(4,9)           =         2.055397	       1.087669
	 R(7,10)          =         2.879445	       1.523737
	 R(7,11)          =         2.054703	       1.087302
	 R(7,12)          =         2.047577	       1.083531
	 R(10,13)         =         2.055971	       1.087973
	 R(10,14)         =         2.060049	       1.090131
	 R(10,15)         =         2.054992	       1.087455
	 B(1,2,3)         =         1.920697	     110.047827
	 B(2,3,4)         =         1.905401	     109.171413
	 B(2,3,5)         =         1.925115	     110.300956
	 B(2,3,6)         =         1.930215	     110.593160
	 B(3,4,7)         =         1.985275	     113.747883
	 B(3,4,8)         =         1.895990	     108.632198
	 B(3,4,9)         =         1.881381	     107.795171
	 B(4,3,5)         =         1.904299	     109.108300
	 B(4,3,6)         =         1.919792	     109.995971
	 B(4,7,10)        =         1.965116	     112.592825
	 B(4,7,11)        =         1.906008	     109.206210
	 B(4,7,12)        =         1.908312	     109.338250
	 B(5,3,6)         =         1.878792	     107.646878
	 B(7,4,8)         =         1.918054	     109.896377
	 B(7,4,9)         =         1.915391	     109.743798
	 B(7,10,13)       =         1.932767	     110.739400
	 B(7,10,14)       =         1.947555	     111.586691
	 B(7,10,15)       =         1.936708	     110.965212
	 B(8,4,9)         =         1.863499	     106.770628
	 B(10,7,11)       =         1.904375	     109.112632
	 B(10,7,12)       =         1.917138	     109.843897
	 B(11,7,12)       =         1.859883	     106.563424
	 B(13,10,14)      =         1.881182	     107.783792
	 B(13,10,15)      =         1.881886	     107.824098
	 B(14,10,15)      =         1.881179	     107.783628
	 D(1,2,3,4)       =        -3.132289	    -179.466964
	 D(1,2,3,5)       =         1.058640	      60.655606
	 D(1,2,3,6)       =        -1.017706	     -58.310251
	 D(2,3,4,7)       =         1.132036	      64.860912
	 D(2,3,4,8)       =        -1.010037	     -57.870839
	 D(2,3,4,9)       =        -3.023135	    -173.212860
	 D(3,4,7,10)      =         3.129902	     179.330168
	 D(3,4,7,11)      =         1.011668	      57.964304
	 D(3,4,7,12)      =        -1.017160	     -58.278994
	 D(4,7,10,13)     =        -3.133601	    -179.542120
	 D(4,7,10,14)     =        -1.038004	     -59.473229
	 D(4,7,10,15)     =         1.060265	      60.748724
	 D(5,3,4,7)       =        -3.046106	    -174.529027
	 D(5,3,4,8)       =         1.095006	      62.739222
	 D(5,3,4,9)       =        -0.918092	     -52.602799
	 D(6,3,4,7)       =        -0.988877	     -56.658484
	 D(6,3,4,8)       =        -3.130950	    -179.390235
	 D(6,3,4,9)       =         1.139137	      65.267745
	 D(8,4,7,10)      =        -1.023369	     -58.634751
	*D(8,4,7,11)      =         3.141593	     180.000000
	 D(8,4,7,12)      =         1.112754	      63.756087
	 D(9,4,7,10)      =         1.020836	      58.489591
	 D(9,4,7,11)      =        -1.097398	     -62.876273
	 D(9,4,7,12)      =        -3.126226	    -179.119571
	 D(11,7,10,13)    =        -1.014437	     -58.122976
	 D(11,7,10,14)    =         1.081160	      61.945915
	 D(11,7,10,15)    =        -3.103756	    -177.832132
	 D(12,7,10,13)    =         1.018440	      58.352289
	 D(12,7,10,14)    =         3.114037	     178.421180
	 D(12,7,10,15)    =        -1.070879	     -61.356867

	Current energy   :      -232.2390130544

	Energy change for the previous step:
		Projected    :         0.0013748789
		Actual       :        -0.0004336062

	Performing BFGS update.
	Previous computed or guess Hessian on step 1.
	Steps to be used in Hessian update: 1
	Taking RFO optimization step.
	Going to follow RFO solution 1.
	Using RFO vector 1.
	Norm of target step-size    0.04497
	Projected energy change by RFO approximation:        -0.0003294999

	Back-transformation to cartesian coordinates...
	Could not converge backtransformation.
	Using first guess instead.

	Back-transformation to cartesian coordinates to adjust frozen coordinates...
	Successfully converged to displaced geometry.

	--- Internal Coordinate Step in ANG or DEG, aJ/ANG or AJ/DEG ---
	 ---------------------------------------------------------------------------
	   Coordinate                Previous        Force       Change         New 
	   ----------                --------       ------       ------       ------
	    1 R(1,2)          =      0.939384    -0.002460    -0.000216     0.939168
	    2 R(2,3)          =      1.407091    -0.021414    -0.002955     1.404136
	    3 R(3,4)          =      1.515585     0.003867     0.000566     1.516151
	    4 R(3,5)          =      1.090182    -0.016794    -0.002989     1.087193
	    5 R(3,6)          =      1.091296    -0.018291    -0.003158     1.088138
	    6 R(4,7)          =      1.525195     0.004807     0.000697     1.525893
	    7 R(4,8)          =      1.086416    -0.003452    -0.000481     1.085935
	    8 R(4,9)          =      1.087669    -0.002780    -0.000408     1.087261
	    9 R(7,10)         =      1.523737     0.008264     0.001313     1.525050
	   10 R(7,11)         =      1.087302    -0.000428    -0.000002     1.087300
	   11 R(7,12)         =      1.083531    -0.003089    -0.000508     1.083023
	   12 R(10,13)        =      1.087973    -0.021998    -0.003907     1.084066
	   13 R(10,14)        =      1.090131    -0.028075    -0.004840     1.085291
	   14 R(10,15)        =      1.087455    -0.014420    -0.002575     1.084880
	   15 B(1,2,3)        =    110.047827     0.000004     0.036764   110.084591
	   16 B(2,3,4)        =    109.171413    -0.000022    -0.056684   109.114729
	   17 B(2,3,5)        =    110.300956    -0.000022    -0.017308   110.283648
	   18 B(2,3,6)        =    110.593160    -0.000016    -0.320611   110.272549
	   19 B(3,4,7)        =    113.747883     0.000076     0.164462   113.912345
	   20 B(3,4,8)        =    108.632198    -0.000038    -0.283406   108.348792
	   21 B(3,4,9)        =    107.795171     0.000010     0.214919   108.010090
	   22 B(4,3,5)        =    109.108300     0.000088     0.522002   109.630302
	   23 B(4,3,6)        =    109.995971    -0.000009    -0.115359   109.880611
	   24 B(4,7,10)       =    112.592825     0.000072     0.204981   112.797806
	   25 B(4,7,11)       =    109.206210    -0.000036    -0.023640   109.182570
	   26 B(4,7,12)       =    109.338250    -0.000021    -0.188449   109.149801
	   27 B(5,3,6)        =    107.646878    -0.000016    -0.002996   107.643882
	   28 B(7,4,8)        =    109.896377    -0.000021    -0.136534   109.759843
	   29 B(7,4,9)        =    109.743798    -0.000044    -0.042621   109.701177
	   30 B(7,10,13)      =    110.739400     0.000103     0.442237   111.181637
	   31 B(7,10,14)      =    111.586691    -0.000060    -0.277297   111.309394
	   32 B(7,10,15)      =    110.965212     0.000047     0.201138   111.166349
	   33 B(8,4,9)        =    106.770628     0.000013     0.083334   106.853962
	   34 B(10,7,11)      =    109.112632     0.000005     0.292986   109.405618
	   35 B(10,7,12)      =    109.843897    -0.000040    -0.211702   109.632195
	   36 B(11,7,12)      =    106.563424     0.000017    -0.089806   106.473617
	   37 B(13,10,14)     =    107.783792    -0.000024    -0.086464   107.697328
	   38 B(13,10,15)     =    107.824098    -0.000060    -0.130510   107.693588
	   39 B(14,10,15)     =    107.783628    -0.000011    -0.170064   107.613565
	   40 D(1,2,3,4)      =   -179.466964     0.000010     0.761490  -178.705475
	   41 D(1,2,3,5)      =     60.655606    -0.000009     0.164950    60.820556
	   42 D(1,2,3,6)      =    -58.310251     0.000001     0.380728   -57.929523
	   43 D(2,3,4,7)      =     64.860912    -0.000005    -0.588256    64.272656
	   44 D(2,3,4,8)      =    -57.870839    -0.000004    -0.315075   -58.185914
	   45 D(2,3,4,9)      =   -173.212860    -0.000005    -0.379104  -173.591964
	   46 D(3,4,7,10)     =    179.330168     0.000009     0.847061   180.177229
	   47 D(3,4,7,11)     =     57.964304     0.000002     0.354413    58.318717
	   48 D(3,4,7,12)     =    -58.278994     0.000005     0.580543   -57.698451
	   49 D(4,7,10,13)    =   -179.542120     0.000001     0.231455  -179.310665
	   50 D(4,7,10,14)    =    -59.473229     0.000001     0.234996   -59.238234
	   51 D(4,7,10,15)    =     60.748724    -0.000004    -0.030942    60.717783
	   52 D(5,3,4,7)      =   -174.529027    -0.000002    -0.324368  -174.853395
	   53 D(5,3,4,8)      =     62.739222    -0.000002    -0.051187    62.688035
	   54 D(5,3,4,9)      =    -52.602799    -0.000002    -0.115216   -52.718015
	   55 D(6,3,4,7)      =    -56.658484     0.000004    -0.084203   -56.742687
	   56 D(6,3,4,8)      =   -179.390235     0.000005     0.188978  -179.201257
	   57 D(6,3,4,9)      =     65.267745     0.000005     0.124949    65.392694
	   58 D(8,4,7,10)     =    -58.634751     0.000007     0.492687   -58.142063
	   59 *D(8,4,7,11)    =    180.000000    -0.000000     0.000000   180.000000
	   60 D(8,4,7,12)     =     63.756087     0.000003     0.226169    63.982257
	   61 D(9,4,7,10)     =     58.489591     0.000001     0.488597    58.978188
	   62 D(9,4,7,11)     =    -62.876273    -0.000005    -0.004051   -62.880324
	   63 D(9,4,7,12)     =   -179.119571    -0.000002     0.222079  -178.897492
	   64 D(11,7,10,13)   =    -58.122976     0.000002     0.544863   -57.578113
	   65 D(11,7,10,14)   =     61.945915     0.000002     0.548404    62.494318
	   66 D(11,7,10,15)   =   -177.832132    -0.000003     0.282466  -177.549665
	   67 D(12,7,10,13)   =     58.352289     0.000002     0.484575    58.836864
	   68 D(12,7,10,14)   =    178.421180     0.000002     0.488115   178.909295
	   69 D(12,7,10,15)   =    -61.356867    -0.000003     0.222178   -61.134689
	 ---------------------------------------------------------------------------
	Successfully symmetrized geometry.

  ==> Convergence Check <==

  Measures of convergence in internal coordinates in au.
  Criteria marked as inactive (o), active & met (*), and active & unmet ( ).
  ---------------------------------------------------------------------------------------------
   Step     Total Energy     Delta E     MAX Force     RMS Force      MAX Disp      RMS Disp   
  ---------------------------------------------------------------------------------------------
    Convergence Criteria    1.00e-06 *    3.00e-04 *             o    1.20e-03 *             o
  ---------------------------------------------------------------------------------------------
      2    -232.23901305   -4.34e-04      3.41e-03      8.51e-04 o    1.48e-02      5.42e-03 o  ~
  ---------------------------------------------------------------------------------------------

	Writing optimization data to binary file.
	Structure for next step:
	Cartesian Geometry (in Angstrom)
	    H     0.8608104359   2.3862372172  -1.3543988287
	    O     0.3973519348   1.8128199276  -0.7726468332
	    C     1.2396532880   0.7724652236  -0.3486307524
	    C     0.4613623457  -0.1563860580   0.5625288143
	    H     2.0963347911   1.1752742442   0.1860008518
	    H     1.6165853193   0.2191665600  -1.2064348219
	    C    -0.6944400958  -0.8746716181  -0.1277861111
	    H     0.0855079994   0.4227699901   1.4007209375
	    H     1.1557409690  -0.8869459571   0.9702762080
	    C    -1.4619867449  -1.7983078675   0.8121849516
	    H    -0.3079546197  -1.4511377829  -0.9647673173
	    H    -1.3699536525  -0.1393400867  -0.5472000093
	    H    -2.2683523052  -2.3035152338   0.2928206119
	    H    -0.8133028981  -2.5593414125   1.2339586060
	    H    -1.8972238035  -1.2440238635   1.6369896247
			--------------------------
			 OPTKING Finished Execution 
			--------------------------

    Structure for next step:
    Molecular point group: c1
    Full point group: C1

    Geometry (in Angstrom), charge = 0, multiplicity = 1:

    H            0.860239637390     2.387614781451    -1.355505895553
    O            0.396781136324     1.814197491826    -0.773753900066
    C            1.239082489542     0.773842787843    -0.349737819286
    C            0.460791547178    -0.155008493706     0.561421747399
    H            2.095763992658     1.176651808453     0.184893784933
    H            1.616014520803     0.220544124224    -1.207541888830
    C           -0.695010894245    -0.873294053871    -0.128893178034
    H            0.084937200876     0.424147554356     1.399613870572
    H            1.155170170545    -0.885568392873     0.969169141109
    C           -1.462557543397    -1.796930303263     0.811077884664
    H           -0.308525418173    -1.449760218592    -0.965874384194
    H           -1.370524451023    -0.137962522475    -0.548307076224
    H           -2.268923103626    -2.302137669550     0.291713545019
    H           -0.813873696617    -2.557963848220     1.232851539146
    H           -1.897794602006    -1.242646299181     1.635882557820

gradient() will perform analytic gradient computation.

*** tstart() called on cx1-27-1-2
*** at Sat Sep 10 15:14:36 2016


         ---------------------------------------------------------
                                   SCF
            by Justin Turney, Rob Parrish, and Andy Simmonett
                              RHF Reference
                        4 Threads,   2000 MiB Core
         ---------------------------------------------------------

  ==> Geometry <==

    Molecular point group: c1
    Full point group: C1

    Geometry (in Angstrom), charge = 0, multiplicity = 1:

       Center              X                  Y                   Z               Mass       
    ------------   -----------------  -----------------  -----------------  -----------------
           H          0.860239637390     2.387614781451    -1.355505895553     1.007825032070
           O          0.396781136324     1.814197491826    -0.773753900066    15.994914619560
           C          1.239082489542     0.773842787843    -0.349737819286    12.000000000000
           C          0.460791547178    -0.155008493706     0.561421747399    12.000000000000
           H          2.095763992658     1.176651808453     0.184893784933     1.007825032070
           H          1.616014520803     0.220544124224    -1.207541888830     1.007825032070
           C         -0.695010894245    -0.873294053871    -0.128893178034    12.000000000000
           H          0.084937200876     0.424147554356     1.399613870572     1.007825032070
           H          1.155170170545    -0.885568392873     0.969169141109     1.007825032070
           C         -1.462557543397    -1.796930303263     0.811077884664    12.000000000000
           H         -0.308525418173    -1.449760218592    -0.965874384194     1.007825032070
           H         -1.370524451023    -0.137962522475    -0.548307076224     1.007825032070
           H         -2.268923103626    -2.302137669550     0.291713545019     1.007825032070
           H         -0.813873696617    -2.557963848220     1.232851539146     1.007825032070
           H         -1.897794602006    -1.242646299181     1.635882557820     1.007825032070

  Running in c1 symmetry.

  Rotational constants: A =      0.42994  B =      0.07877  C =      0.07295 [cm^-1]
  Rotational constants: A =  12889.18976  B =   2361.59146  C =   2186.93855 [MHz]
  Nuclear repulsion =  188.834219037489532

  Charge       = 0
  Multiplicity = 1
  Electrons    = 42
  Nalpha       = 21
  Nbeta        = 21

  ==> Algorithm <==

  SCF Algorithm Type is DF.
  DIIS enabled.
  MOM disabled.
  Fractional occupation disabled.
  Guess Type is READ.
  Energy threshold   = 1.00e-08
  Density threshold  = 1.00e-08
  Integral threshold = 0.00e+00

  ==> Primary Basis <==

  Basis Set: CC-PVTZ
    Number of shells: 110
    Number of basis function: 290
    Number of Cartesian functions: 325
    Spherical Harmonics?: true
    Max angular momentum: 3

  ==> Pre-Iterations <==

   -------------------------------------------------------
    Irrep   Nso     Nmo     Nalpha   Nbeta   Ndocc  Nsocc
   -------------------------------------------------------
     A        290     290       0       0       0       0
   -------------------------------------------------------
    Total     290     290      21      21      21       0
   -------------------------------------------------------

  ==> Integral Setup <==

  ==> DFJK: Density-Fitted J/K Matrices <==

    J tasked:                  Yes
    K tasked:                  Yes
    wK tasked:                  No
    OpenMP threads:              4
    Integrals threads:           4
    Memory (MB):              1430
    Algorithm:                Core
    Integral Cache:           NONE
    Schwarz Cutoff:          1E-12
    Fitting Condition:       1E-12

   => Auxiliary Basis Set <=

  Basis Set: 
    Number of shells: 225
    Number of basis function: 695
    Number of Cartesian functions: 830
    Spherical Harmonics?: true
    Max angular momentum: 4

  Minimum eigenvalue in the overlap matrix is 4.7064041776E-04.
  Using Symmetric Orthogonalization.
  SCF Guess: Reading in previously saved MOs, projecting if necessary.

  Using orbitals from previous SCF, no projection.
  Recomputing DOCC and SOCC from number of alpha and beta electrons from previous calculation.
              A 
    DOCC [    21 ]

  ==> Iterations <==

                           Total Energy        Delta E     RMS |[F,P]|

   @DF-RHF iter   0:  -232.24594685687251   -2.32246e+02   6.77623e-05 
   @DF-RHF iter   1:  -232.23908835127295    6.85851e-03   1.04956e-05 
   @DF-RHF iter   2:  -232.23909563291593   -7.28164e-06   3.79471e-06 DIIS
   @DF-RHF iter   3:  -232.23909654135392   -9.08438e-07   1.56730e-06 DIIS
   @DF-RHF iter   4:  -232.23909671247830   -1.71124e-07   3.63389e-07 DIIS
   @DF-RHF iter   5:  -232.23909672408124   -1.16029e-08   1.63102e-07 DIIS
   @DF-RHF iter   6:  -232.23909672625169   -2.17045e-09   4.92554e-08 DIIS
   @DF-RHF iter   7:  -232.23909672653079   -2.79101e-10   1.02380e-08 DIIS
   @DF-RHF iter   8:  -232.23909672654273   -1.19371e-11   3.07273e-09 DIIS

  ==> Post-Iterations <==

    Orbital Energies (a.u.)
    -----------------------

    Doubly Occupied:                                                      

       1A    -20.546286     2A    -11.266039     3A    -11.210706  
       4A    -11.207441     5A    -11.203147     6A     -1.364256  
       7A     -1.066444     8A     -0.975119     9A     -0.857239  
      10A     -0.787442    11A     -0.708266    12A     -0.639798  
      13A     -0.611768    14A     -0.593682    15A     -0.547907  
      16A     -0.529458    17A     -0.515155    18A     -0.476582  
      19A     -0.465898    20A     -0.458498    21A     -0.432961  

    Virtual:                                                              

      22A      0.141362    23A      0.155165    24A      0.176204  
      25A      0.180592    26A      0.204655    27A      0.217020  
      28A      0.229464    29A      0.247639    30A      0.248754  
      31A      0.261668    32A      0.310817    33A      0.321703  
      34A      0.341890    35A      0.374678    36A      0.404552  
      37A      0.422967    38A      0.431671    39A      0.458331  
      40A      0.475658    41A      0.518597    42A      0.548713  
      43A      0.564328    44A      0.574227    45A      0.584777  
      46A      0.590382    47A      0.612398    48A      0.632810  
      49A      0.642167    50A      0.649746    51A      0.656189  
      52A      0.666954    53A      0.684384    54A      0.685759  
      55A      0.696005    56A      0.711375    57A      0.724462  
      58A      0.754295    59A      0.771027    60A      0.811103  
      61A      0.840052    62A      0.848008    63A      0.867401  
      64A      0.902042    65A      0.915929    66A      0.933987  
      67A      0.944580    68A      0.988187    69A      1.008766  
      70A      1.059975    71A      1.063286    72A      1.079362  
      73A      1.100917    74A      1.122474    75A      1.151833  
      76A      1.191136    77A      1.225103    78A      1.235447  
      79A      1.251033    80A      1.277518    81A      1.284540  
      82A      1.300010    83A      1.316010    84A      1.318165  
      85A      1.344441    86A      1.357855    87A      1.375442  
      88A      1.388296    89A      1.394864    90A      1.420340  
      91A      1.427338    92A      1.440106    93A      1.464107  
      94A      1.475730    95A      1.498046    96A      1.506352  
      97A      1.529132    98A      1.545691    99A      1.565290  
     100A      1.592301   101A      1.599201   102A      1.608963  
     103A      1.650321   104A      1.651507   105A      1.683388  
     106A      1.708489   107A      1.735906   108A      1.778065  
     109A      1.805847   110A      1.820696   111A      1.842277  
     112A      1.871939   113A      1.891176   114A      1.935885  
     115A      2.041966   116A      2.136464   117A      2.281753  
     118A      2.311443   119A      2.385038   120A      2.409370  
     121A      2.541984   122A      2.589706   123A      2.604481  
     124A      2.641930   125A      2.669467   126A      2.697314  
     127A      2.712546   128A      2.729961   129A      2.775230  
     130A      2.801016   131A      2.811628   132A      2.858084  
     133A      2.874750   134A      2.879284   135A      2.917966  
     136A      2.927519   137A      2.972292   138A      3.009140  
     139A      3.031621   140A      3.036088   141A      3.095849  
     142A      3.108939   143A      3.131138   144A      3.155679  
     145A      3.173600   146A      3.197905   147A      3.221946  
     148A      3.245081   149A      3.251383   150A      3.290569  
     151A      3.302888   152A      3.316823   153A      3.334546  
     154A      3.345604   155A      3.364955   156A      3.381735  
     157A      3.409101   158A      3.422726   159A      3.425236  
     160A      3.432064   161A      3.449227   162A      3.469240  
     163A      3.474590   164A      3.485787   165A      3.509699  
     166A      3.526328   167A      3.555108   168A      3.575078  
     169A      3.599956   170A      3.604493   171A      3.635907  
     172A      3.658825   173A      3.681965   174A      3.716135  
     175A      3.744858   176A      3.762770   177A      3.781161  
     178A      3.792864   179A      3.814282   180A      3.829650  
     181A      3.850185   182A      3.872716   183A      3.894598  
     184A      3.903564   185A      3.936829   186A      3.952537  
     187A      3.976044   188A      3.999704   189A      4.014947  
[...]
       6        0.000008608949    -0.000009290121     0.000016253772
       7        0.000002055509    -0.000059031783     0.000101786076
       8       -0.000017927190     0.000079543577    -0.000070077955
       9       -0.000005988002    -0.000000097918     0.000003668871
      10       -0.000004354166    -0.000046387164    -0.000020209809
      11       -0.000019384010     0.000085383950    -0.000049282565
      12       -0.000004399658     0.000014368633    -0.000013652103
      13        0.000017082558     0.000006699633     0.000016987770
      14       -0.000009839012     0.000010056139    -0.000001185047
      15        0.000005511372     0.000005063654    -0.000016107244


*** tstop() called on cx1-27-1-2 at Sat Sep 10 15:15:02 2016
Module time:
	user time   =      17.84 seconds =       0.30 minutes
	system time =       0.40 seconds =       0.01 minutes
	total time  =          5 seconds =       0.08 minutes
Total time:
	user time   =     164.86 seconds =       2.75 minutes
	system time =       4.33 seconds =       0.07 minutes
	total time  =         47 seconds =       0.78 minutes

			-----------------------------------------
			 OPTKING 2.0: for geometry optimizations 
			  - R.A. King,  Bethel University        
			-----------------------------------------

	Previous internal coordinate definitions found.
	---Fragment 1 Geometry and Gradient---
	 H           1.6181794728        4.5088091357       -2.5677453229
	 O           0.7474098905        3.4281762516       -1.4617320550
	 C           2.3409171838        1.4636645479       -0.6601831016
	 C           0.8694544545       -0.2908697767        1.0623600691
	 H           3.9566360250        2.2258658181        0.3537776935
	 H           3.0586890469        0.4161530937       -2.2778964131
	 C          -1.3121106945       -1.6508141141       -0.2446853276
	 H           0.1556734790        0.8043759369        2.6441890010
	 H           2.1802390806       -1.6706425336        1.8358770397
	 C          -2.7604009549       -3.3980321677        1.5312146491
	 H          -0.5775773394       -2.7405971802       -1.8238642962
	 H          -2.5885941668       -0.2627345986       -1.0403604865
	 H          -4.2917008124       -4.3438466680        0.5533847236
	 H          -1.5356816766       -4.8425751604        2.3184975083
	 H          -3.5724470400       -2.3509714170        3.0957525389
	            -0.0000053680        0.0000014477        0.0000091623
	            -0.0000290970        0.0000185275       -0.0000082440
	             0.0000550470        0.0000029432       -0.0000121252
	             0.0000316917       -0.0000935189        0.0000538462
	            -0.0000236401       -0.0000157081       -0.0000108211
	             0.0000086089       -0.0000092901        0.0000162538
	             0.0000020555       -0.0000590318        0.0001017861
	            -0.0000179272        0.0000795436       -0.0000700780
	            -0.0000059880       -0.0000000979        0.0000036689
	            -0.0000043542       -0.0000463872       -0.0000202098
	            -0.0000193840        0.0000853839       -0.0000492826
	            -0.0000043997        0.0000143686       -0.0000136521
	             0.0000170826        0.0000066996        0.0000169878
	            -0.0000098390        0.0000100561       -0.0000011850
	             0.0000055114        0.0000050637       -0.0000161072

	---Fragment 1 Intrafragment Coordinates---
	 - Coordinate -           - BOHR/RAD -       - ANG/DEG -
	 R(1,2)           =         1.774619	       0.939088
	 R(2,3)           =         2.653498	       1.404171
	 R(3,4)           =         2.865440	       1.516326
	 R(3,5)           =         2.054170	       1.087020
	 R(3,6)           =         2.056568	       1.088289
	 R(4,7)           =         2.883928	       1.526109
	 R(4,8)           =         2.052128	       1.085939
	 R(4,9)           =         2.054327	       1.087103
	 R(7,10)          =         2.881690	       1.524925
	 R(7,11)          =         2.054501	       1.087195
	 R(7,12)          =         2.046772	       1.083105
	 R(10,13)         =         2.048315	       1.083922
	 R(10,14)         =         2.050965	       1.085324
	 R(10,15)         =         2.050252	       1.084947
	 B(1,2,3)         =         1.922419	     110.146474
	 B(2,3,4)         =         1.903422	     109.058039
	 B(2,3,5)         =         1.924901	     110.288690
	 B(2,3,6)         =         1.927382	     110.430856
	 B(3,4,7)         =         1.987499	     113.875281
	 B(3,4,8)         =         1.891458	     108.372576
	 B(3,4,9)         =         1.885931	     108.055890
	 B(4,3,5)         =         1.911742	     109.534762
	 B(4,3,6)         =         1.917939	     109.889795
	 B(4,7,10)        =         1.967948	     112.755098
	 B(4,7,11)        =         1.905028	     109.150089
	 B(4,7,12)        =         1.905144	     109.156728
	 B(5,3,6)         =         1.878377	     107.623065
	 B(7,4,8)         =         1.915495	     109.749798
	 B(7,4,9)         =         1.914095	     109.669582
	 B(7,10,13)       =         1.940671	     111.192234
	 B(7,10,14)       =         1.942808	     111.314722
	 B(7,10,15)       =         1.938728	     111.080958
	 B(8,4,9)         =         1.865188	     106.867427
	 B(10,7,11)       =         1.908970	     109.375940
	 B(10,7,12)       =         1.914870	     109.713997
	 B(11,7,12)       =         1.858652	     106.492905
	 B(13,10,14)      =         1.880150	     107.724651
	 B(13,10,15)      =         1.879691	     107.698356
	 B(14,10,15)      =         1.878936	     107.655116
	 D(1,2,3,4)       =        -3.114311	    -178.436869
	 D(1,2,3,5)       =         1.068832	      61.239582
	 D(1,2,3,6)       =        -1.005082	     -57.586950
	 D(2,3,4,7)       =         1.123008	      64.343616
	 D(2,3,4,8)       =        -1.013941	     -58.094532
	 D(2,3,4,9)       =        -3.029065	    -173.552643
	 D(3,4,7,10)      =        -3.140019	    -179.909841
	 D(3,4,7,11)      =         1.017896	      58.321120
	 D(3,4,7,12)      =        -1.007141	     -57.704902
	 D(4,7,10,13)     =        -3.137448	    -179.762537
	 D(4,7,10,14)     =        -1.040997	     -59.644721
	 D(4,7,10,15)     =         1.052608	      60.310000
	 D(5,3,4,7)       =        -3.052061	    -174.870225
	 D(5,3,4,8)       =         1.094175	      62.691627
	 D(5,3,4,9)       =        -0.920949	     -52.766485
	 D(6,3,4,7)       =        -0.991988	     -56.836711
	 D(6,3,4,8)       =        -3.128937	    -179.274859
	 D(6,3,4,9)       =         1.139125	      65.267030
	 D(8,4,7,10)      =        -1.016332	     -58.231536
	*D(8,4,7,11)      =         3.141593	     180.000000
	 D(8,4,7,12)      =         1.116547	      63.973403
	 D(9,4,7,10)      =         1.027661	      58.880632
	 D(9,4,7,11)      =        -1.097610	     -62.888407
	 D(9,4,7,12)      =        -3.122646	    -178.914429
	 D(11,7,10,13)    =        -1.014408	     -58.121269
	 D(11,7,10,14)    =         1.082044	      61.996547
	 D(11,7,10,15)    =        -3.107537	    -178.048732
	 D(12,7,10,13)    =         1.018341	      58.346619
	 D(12,7,10,14)    =         3.114792	     178.464434
	 D(12,7,10,15)    =        -1.074788	     -61.580844

	Current energy   :      -232.2390998970

	Energy change for the previous step:
		Projected    :        -0.0000046685
		Actual       :        -0.0000004623
	Energy ratio indicates iffy step: Trust radius decreased to 3.125e-02.


	Performing BFGS update.
	Previous computed or guess Hessian on step 1.
	Steps to be used in Hessian update: 4 3
	Taking RFO optimization step.
	Going to follow RFO solution 1.
	Using RFO vector 1.
	Norm of target step-size    0.00383
	Projected energy change by RFO approximation:        -0.0000003523

	Back-transformation to cartesian coordinates...
	Could not converge backtransformation.
	Using first guess instead.

	Back-transformation to cartesian coordinates to adjust frozen coordinates...
	Successfully converged to displaced geometry.

	--- Internal Coordinate Step in ANG or DEG, aJ/ANG or AJ/DEG ---
	 ---------------------------------------------------------------------------
	   Coordinate                Previous        Force       Change         New 
	   ----------                --------       ------       ------       ------
	    1 R(1,2)          =      0.939088     0.000061     0.000005     0.939093
	    2 R(2,3)          =      1.404171    -0.000290    -0.000035     1.404136
	    3 R(3,4)          =      1.516326    -0.000042     0.000004     1.516330
	    4 R(3,5)          =      1.087020     0.000245     0.000050     1.087070
	    5 R(3,6)          =      1.088289     0.000042     0.000017     1.088306
	    6 R(4,7)          =      1.526109     0.000048     0.000024     1.526134
	    7 R(4,8)          =      1.085939     0.000044     0.000005     1.085944
	    8 R(4,9)          =      1.087103     0.000020     0.000001     1.087103
	    9 R(7,10)         =      1.524925     0.000016     0.000002     1.524927
	   10 R(7,11)         =      1.087195     0.000118     0.000015     1.087210
	   11 R(7,12)         =      1.083105    -0.000147    -0.000021     1.083084
	   12 R(10,13)        =      1.083922     0.000197     0.000038     1.083960
	   13 R(10,14)        =      1.085324     0.000111     0.000029     1.085352
	   14 R(10,15)        =      1.084947     0.000098     0.000025     1.084971
	   15 B(1,2,3)        =    110.146474    -0.000001    -0.001083   110.145391
	   16 B(2,3,4)        =    109.058039     0.000002     0.005966   109.064005
	   17 B(2,3,5)        =    110.288690    -0.000001    -0.001601   110.287089
	   18 B(2,3,6)        =    110.430856    -0.000002    -0.009037   110.421819
	   19 B(3,4,7)        =    113.875281     0.000000    -0.000144   113.875137
	   20 B(3,4,8)        =    108.372576    -0.000000    -0.000191   108.372385
	   21 B(3,4,9)        =    108.055890    -0.000000    -0.003978   108.051913
	   22 B(4,3,5)        =    109.534762     0.000000     0.002776   109.537538
	   23 B(4,3,6)        =    109.889795    -0.000000     0.001320   109.891115
	   24 B(4,7,10)       =    112.755098    -0.000001    -0.004424   112.750674
	   25 B(4,7,11)       =    109.150089     0.000000     0.005682   109.155771
	   26 B(4,7,12)       =    109.156728     0.000001    -0.004289   109.152438
	   27 B(5,3,6)        =    107.623065     0.000000     0.000545   107.623610
	   28 B(7,4,8)        =    109.749798     0.000001     0.005891   109.755690
	   29 B(7,4,9)        =    109.669582    -0.000000    -0.003280   109.666301
	   30 B(7,10,13)      =    111.192234    -0.000001    -0.004935   111.187299
	   31 B(7,10,14)      =    111.314722    -0.000001    -0.002501   111.312220
	   32 B(7,10,15)      =    111.080958     0.000002     0.005780   111.086738
	   33 B(8,4,9)        =    106.867427    -0.000000     0.001727   106.869154
	   34 B(10,7,11)      =    109.375940     0.000001     0.009785   109.385725
	   35 B(10,7,12)      =    109.713997    -0.000000    -0.006968   109.707029
	   36 B(11,7,12)      =    106.492905    -0.000000     0.000534   106.493440
	   37 B(13,10,14)     =    107.724651     0.000000     0.000009   107.724661
	   38 B(13,10,15)     =    107.698356    -0.000000     0.000822   107.699178
	   39 B(14,10,15)     =    107.655116    -0.000000     0.000940   107.656056
	   40 D(1,2,3,4)      =   -178.436869     0.000000     0.056311  -178.380558
	   41 D(1,2,3,5)      =     61.239582    -0.000000     0.050119    61.289701
	   42 D(1,2,3,6)      =    -57.586950     0.000000     0.056115   -57.530834
	   43 D(2,3,4,7)      =     64.343616     0.000000     0.045374    64.388990
	   44 D(2,3,4,8)      =    -58.094532    -0.000000     0.038041   -58.056491
	   45 D(2,3,4,9)      =   -173.552643    -0.000000     0.038192  -173.514451
	   46 D(3,4,7,10)     =   -179.909841     0.000000     0.009511  -179.900330
	   47 D(3,4,7,11)     =     58.321120    -0.000000    -0.004022    58.317099
	   48 D(3,4,7,12)     =    -57.704902    -0.000000    -0.005436   -57.710338
	   49 D(4,7,10,13)    =   -179.762537    -0.000000    -0.053363  -179.815900
	   50 D(4,7,10,14)    =    -59.644721    -0.000000    -0.058374   -59.703096
	   51 D(4,7,10,15)    =     60.310000    -0.000000    -0.054974    60.255027
	   52 D(5,3,4,7)      =   -174.870225     0.000000     0.048807  -174.821418
	   53 D(5,3,4,8)      =     62.691627    -0.000000     0.041474    62.733101
	   54 D(5,3,4,9)      =    -52.766485     0.000000     0.041625   -52.724859
	   55 D(6,3,4,7)      =    -56.836711     0.000000     0.051919   -56.784792
	   56 D(6,3,4,8)      =   -179.274859     0.000000     0.044586  -179.230273
	   57 D(6,3,4,9)      =     65.267030     0.000000     0.044737    65.311767
	   58 D(8,4,7,10)     =    -58.231536     0.000000     0.013533   -58.218003
	   59 *D(8,4,7,11)    =    180.000000    -0.000000     0.000000   180.000000
	   60 D(8,4,7,12)     =     63.973403    -0.000000    -0.001414    63.971989
	   61 D(9,4,7,10)     =     58.880632     0.000000     0.017153    58.897785
	   62 D(9,4,7,11)     =    -62.888407     0.000000     0.003620   -62.884787
	   63 D(9,4,7,12)     =   -178.914429    -0.000000     0.002206  -178.912223
	   64 D(11,7,10,13)   =    -58.121269     0.000000    -0.042145   -58.163413
	   65 D(11,7,10,14)   =     61.996547    -0.000000    -0.047155    61.949391
	   66 D(11,7,10,15)   =   -178.048732    -0.000000    -0.043755  -178.092487
	   67 D(12,7,10,13)   =     58.346619     0.000000    -0.039852    58.306767
	   68 D(12,7,10,14)   =    178.464434    -0.000000    -0.044863   178.419572
	   69 D(12,7,10,15)   =    -61.580844     0.000000    -0.041462   -61.622306
	 ---------------------------------------------------------------------------
	Successfully symmetrized geometry.

  ==> Convergence Check <==

  Measures of convergence in internal coordinates in au.
  Criteria marked as inactive (o), active & met (*), and active & unmet ( ).
  ---------------------------------------------------------------------------------------------
   Step     Total Energy     Delta E     MAX Force     RMS Force      MAX Disp      RMS Disp   
  ---------------------------------------------------------------------------------------------
    Convergence Criteria    1.00e-06 *    3.00e-04 *             o    1.20e-03 *             o
  ---------------------------------------------------------------------------------------------
      5    -232.23909990   -4.62e-07 *    3.52e-05 *    1.07e-05 o    1.02e-03 *    4.60e-04 o  ~
  ---------------------------------------------------------------------------------------------


  **** Optimization is complete! (in 5 steps) ****

  ==> Optimization Summary <==

  Measures of convergence in internal coordinates in au.
  --------------------------------------------------------------------------------------------------------------- ~
   Step         Total Energy             Delta E       MAX Force       RMS Force        MAX Disp        RMS Disp  ~
  --------------------------------------------------------------------------------------------------------------- ~
      1    -232.238579448198   -232.238579448198      0.00714071      0.00149099      0.09617137      0.04017473  ~
      2    -232.239013054404     -0.000433606206      0.00340771      0.00085133      0.01478400      0.00541548  ~
      3    -232.239096726543     -0.000083672138      0.00029909      0.00009601      0.01484552      0.00507467  ~
      4    -232.239099434676     -0.000002708133      0.00011719      0.00003376      0.00562100      0.00209995  ~
      5    -232.239099897017     -0.000000462341      0.00003521      0.00001074      0.00101882      0.00046049  ~
  --------------------------------------------------------------------------------------------------------------- ~

	Writing optimization data to binary file.
	Final energy is   -232.2390998970166
	Final (previous) structure:
	Cartesian Geometry (in Angstrom)
	    H     0.8563036964   2.3859590325  -1.3587923024
	    O     0.3955122796   1.8141127394  -0.7735152886
	    C     1.2387600209   0.7745379198  -0.3493538509
	    C     0.4600954812  -0.1539216565   0.5621767359
	    H     2.0937616071   1.1778774603   0.1872110923
	    H     1.6185885318   0.2202187325  -1.2054108653
	    C    -0.6943390747  -0.8735732048  -0.1294818987
	    H     0.0823788571   0.4256574130   1.3992445545
	    H     1.1537328307  -0.8840659525   0.9715042872
	    C    -1.4607412719  -1.7981611772   0.8102838938
	    H    -0.3056407642  -1.4502615657  -0.9651474171
	    H    -1.3698250354  -0.1390331615  -0.5505350582
	    H    -2.2710702560  -2.2986646543   0.2928385833
	    H    -0.8126477429  -2.5625804058   1.2268960396
	    H    -1.8904575525  -1.2440804919   1.6382016870
	Saving final (previous) structure.
			--------------------------
			 OPTKING Finished Execution 
			--------------------------

    Final optimized geometry and variables:
    Molecular point group: c1
    Full point group: C1

    Geometry (in Angstrom), charge = 0, multiplicity = 1:

    H            0.856303696391     2.385959032475    -1.358792302360
    O            0.395512279552     1.814112739361    -0.773515288564
    C            1.238760020862     0.774537919766    -0.349353850887
    C            0.460095481245    -0.153921656475     0.562176735875
    H            2.093761607119     1.177877460336     0.187211092324
    H            1.618588531795     0.220218732457    -1.205410865347
    C           -0.694339074688    -0.873573204797    -0.129481898662
    H            0.082378857072     0.425657412961     1.399244554525
    H            1.153732830725    -0.884065952493     0.971504287190
    C           -1.460741271926    -1.798161177196     0.810283893771
    H           -0.305640764217    -1.450261565676    -0.965147417120
    H           -1.369825035385    -0.139033161473    -0.550535058175
    H           -2.271070256028    -2.298664654322     0.292838583307
    H           -0.812647742897    -2.562580405782     1.226896039556
    H           -1.890457552457    -1.244080491933     1.638201687017

	Cleaning optimization helper files.


Properties will be evaluated at   0.000000,   0.000000,   0.000000 Bohr

Properties computed using the  density matrix

  Nuclear Dipole Moment: (a.u.)
     X:    -0.7901      Y:    -4.0871      Z:     1.5300

  Electronic Dipole Moment: (a.u.)
     X:     1.3680      Y:     4.0642      Z:    -1.7388

  Dipole Moment: (a.u.)
     X:     0.5779      Y:    -0.0229      Z:    -0.2088     Total:     0.6149

  Dipole Moment: (Debye)
     X:     1.4688      Y:    -0.0582      Z:    -0.5307     Total:     1.5628

  Quadrupole Moment: (Debye Ang)
    XX:   -31.6192     YY:   -32.6890     ZZ:   -32.0432
    XY:     2.3806     XZ:    -1.5915     YZ:    -1.7003

  Traceless Quadrupole Moment: (Debye Ang)
    XX:     0.4979     YY:    -0.5719     ZZ:     0.0740
    XY:     2.3806     XZ:    -1.5915     YZ:    -1.7003

  Mulliken Charges: (a.u.)
   Center  Symbol    Alpha    Beta     Spin     Total
       1     H     0.39555  0.39555  0.00000  0.20890
       2     O     4.19904  4.19904  0.00000 -0.39808
       3     C     2.97293  2.97293  0.00000  0.05413
       4     C     3.08783  3.08783  0.00000 -0.17565
       5     H     0.46563  0.46563  0.00000  0.06874
       6     H     0.47387  0.47387  0.00000  0.05226
       7     C     3.08360  3.08360  0.00000 -0.16720
       8     H     0.45265  0.45265  0.00000  0.09469
       9     H     0.45500  0.45500  0.00000  0.09001
      10     C     3.14964  3.14964  0.00000 -0.29927
      11     H     0.45905  0.45905  0.00000  0.08189
      12     H     0.44447  0.44447  0.00000  0.11107
      13     H     0.44891  0.44891  0.00000  0.10219
      14     H     0.45732  0.45732  0.00000  0.08537
      15     H     0.45452  0.45452  0.00000  0.09096

   Total alpha = 21.00000, Total beta = 21.00000, Total charge = -0.00000


*** Psi4 exiting successfully. Buy a developer a beer!
