    -----------------------------------------------------------------------
          Psi4: An Open-Source Ab Initio Electronic Structure Package
                              Psi4 (no tag) Driver

                          Git: Rev {detached?}  

    J. M. Turney, A. C. Simmonett, R. M. Parrish, E. G. Hohenstein,
    F. A. Evangelista, J. T. Fermann, B. J. Mintz, L. A. Burns, J. J. Wilke,
    M. L. Abrams, N. J. Russ, M. L. Leininger, C. L. Janssen, E. T. Seidl,
    W. D. Allen, H. F. Schaefer, R. A. King, E. F. Valeev, C. D. Sherrill,
    and T. D. Crawford, WIREs Comput. Mol. Sci. 2, 556-565 (2012)
    (doi: 10.1002/wcms.93)

                         Additional Contributions by
    A. E. DePrince, M. Saitow, U. Bozkaya, A. Yu. Sokolov
    -----------------------------------------------------------------------


    Psi4 started on: Fri Sep  2 14:04:07 2016

    Process ID:  11544
    PSI4DATADIR: /export131/home/mjharvey/miniconda3/share
    Memory level set to 256.000 MB

  ==> Input File <==

--------------------------------------------------------------------------
set {
	reference rhf
	basis 6-31G*
}


set_num_threads( 4 )
memory 2 gb

molecule MOL {
0 1

O	 1.214711	 1.306902	 -0.000018
C	 1.122059	 0.121804	 -0.000188
C	 -0.170150	 -0.657997	 -0.000612
O	 2.172624	 -0.688929	 0.000216
C	 -1.412532	 0.227344	 -0.000452
H	 -0.153702	 -1.313099	 -0.867402
H	 -0.153924	 -1.313811	 0.865644
C	 -2.705632	 -0.585444	 0.080994
H	 -1.417547	 0.838009	 -0.897987
H	 -1.359476	 0.919131	 0.834484
C	 -3.955359	 0.293864	 0.082977
H	 -2.753355	 -1.277478	 -0.757389
H	 -2.694228	 -1.197377	 0.980704
H	 -4.013588	 0.893426	 -0.820787
H	 -4.857735	 -0.306653	 0.141051
H	 -3.954336	 0.973651	 0.930048
C	 3.452279	 -0.082609	 0.000533
H	 3.583069	 0.529321	 -0.880332
H	 4.163299	 -0.894027	 0.001117
H	 3.582335	 0.529955	 0.881077

	symmetry c1
}
set optking {
	frozen_dihedral = ("
		9 5 3 6
	")
}

ee = optimize('scf')
oeprop('DIPOLE', 'QUADRUPOLE', 'MULLIKEN_CHARGES')
f=open( 'psi4out.xyz', 'w' )
f.write( "20  " )
f.write( str(ee) + "\n" )
f.write( MOL.save_string_xyz() )
f.close()
--------------------------------------------------------------------------

  Memory set to   2.000 GiB by Python script.
gradient() will perform analytic gradient computation.

*** tstart() called on cx1-1-2-3.cx1.hpc.ic.ac.uk
*** at Fri Sep  2 14:04:08 2016


         ---------------------------------------------------------
                                   SCF
            by Justin Turney, Rob Parrish, and Andy Simmonett
                              RHF Reference
                        4 Threads,   2000 MiB Core
         ---------------------------------------------------------

  ==> Geometry <==

    Molecular point group: c1
    Full point group: C1

    Geometry (in Angstrom), charge = 0, multiplicity = 1:

       Center              X                  Y                   Z               Mass       
    ------------   -----------------  -----------------  -----------------  -----------------
           O          1.214362567061     1.306416582956    -0.020482789063    15.994914619560
           C          1.121710567061     0.121318582956    -0.020652789063    12.000000000000
           C         -0.170498432939    -0.658482417044    -0.021076789063    12.000000000000
           O          2.172275567061    -0.689414417044    -0.020248789063    15.994914619560
           C         -1.412880432939     0.226858582956    -0.020916789063    12.000000000000
           H         -0.154050432939    -1.313584417044    -0.887866789063     1.007825032070
           H         -0.154272432939    -1.314296417044     0.845179210937     1.007825032070
           C         -2.705980432939    -0.585929417044     0.060529210937    12.000000000000
           H         -1.417895432939     0.837523582956    -0.918451789063     1.007825032070
           H         -1.359824432939     0.918645582956     0.814019210937     1.007825032070
           C         -3.955707432939     0.293378582956     0.062512210937    12.000000000000
           H         -2.753703432939    -1.277963417044    -0.777853789063     1.007825032070
           H         -2.694576432939    -1.197862417044     0.960239210937     1.007825032070
           H         -4.013936432939     0.892940582956    -0.841251789063     1.007825032070
           H         -4.858083432939    -0.307138417044     0.120586210937     1.007825032070
           H         -3.954684432939     0.973165582956     0.909583210937     1.007825032070
           C          3.451930567061    -0.083094417044    -0.019931789063    12.000000000000
           H          3.582720567061     0.528835582956    -0.900796789063     1.007825032070
           H          4.162950567061    -0.894512417044    -0.019347789063     1.007825032070
           H          3.581986567061     0.529469582956     0.860612210937     1.007825032070

  Running in c1 symmetry.

  Rotational constants: A =      0.25851  B =      0.02468  C =      0.02301 [cm^-1]
  Rotational constants: A =   7749.85512  B =    740.01212  C =    689.75129 [MHz]
  Nuclear repulsion =  381.081290911547967

  Charge       = 0
  Multiplicity = 1
  Electrons    = 64
  Nalpha       = 32
  Nbeta        = 32

  ==> Algorithm <==

  SCF Algorithm Type is DF.
  DIIS enabled.
  MOM disabled.
  Fractional occupation disabled.
  Guess Type is CORE.
  Energy threshold   = 1.00e-08
  Density threshold  = 1.00e-08
  Integral threshold = 0.00e+00

  ==> Primary Basis <==

  Basis Set: 6-31G*
    Number of shells: 72
    Number of basis function: 144
    Number of Cartesian functions: 144
    Spherical Harmonics?: false
    Max angular momentum: 2

  ==> Pre-Iterations <==

   -------------------------------------------------------
    Irrep   Nso     Nmo     Nalpha   Nbeta   Ndocc  Nsocc
   -------------------------------------------------------
     A        144     144       0       0       0       0
   -------------------------------------------------------
    Total     144     144      32      32      32       0
   -------------------------------------------------------

 OEINTS: Overlap, kinetic, potential, dipole, and quadrupole integrals
         stored in file 35.

  ==> Integral Setup <==

  ==> DFJK: Density-Fitted J/K Matrices <==

    J tasked:                  Yes
    K tasked:                  Yes
    wK tasked:                  No
    OpenMP threads:              4
    Integrals threads:           4
    Memory (MB):              1430
    Algorithm:                Core
    Integral Cache:           NONE
    Schwarz Cutoff:          1E-12
    Fitting Condition:       1E-12

   => Auxiliary Basis Set <=

  Basis Set: 
    Number of shells: 300
    Number of basis function: 948
    Number of Cartesian functions: 948
    Spherical Harmonics?: false
    Max angular momentum: 3

  Minimum eigenvalue in the overlap matrix is 2.5670920679E-03.
  Using Symmetric Orthogonalization.
  SCF Guess: Core (One-Electron) Hamiltonian.

  ==> Iterations <==

                           Total Energy        Delta E     RMS |[F,P]|

   @DF-RHF iter   1:  -249.59321077119216   -2.49593e+02   7.39765e-02 
   @DF-RHF iter   2:   -12.16739687731558    2.37426e+02   8.75160e-02 DIIS
   @DF-RHF iter   3:  -197.23052586061556   -1.85063e+02   7.22517e-02 DIIS
   @DF-RHF iter   4:  -274.94408130996862   -7.77136e+01   6.34133e-02 DIIS
   @DF-RHF iter   5:  -362.86049632583627   -8.79164e+01   3.57562e-02 DIIS
   @DF-RHF iter   6:  -380.06448579971459   -1.72040e+01   1.55064e-02 DIIS
   @DF-RHF iter   7:  -383.51173908680403   -3.44725e+00   6.71791e-03 DIIS
   @DF-RHF iter   8:  -383.87208990116960   -3.60351e-01   2.76932e-03 DIIS
   @DF-RHF iter   9:  -383.93635014612869   -6.42602e-02   5.22206e-04 DIIS
   @DF-RHF iter  10:  -383.94041428475953   -4.06414e-03   2.39318e-04 DIIS
   @DF-RHF iter  11:  -383.94139734242754   -9.83058e-04   7.93424e-05 DIIS
   @DF-RHF iter  12:  -383.94153902518542   -1.41683e-04   2.90677e-05 DIIS
   @DF-RHF iter  13:  -383.94155265818176   -1.36330e-05   1.16357e-05 DIIS
   @DF-RHF iter  14:  -383.94155527924158   -2.62106e-06   4.01658e-06 DIIS
   @DF-RHF iter  15:  -383.94155556945043   -2.90209e-07   9.63877e-07 DIIS
   @DF-RHF iter  16:  -383.94155559487035   -2.54199e-08   3.06496e-07 DIIS
   @DF-RHF iter  17:  -383.94155559749061   -2.62025e-09   7.90609e-08 DIIS
   @DF-RHF iter  18:  -383.94155559763999   -1.49385e-10   2.39012e-08 DIIS
   @DF-RHF iter  19:  -383.94155559765318   -1.31877e-11   7.09738e-09 DIIS

  ==> Post-Iterations <==

    Orbital Energies (a.u.)
    -----------------------

    Doubly Occupied:                                                      

       1A    -20.603777     2A    -20.545577     3A    -11.372439  
       4A    -11.280954     5A    -11.235725     6A    -11.220339  
       7A    -11.219333     8A    -11.210665     9A     -1.469481  
      10A     -1.362931    11A     -1.088769    12A     -1.024441  
      13A     -0.969156    14A     -0.885883    15A     -0.804050  
      16A     -0.767625    17A     -0.696872    18A     -0.683812  
      19A     -0.672034    20A     -0.646092    21A     -0.597527  
      22A     -0.592099    23A     -0.578911    24A     -0.539332  
      25A     -0.537468    26A     -0.522808    27A     -0.500697  
      28A     -0.478268    29A     -0.473409    30A     -0.470644  
      31A     -0.455828    32A     -0.437093  

    Virtual:                                                              

      33A      0.199361    34A      0.227008    35A      0.255289  
      36A      0.267344    37A      0.281381    38A      0.294450  
      39A      0.312397    40A      0.317952    41A      0.324301  
      42A      0.325406    43A      0.331444    44A      0.342671  
      45A      0.348764    46A      0.372863    47A      0.389797  
      48A      0.427264    49A      0.435477    50A      0.488934  
      51A      0.532369    52A      0.577997    53A      0.705966  
      54A      0.725470    55A      0.734349    56A      0.748460  
      57A      0.757013    58A      0.761795    59A      0.791205  
      60A      0.817072    61A      0.834568    62A      0.849922  
      63A      0.894978    64A      0.951888    65A      0.952860  
      66A      0.970347    67A      1.001244    68A      1.017003  
      69A      1.092997    70A      1.099605    71A      1.112698  
      72A      1.120551    73A      1.127686    74A      1.131575  
      75A      1.159851    76A      1.166391    77A      1.188696  
      78A      1.192500    79A      1.206332    80A      1.209912  
      81A      1.221351    82A      1.226789    83A      1.243127  
      84A      1.264925    85A      1.271415    86A      1.306739  
      87A      1.317173    88A      1.380978    89A      1.415394  
      90A      1.548135    91A      1.590276    92A      1.625682  
      93A      1.664330    94A      1.687018    95A      1.741901  
      96A      1.770863    97A      1.800318    98A      1.871250  
      99A      1.895249   100A      1.933921   101A      2.004988  
     102A      2.017665   103A      2.118969   104A      2.129220  
     105A      2.139557   106A      2.200928   107A      2.206264  
     108A      2.226039   109A      2.266309   110A      2.295458  
     111A      2.301474   112A      2.332668   113A      2.384740  
     114A      2.386399   115A      2.401321   116A      2.446892  
     117A      2.474725   118A      2.533611   119A      2.569513  
     120A      2.609684   121A      2.661015   122A      2.669239  
     123A      2.692164   124A      2.730248   125A      2.758480  
     126A      2.824021   127A      2.837864   128A      2.918440  
     129A      2.946551   130A      3.032006   131A      3.067215  
     132A      3.108313   133A      3.169068   134A      3.349402  
     135A      3.453119   136A      3.582230   137A      4.414470  
     138A      4.549675   139A      4.618400   140A      4.659458  
     141A      4.720880   142A      4.799029   143A      4.879631  
     144A      5.015539  

    Final Occupation by Irrep:
              A 
    DOCC [    32 ]

  Energy converged.

  @DF-RHF Final Energy:  -383.94155559765318

   => Energetics <=

    Nuclear Repulsion Energy =            381.0812909115479670
    One-Electron Energy =               -1278.1576128062679345
    Two-Electron Energy =                 513.1347662970670171
    DFT Exchange-Correlation Energy =       0.0000000000000000
    Empirical Dispersion Energy =           0.0000000000000000
    PCM Polarization Energy =               0.0000000000000000
    EFP Energy =                            0.0000000000000000
    Total Energy =                       -383.9415555976529504

    Alert: EFP and PCM quantities not currently incorporated into SCF psivars.

Properties will be evaluated at   0.000000,   0.000000,   0.000000 Bohr
  ==> Properties <==


Properties computed using the SCF density matrix

  Nuclear Dipole Moment: (a.u.)
     X:    -9.3897      Y:    -1.5202      Z:     0.1542

  Electronic Dipole Moment: (a.u.)
     X:     9.5313      Y:     0.8233      Z:    -0.1530

  Dipole Moment: (a.u.)
     X:     0.1416      Y:    -0.6969      Z:     0.0012     Total:     0.7111

  Dipole Moment: (Debye)
     X:     0.3599      Y:    -1.7713      Z:     0.0030     Total:     1.8075


  Saving occupied orbitals to File 180.

*** tstop() called on cx1-1-2-3.cx1.hpc.ic.ac.uk at Fri Sep  2 14:04:15 2016
Module time:
	user time   =      20.19 seconds =       0.34 minutes
	system time =       0.28 seconds =       0.00 minutes
	total time  =          7 seconds =       0.12 minutes
Total time:
	user time   =      20.19 seconds =       0.34 minutes
	system time =       0.28 seconds =       0.00 minutes
	total time  =          7 seconds =       0.12 minutes

*** tstart() called on cx1-1-2-3.cx1.hpc.ic.ac.uk
*** at Fri Sep  2 14:04:15 2016


         ------------------------------------------------------------
                                   SCF GRAD                          
                          Rob Parrish, Justin Turney,                
                       Andy Simmonett, and Alex Sokolov              
         ------------------------------------------------------------

  ==> Geometry <==

    Molecular point group: c1
    Full point group: C1

    Geometry (in Angstrom), charge = 0, multiplicity = 1:

       Center              X                  Y                   Z               Mass       
    ------------   -----------------  -----------------  -----------------  -----------------
           O          1.214362567061     1.306416582956    -0.020482789063    15.994914619560
           C          1.121710567061     0.121318582956    -0.020652789063    12.000000000000
           C         -0.170498432939    -0.658482417044    -0.021076789063    12.000000000000
           O          2.172275567061    -0.689414417044    -0.020248789063    15.994914619560
           C         -1.412880432939     0.226858582956    -0.020916789063    12.000000000000
           H         -0.154050432939    -1.313584417044    -0.887866789063     1.007825032070
           H         -0.154272432939    -1.314296417044     0.845179210937     1.007825032070
           C         -2.705980432939    -0.585929417044     0.060529210937    12.000000000000
           H         -1.417895432939     0.837523582956    -0.918451789063     1.007825032070
           H         -1.359824432939     0.918645582956     0.814019210937     1.007825032070
           C         -3.955707432939     0.293378582956     0.062512210937    12.000000000000
           H         -2.753703432939    -1.277963417044    -0.777853789063     1.007825032070
           H         -2.694576432939    -1.197862417044     0.960239210937     1.007825032070
           H         -4.013936432939     0.892940582956    -0.841251789063     1.007825032070
           H         -4.858083432939    -0.307138417044     0.120586210937     1.007825032070
           H         -3.954684432939     0.973165582956     0.909583210937     1.007825032070
           C          3.451930567061    -0.083094417044    -0.019931789063    12.000000000000
           H          3.582720567061     0.528835582956    -0.900796789063     1.007825032070
           H          4.162950567061    -0.894512417044    -0.019347789063     1.007825032070
           H          3.581986567061     0.529469582956     0.860612210937     1.007825032070

  Nuclear repulsion =  381.081290911548024

  ==> Basis Set <==

  Basis Set: 6-31G*
    Number of shells: 72
    Number of basis function: 144
    Number of Cartesian functions: 144
    Spherical Harmonics?: false
    Max angular momentum: 2

  ==> DFJKGrad: Density-Fitted SCF Gradients <==

    Gradient:                    1
    J tasked:                  Yes
    K tasked:                  Yes
    wK tasked:                  No
    OpenMP threads:              4
    Integrals threads:           4
    Memory (MB):              1430
    Schwarz Cutoff:          0E+00
    Fitting Condition:       1E-12

   => Auxiliary Basis Set <=

  Basis Set: 
    Number of shells: 300
    Number of basis function: 948
    Number of Cartesian functions: 948
    Spherical Harmonics?: false
    Max angular momentum: 3


  -Total Gradient:
     Atom            X                  Y                   Z
    ------   -----------------  -----------------  -----------------
       1       -0.000022039890     0.000003728048     0.000006649087
       2        0.000003334586    -0.000015156486     0.000187642752
       3       -0.000019968647     0.000022668913     0.000086073233
       4       -0.000019894396     0.000007309517     0.000032420252
       5        0.000022621733    -0.000037295199    -0.000526919279
       6        0.000069904409     0.000131433474    -0.000126236117
       7       -0.000093495825    -0.000125885025    -0.000105587455
       8        0.000027730242    -0.000001255139     0.000362023512
       9       -0.000029343509    -0.000186452522     0.000029566569
      10        0.000054179775     0.000195508442     0.000018154472
      11        0.000001412953     0.000007842388     0.000035444363
      12        0.000052274872     0.000069646526    -0.000006322946
      13       -0.000054259986    -0.000075019999     0.000002923520
      14        0.000016336077    -0.000001060865     0.000005845351
      15        0.000005231833     0.000002858749     0.000007657548
      16       -0.000021437015    -0.000000360636    -0.000002377592
      17        0.000010296006     0.000001798227    -0.000015804011
      18        0.000000294464    -0.000004812866     0.000006706362
      19        0.000000318663     0.000003339764     0.000000197312
      20       -0.000003496347     0.000001164693     0.000001943067


*** tstop() called on cx1-1-2-3.cx1.hpc.ic.ac.uk at Fri Sep  2 14:04:21 2016
Module time:
	user time   =      25.64 seconds =       0.43 minutes
	system time =       0.27 seconds =       0.00 minutes
	total time  =          6 seconds =       0.10 minutes
Total time:
	user time   =      45.84 seconds =       0.76 minutes
	system time =       0.55 seconds =       0.01 minutes
	total time  =         13 seconds =       0.22 minutes
CURRENT ENERGY: -383.9415555977

			-----------------------------------------
			 OPTKING 2.0: for geometry optimizations 
			  - R.A. King,  Bethel University        
			-----------------------------------------

	Internal coordinates to be generated automatically.
	Detected frag with atoms:  1 2 3 4 5 6 7 8 9 10 11 12 13 14 15 16 17 18 19 20
	---Fragment 1 Bond Connectivity---
	 1 : 2
	 2 : 1 3 4
	 3 : 2 5 6 7
	 4 : 2 17
	 5 : 3 8 9 10
	 6 : 3
	 7 : 3
	 8 : 5 11 12 13
	 9 : 5
	 10 : 5
	 11 : 8 14 15 16
	 12 : 8
	 13 : 8
	 14 : 11
	 15 : 11
	 16 : 11
	 17 : 4 18 19 20
	 18 : 17
	 19 : 17
	 20 : 17

	Assuming in current code that numbering for constraints corresponds to unified fragment.
	Frozen dihedral atom list: 
	     9     5     3     6
	---Fragment 1 Geometry and Gradient---
	 O           2.2948126778        2.4687695572       -0.0387068618
	 C           2.1197257721        0.2292588966       -0.0390281152
	 C          -0.3221953443       -1.2443514315       -0.0398293591
	 O           4.1050059069       -1.3028044403       -0.0382646659
	 C          -2.6699570768        0.4287005927       -0.0395270029
	 H          -0.2911131289       -2.4823148006       -1.6778250738
	 H          -0.2915326481       -2.4836602856        1.5971572419
	 C          -5.1135619392       -1.1072461314        0.1143836317
	 H          -2.6794340533        1.5826902016       -1.7356223476
	 H          -2.5696957671        1.7359885650        1.5382733756
	 C          -7.4752037101        0.5544051750        0.1181309586
	 H          -5.2037453394       -2.4150008661       -1.4699306328
	 H          -5.0920115024       -2.2636319131        1.8145891307
	 H          -7.5852405731        1.6874131547       -1.5897354901
	 H          -9.1804472190       -0.5804074931        0.2278749141
	 H          -7.4732705202        1.8390164337        1.7188631637
	 C           6.5232034015       -0.1570256914       -0.0376656227
	 H           6.7703606824        0.9993544211       -1.7022592327
	 H           7.8668364765       -1.6903834907       -0.0365620226
	 H           6.7689736234        1.0005525075        1.6263213853
	            -0.0000220399        0.0000037280        0.0000066491
	             0.0000033346       -0.0000151565        0.0001876428
	            -0.0000199686        0.0000226689        0.0000860732
	            -0.0000198944        0.0000073095        0.0000324203
	             0.0000226217       -0.0000372952       -0.0005269193
	             0.0000699044        0.0001314335       -0.0001262361
	            -0.0000934958       -0.0001258850       -0.0001055875
	             0.0000277302       -0.0000012551        0.0003620235
	            -0.0000293435       -0.0001864525        0.0000295666
	             0.0000541798        0.0001955084        0.0000181545
	             0.0000014130        0.0000078424        0.0000354444
	             0.0000522749        0.0000696465       -0.0000063229
	            -0.0000542600       -0.0000750200        0.0000029235
	             0.0000163361       -0.0000010609        0.0000058454
	             0.0000052318        0.0000028587        0.0000076575
	            -0.0000214370       -0.0000003606       -0.0000023776
	             0.0000102960        0.0000017982       -0.0000158040
	             0.0000002945       -0.0000048129        0.0000067064
	             0.0000003187        0.0000033398        0.0000001973
	            -0.0000034963        0.0000011647        0.0000019431

	Previous optimization step data not found.  Starting new optimization.

	---Fragment 1 Intrafragment Coordinates---
	 - Coordinate -           - BOHR/RAD -       - ANG/DEG -
	 R(1,2)           =         2.246344	       1.188714
	 R(2,3)           =         2.852106	       1.509269
	 R(2,4)           =         2.507699	       1.327017
	 R(3,5)           =         2.882896	       1.525563
	 R(3,6)           =         2.053424	       1.086625
	 R(3,7)           =         2.053424	       1.086625
	 R(4,17)          =         2.675909	       1.416030
	 R(5,8)           =         2.890333	       1.529499
	 R(5,9)           =         2.051468	       1.085590
	 R(5,10)          =         2.051465	       1.085589
	 R(8,11)          =         2.887638	       1.528072
	 R(8,12)          =         2.056309	       1.088152
	 R(8,13)          =         2.056305	       1.088150
	 R(11,14)         =         2.052468	       1.086119
	 R(11,15)         =         2.051268	       1.085484
	 R(11,16)         =         2.052455	       1.086113
	 R(17,18)         =         2.041855	       1.080503
	 R(17,19)         =         2.038759	       1.078865
	 R(17,20)         =         2.041872	       1.080512
	 B(1,2,3)         =         2.191781	     125.579791
	 B(1,2,4)         =         2.150026	     123.187433
	 B(2,3,5)         =         1.979487	     113.416276
	 B(2,3,6)         =         1.874185	     107.382889
	 B(2,3,7)         =         1.874253	     107.386811
	 B(2,4,17)        =         2.041859	     116.989918
	 B(3,2,4)         =         1.941378	     111.232775
	 B(3,5,8)         =         1.960718	     112.340883
	 B(3,5,9)         =         1.907233	     109.276430
	 B(3,5,10)        =         1.907203	     109.274682
	 B(4,17,18)       =         1.930185	     110.591426
	 B(4,17,19)       =         1.847863	     105.874760
	 B(4,17,20)       =         1.930184	     110.591387
	 B(5,3,6)         =         1.941513	     111.240475
	 B(5,3,7)         =         1.941562	     111.243334
	 B(5,8,11)        =         1.966782	     112.688287
	 B(5,8,12)        =         1.911353	     109.512452
	 B(5,8,13)        =         1.911353	     109.512435
	 B(6,3,7)         =         1.846095	     105.773475
	 B(8,5,9)         =         1.916700	     109.818839
	 B(8,5,10)        =         1.916652	     109.816074
	 B(8,11,14)       =         1.939515	     111.126002
	 B(8,11,15)       =         1.940789	     111.199019
	 B(8,11,16)       =         1.939495	     111.124858
	 B(9,5,10)        =         1.852133	     106.119421
	 B(11,8,12)       =         1.908258	     109.335123
	 B(11,8,13)       =         1.908267	     109.335618
	 B(12,8,13)       =         1.854438	     106.251490
	 B(14,11,15)      =         1.881094	     107.778761
	 B(14,11,16)      =         1.879173	     107.668674
	 B(15,11,16)      =         1.881066	     107.777137
	 B(18,17,19)      =         1.924753	     110.280212
	 B(18,17,20)      =         1.905748	     109.191331
	 B(19,17,20)      =         1.924757	     110.280438
	 D(1,2,3,5)       =        -0.000261	      -0.014960
	 D(1,2,3,6)       =         2.152022	     123.301793
	 D(1,2,3,7)       =        -2.152658	    -123.338193
	 D(1,2,4,17)      =        -0.000274	      -0.015690
	 D(2,3,5,8)       =        -3.083681	    -176.681900
	 D(2,3,5,9)       =         1.067676	      61.173305
	 D(2,3,5,10)      =        -0.951935	     -54.541855
	 D(2,4,17,18)     =        -1.056921	     -60.557133
	 D(2,4,17,19)     =         3.141321	     179.984446
	 D(2,4,17,20)     =         1.056374	      60.525776
	 D(3,2,4,17)      =         3.141506	     179.995019
	 D(3,5,8,11)      =         3.140676	     179.947498
	 D(3,5,8,12)      =        -1.014436	     -58.122916
	 D(3,5,8,13)      =         1.012593	      58.017292
	 D(4,2,3,5)       =         3.141139	     179.974021
	 D(4,2,3,6)       =        -0.989763	     -56.709227
	 D(4,2,3,7)       =         0.988743	      56.650787
	 D(5,8,11,14)     =         1.045789	      59.919288
	 D(5,8,11,15)     =         3.141299	     179.983157
	 D(5,8,11,16)     =        -1.046426	     -59.955797
	 D(6,3,5,8)       =         1.084631	      62.144778
	*D(6,3,5,9)       =        -1.047198	     -60.000018
	 D(6,3,5,10)      =        -3.066808	    -175.715177
	 D(7,3,5,8)       =        -0.968681	     -55.501343
	 D(7,3,5,9)       =        -3.100510	    -177.646138
	 D(7,3,5,10)      =         1.163065	      66.638702
	 D(9,5,8,11)      =        -1.016061	     -58.216020
	 D(9,5,8,12)      =         1.112012	      63.713566
	 D(9,5,8,13)      =         3.139041	     179.853774
	 D(10,5,8,11)     =         1.014302	      58.115204
	 D(10,5,8,12)     =        -3.140811	    -179.955210
	 D(10,5,8,13)     =        -1.113782	     -63.815002
	 D(12,8,11,14)    =        -1.084032	     -62.110447
	 D(12,8,11,15)    =         1.011478	      57.953423
	 D(12,8,11,16)    =         3.106939	     178.014469
	 D(13,8,11,14)    =        -3.107570	    -178.050648
	 D(13,8,11,15)    =        -1.012060	     -57.986779
	 D(13,8,11,16)    =         1.083400	      62.074268

	Current energy   :      -383.9415555977

	Generating empirical Hessian (Schlegel '84) for each fragment.
	Taking RFO optimization step.
	Going to follow RFO solution 1.
	Using RFO vector 1.
	Norm of target step-size    0.07074
	Projected energy change by RFO approximation:         0.0001354601

	Back-transformation to cartesian coordinates...
	Successfully converged to displaced geometry.

	Back-transformation to cartesian coordinates to adjust frozen coordinates...
	Successfully converged to displaced geometry.

	--- Internal Coordinate Step in ANG or DEG, aJ/ANG or AJ/DEG ---
	 ---------------------------------------------------------------------------
	   Coordinate                Previous        Force       Change         New 
	   ----------                --------       ------       ------       ------
	    1 R(1,2)          =      1.188714    -0.000016    -0.000001     1.188713
	    2 R(2,3)          =      1.509269     0.000231     0.000047     1.509317
	    3 R(2,4)          =      1.327017     0.000126     0.000013     1.327031
	    4 R(3,5)          =      1.525563     0.000624     0.000134     1.525697
	    5 R(3,6)          =      1.086625    -0.000186    -0.000034     1.086591
	    6 R(3,7)          =      1.086625     0.000079     0.000014     1.086640
	    7 R(4,17)         =      1.416030    -0.000060    -0.000009     1.416021
	    8 R(5,8)          =      1.529499     0.000024     0.000005     1.529504
	    9 R(5,9)          =      1.085590     0.001064     0.000194     1.085784
	   10 R(5,10)         =      1.085589    -0.001163    -0.000211     1.085377
	   11 R(8,11)         =      1.528072    -0.000034    -0.000007     1.528065
	   12 R(8,12)         =      1.088152     0.000344     0.000063     1.088215
	   13 R(8,13)         =      1.088150    -0.000363    -0.000067     1.088083
	   14 R(11,14)        =      1.086119     0.000052     0.000009     1.086129
	   15 R(11,15)        =      1.085484     0.000045     0.000008     1.085492
	   16 R(11,16)        =      1.086113     0.000017     0.000003     1.086116
	   17 R(17,18)        =      1.080503     0.000067     0.000012     1.080515
	   18 R(17,19)        =      1.078865     0.000019     0.000003     1.078868
	   19 R(17,20)        =      1.080512    -0.000015    -0.000003     1.080510
	   20 B(1,2,3)        =    125.579791     0.000003     0.007688   125.587479
	   21 B(1,2,4)        =    123.187433    -0.000001    -0.003771   123.183662
	   22 B(2,3,5)        =    113.416276     0.000003    -0.047664   113.368613
	   23 B(2,3,6)        =    107.382889    -0.000008    -0.224044   107.158844
	   24 B(2,3,7)        =    107.386811     0.000001     0.027345   107.414155
	   25 B(2,4,17)       =    116.989918     0.000000     0.000663   116.990581
	   26 B(3,2,4)        =    111.232775    -0.000001    -0.004059   111.228716
	   27 B(3,5,8)        =    112.340883     0.000001    -0.049973   112.290910
	   28 B(3,5,9)        =    109.276430     0.000002    -0.057472   109.218958
	   29 B(3,5,10)       =    109.274682     0.000000     0.131223   109.405905
	   30 B(4,17,18)      =    110.591426    -0.000000    -0.000698   110.590728
	   31 B(4,17,19)      =    105.874760    -0.000000    -0.001871   105.872889
	   32 B(4,17,20)      =    110.591387     0.000001     0.002538   110.593924
	   33 B(5,3,6)        =    111.240475     0.000001    -0.021517   111.218958
	   34 B(5,3,7)        =    111.243334     0.000000     0.105351   111.348685
	   35 B(5,8,11)       =    112.688287     0.000001     0.001799   112.690085
	   36 B(5,8,12)       =    109.512452     0.000006     0.052500   109.564952
	   37 B(5,8,13)       =    109.512435    -0.000006    -0.054670   109.457765
	   38 B(6,3,7)        =    105.773475     0.000002     0.166137   105.939612
	   39 B(8,5,9)        =    109.818839    -0.000011    -0.269588   109.549251
	   40 B(8,5,10)       =    109.816074     0.000005     0.087508   109.903583
	   41 B(8,11,14)      =    111.126002     0.000002     0.007372   111.133374
	   42 B(8,11,15)      =    111.199019     0.000000     0.001135   111.200154
	   43 B(8,11,16)      =    111.124858    -0.000002    -0.010649   111.114209
	   44 B(9,5,10)       =    106.119421     0.000002     0.170783   106.290205
	   45 B(11,8,12)      =    109.335123    -0.000004    -0.004866   109.330257
	   46 B(11,8,13)      =    109.335618     0.000003     0.004089   109.339708
	   47 B(12,8,13)      =    106.251490     0.000000     0.001093   106.252583
	   48 B(14,11,15)     =    107.778761    -0.000001    -0.004506   107.774255
	   49 B(14,11,16)     =    107.668674     0.000000     0.001059   107.669733
	   50 B(15,11,16)     =    107.777137     0.000001     0.005715   107.782852
	   51 B(18,17,19)     =    110.280212     0.000000     0.000113   110.280325
	   52 B(18,17,20)     =    109.191331    -0.000000     0.000173   109.191504
	   53 B(19,17,20)     =    110.280438    -0.000000    -0.000294   110.280144
	   54 D(1,2,3,5)      =     -0.014960     0.000000     0.169919     0.154959
	   55 D(1,2,3,6)      =    123.301793    -0.000000    -0.050068   123.251725
	   56 D(1,2,3,7)      =   -123.338193    -0.000000     0.047358  -123.290836
	   57 D(1,2,4,17)     =     -0.015690     0.000000     0.093025     0.077336
	   58 D(2,3,5,8)      =   -176.681900    -0.000004    -0.757747  -177.439647
	   59 D(2,3,5,9)      =     61.173305    -0.000002    -0.341626    60.831679
	   60 D(2,3,5,10)     =    -54.541855    -0.000003    -0.587253   -55.129108
	   61 D(2,4,17,18)    =    -60.557133    -0.000000     0.025638   -60.531494
	   62 D(2,4,17,19)    =    179.984446     0.000000     0.026988   180.011433
	   63 D(2,4,17,20)    =     60.525776     0.000000     0.027080    60.552856
	   64 D(3,2,4,17)     =    179.995019    -0.000000    -0.048073   179.946946
	   65 D(3,5,8,11)     =    179.947498     0.000001     1.375586   181.323084
	   66 D(3,5,8,12)     =    -58.122916     0.000001     1.408068   -56.714847
	   67 D(3,5,8,13)     =     58.017292     0.000001     1.408115    59.425407
	   68 D(4,2,3,5)      =    179.974021     0.000001     0.315126   180.289147
	   69 D(4,2,3,6)      =    -56.709227     0.000000     0.095140   -56.614087
	   70 D(4,2,3,7)      =     56.650787     0.000000     0.192565    56.843352
	   71 D(5,8,11,14)    =     59.919288     0.000001     0.155888    60.075176
	   72 D(5,8,11,15)    =    179.983157     0.000001     0.155901   180.139058
	   73 D(5,8,11,16)    =    -59.955797     0.000001     0.156739   -59.799058
	   74 D(6,3,5,8)      =     62.144778    -0.000003    -0.416122    61.728656
	   75 *D(6,3,5,9)     =    -60.000018     0.000000     0.000000   -60.000018
	   76 D(6,3,5,10)     =   -175.715177    -0.000001    -0.245627  -175.960804
	   77 D(7,3,5,8)      =    -55.501343    -0.000004    -0.678108   -56.179451
	   78 D(7,3,5,9)      =   -177.646138    -0.000001    -0.261987  -177.908125
	   79 D(7,3,5,10)     =     66.638702    -0.000002    -0.507614    66.131089
	   80 D(9,5,8,11)     =    -58.216020     0.000000     1.079132   -57.136888
	   81 D(9,5,8,12)     =     63.713566     0.000000     1.111614    64.825180
	   82 D(9,5,8,13)     =    179.853774    -0.000000     1.111661   180.965435
	   83 D(10,5,8,11)    =     58.115204     0.000000     1.179942    59.295146
	   84 D(10,5,8,12)    =   -179.955210    -0.000000     1.212424  -178.742786
	   85 D(10,5,8,13)    =    -63.815002    -0.000000     1.212471   -62.602531
	   86 D(12,8,11,14)   =    -62.110447    -0.000000     0.091083   -62.019364
	   87 D(12,8,11,15)   =     57.953423    -0.000000     0.091096    58.044518
	   88 D(12,8,11,16)   =    178.014469    -0.000000     0.091933   178.106402
	   89 D(13,8,11,14)   =   -178.050648    -0.000000     0.090208  -177.960440
	   90 D(13,8,11,15)   =    -57.986779    -0.000000     0.090221   -57.896558
	   91 D(13,8,11,16)   =     62.074268    -0.000000     0.091058    62.165326
	 ---------------------------------------------------------------------------

  ==> Convergence Check <==

  Measures of convergence in internal coordinates in au.
  Criteria marked as inactive (o), active & met (*), and active & unmet ( ).
  --------------------------------------------------------------------------------------------- ~
   Step     Total Energy     Delta E     MAX Force     RMS Force      MAX Disp      RMS Disp    ~
  --------------------------------------------------------------------------------------------- ~
    Convergence Criteria    1.00e-06 *    3.00e-04 *             o    1.20e-03 *             o  ~
  --------------------------------------------------------------------------------------------- ~
      1    -383.94155560   -3.84e+02      2.46e-04 *    5.75e-05 o    2.46e-02      7.42e-03 o  ~
  ---------------------------------------------------------------------------------------------

	Writing optimization data to binary file.
	Structure for next step:
	Cartesian Geometry (in Angstrom)
	    O     1.2147537637   1.3062402960  -0.0063692749
	    C     1.1216917353   0.1211919965  -0.0126638333
	    C    -0.1706973145  -0.6583928945  -0.0088584476
	    O     2.1719946372  -0.6897749722  -0.0270585053
	    C    -1.4122584136   0.2282805901   0.0005260250
	    H    -0.1567732122  -1.3063697017  -0.8809896752
	    H    -0.1496358571  -1.3187123614   0.8538818844
	    C    -2.7057024924  -0.5852959802   0.0674384650
	    H    -1.4172333716   0.8457740017  -0.8925604605
	    H    -1.3613241691   0.9112165516   0.8425756251
	    C    -3.9561477986   0.2926879618   0.0447987974
	    H    -2.7406245044  -1.2834618504  -0.7665620125
	    H    -2.7067688732  -1.1906430155   0.9715841208
	    H    -4.0026926183   0.8844820533  -0.8647553276
	    H    -4.8586956215  -0.3082372387   0.0956924104
	    H    -3.9671507275   0.9796486560   0.8859953603
	    C     3.4517826769  -0.0837886418  -0.0332940060
	    H     3.5750639453   0.5347947532  -0.9106023594
	    H     4.1625059437  -0.8953854202  -0.0451054971
	    H     3.5897548253   0.5220197461   0.8507089424
			--------------------------
			 OPTKING Finished Execution 
			--------------------------

    Structure for next step:
    Molecular point group: c1
    Full point group: C1

    Geometry (in Angstrom), charge = 0, multiplicity = 1:

    O            1.214730541532     1.306249516382    -0.008967803363
    C            1.121668520221     0.121201307387    -0.015262361351
    C           -0.170720430878    -0.658383524112    -0.011456975925
    O            2.171971341933    -0.689765599468    -0.029657032221
    C           -1.412281435141     0.228289892752    -0.002072504012
    H           -0.156796329654    -1.306360281797    -0.883588136927
    H           -0.149658975076    -1.318702940637     0.851283290260
    C           -2.705725415191    -0.585286615356     0.064839930819
    H           -1.417256392800     0.845783257240    -0.895158921316
    H           -1.361347194505     0.911225802171     0.839977031740
    C           -3.956170625843     0.292697259562     0.042200264997
    H           -2.740647424505    -1.283452432299    -0.769160482958
    H           -2.706791795912    -1.190633604481     0.968985517574
    H           -4.002715441972     0.884491305877    -0.867353790500
    H           -4.858718379814    -0.308227895069     0.093093874071
    H           -3.967173553930     0.979657901323     0.883396763692
    C            3.451759283921    -0.083779315329    -0.035892532428
    H            3.575040542943     0.534804032482    -0.913200818796
    H            4.162482496476    -0.895376031672    -0.047704022682
    H            3.589731421839     0.522029026311     0.848110348420

gradient() will perform analytic gradient computation.

*** tstart() called on cx1-1-2-3.cx1.hpc.ic.ac.uk
*** at Fri Sep  2 14:04:23 2016


         ---------------------------------------------------------
                                   SCF
            by Justin Turney, Rob Parrish, and Andy Simmonett
                              RHF Reference
                        4 Threads,   2000 MiB Core
         ---------------------------------------------------------

  ==> Geometry <==

    Molecular point group: c1
    Full point group: C1

    Geometry (in Angstrom), charge = 0, multiplicity = 1:

       Center              X                  Y                   Z               Mass       
    ------------   -----------------  -----------------  -----------------  -----------------
           O          1.214730541532     1.306249516382    -0.008967803363    15.994914619560
           C          1.121668520221     0.121201307387    -0.015262361351    12.000000000000
           C         -0.170720430878    -0.658383524112    -0.011456975925    12.000000000000
           O          2.171971341933    -0.689765599468    -0.029657032221    15.994914619560
           C         -1.412281435141     0.228289892752    -0.002072504012    12.000000000000
           H         -0.156796329654    -1.306360281797    -0.883588136927     1.007825032070
           H         -0.149658975076    -1.318702940637     0.851283290260     1.007825032070
           C         -2.705725415191    -0.585286615356     0.064839930819    12.000000000000
           H         -1.417256392800     0.845783257240    -0.895158921316     1.007825032070
           H         -1.361347194505     0.911225802171     0.839977031740     1.007825032070
           C         -3.956170625843     0.292697259562     0.042200264997    12.000000000000
           H         -2.740647424505    -1.283452432299    -0.769160482958     1.007825032070
           H         -2.706791795912    -1.190633604481     0.968985517574     1.007825032070
           H         -4.002715441972     0.884491305877    -0.867353790500     1.007825032070
           H         -4.858718379814    -0.308227895069     0.093093874071     1.007825032070
           H         -3.967173553930     0.979657901323     0.883396763692     1.007825032070
           C          3.451759283921    -0.083779315329    -0.035892532428    12.000000000000
           H          3.575040542943     0.534804032482    -0.913200818796     1.007825032070
           H          4.162482496476    -0.895376031672    -0.047704022682     1.007825032070
           H          3.589731421839     0.522029026311     0.848110348420     1.007825032070

  Running in c1 symmetry.

  Rotational constants: A =      0.25866  B =      0.02468  C =      0.02301 [cm^-1]
  Rotational constants: A =   7754.43490  B =    740.03419  C =    689.77064 [MHz]
  Nuclear repulsion =  381.092019016367374

  Charge       = 0
  Multiplicity = 1
  Electrons    = 64
  Nalpha       = 32
  Nbeta        = 32

  ==> Algorithm <==

  SCF Algorithm Type is DF.
  DIIS enabled.
  MOM disabled.
  Fractional occupation disabled.
  Guess Type is READ.
  Energy threshold   = 1.00e-08
  Density threshold  = 1.00e-08
  Integral threshold = 0.00e+00

  ==> Primary Basis <==

  Basis Set: 6-31G*
    Number of shells: 72
    Number of basis function: 144
    Number of Cartesian functions: 144
    Spherical Harmonics?: false
    Max angular momentum: 2

  ==> Pre-Iterations <==

   -------------------------------------------------------
    Irrep   Nso     Nmo     Nalpha   Nbeta   Ndocc  Nsocc
   -------------------------------------------------------
     A        144     144       0       0       0       0
   -------------------------------------------------------
    Total     144     144      32      32      32       0
   -------------------------------------------------------

 OEINTS: Overlap, kinetic, potential, dipole, and quadrupole integrals
         stored in file 35.

  ==> Integral Setup <==

  ==> DFJK: Density-Fitted J/K Matrices <==

    J tasked:                  Yes
    K tasked:                  Yes
    wK tasked:                  No
    OpenMP threads:              4
    Integrals threads:           4
    Memory (MB):              1430
    Algorithm:                Core
    Integral Cache:           NONE
    Schwarz Cutoff:          1E-12
    Fitting Condition:       1E-12

   => Auxiliary Basis Set <=

  Basis Set: 
    Number of shells: 300
    Number of basis function: 948
    Number of Cartesian functions: 948
    Spherical Harmonics?: false
    Max angular momentum: 3

  Minimum eigenvalue in the overlap matrix is 2.5637652793E-03.
  Using Symmetric Orthogonalization.
  SCF Guess: Reading in previously saved MOs, projecting if necessary.

  Using orbitals from previous SCF, no projection.
  Recomputing DOCC and SOCC from number of alpha and beta electrons from previous calculation.
              A 
    DOCC [    32 ]

  ==> Iterations <==

                           Total Energy        Delta E     RMS |[F,P]|

   @DF-RHF iter   0:  -383.94084000556853   -3.83941e+02   2.26375e-04 
   @DF-RHF iter   1:  -383.94152461367952   -6.84608e-04   3.77297e-05 
   @DF-RHF iter   2:  -383.94155315294046   -2.85393e-05   1.26914e-05 DIIS
   @DF-RHF iter   3:  -383.94155740111086   -4.24817e-06   2.53042e-06 DIIS
   @DF-RHF iter   4:  -383.94155756638571   -1.65275e-07   1.28956e-06 DIIS
   @DF-RHF iter   5:  -383.94155762769020   -6.13045e-08   6.59196e-07 DIIS
   @DF-RHF iter   6:  -383.94155764383930   -1.61491e-08   2.59505e-07 DIIS
   @DF-RHF iter   7:  -383.94155764679573   -2.95643e-09   7.48539e-08 DIIS
   @DF-RHF iter   8:  -383.94155764697558   -1.79853e-10   2.27952e-08 DIIS
   @DF-RHF iter   9:  -383.94155764699309   -1.75078e-11   7.27920e-09 DIIS

  ==> Post-Iterations <==

    Orbital Energies (a.u.)
    -----------------------

    Doubly Occupied:                                                      

       1A    -20.603747     2A    -20.545523     3A    -11.372354  
       4A    -11.280939     5A    -11.235772     6A    -11.220282  
       7A    -11.219370     8A    -11.210655     9A     -1.469451  
      10A     -1.362886    11A     -1.088793    12A     -1.024455  
      13A     -0.969115    14A     -0.885920    15A     -0.803951  
      16A     -0.767565    17A     -0.696684    18A     -0.683875  
      19A     -0.671999    20A     -0.646223    21A     -0.597440  
      22A     -0.592226    23A     -0.578878    24A     -0.539345  
      25A     -0.537460    26A     -0.522777    27A     -0.500895  
      28A     -0.478210    29A     -0.473282    30A     -0.470766  
      31A     -0.455817    32A     -0.436968  

    Virtual:                                                              

      33A      0.199497    34A      0.226958    35A      0.255271  
      36A      0.267365    37A      0.281392    38A      0.294429  
      39A      0.312416    40A      0.317946    41A      0.324264  
      42A      0.325368    43A      0.331454    44A      0.342657  
      45A      0.348551    46A      0.372834    47A      0.389950  
      48A      0.427127    49A      0.435459    50A      0.488895  
      51A      0.532403    52A      0.578035    53A      0.705859  
      54A      0.725514    55A      0.734382    56A      0.748636  
      57A      0.756941    58A      0.761922    59A      0.791168  
      60A      0.817117    61A      0.834507    62A      0.849878  
      63A      0.894957    64A      0.951173    65A      0.953608  
      66A      0.970262    67A      1.000909    68A      1.017145  
      69A      1.093021    70A      1.099779    71A      1.112824  
      72A      1.120571    73A      1.127711    74A      1.131586  
      75A      1.159711    76A      1.166517    77A      1.188671  
      78A      1.192651    79A      1.206315    80A      1.209978  
      81A      1.221345    82A      1.226788    83A      1.242883  
      84A      1.265061    85A      1.271415    86A      1.306525  
      87A      1.317529    88A      1.380980    89A      1.415590  
      90A      1.548209    91A      1.590322    92A      1.625610  
      93A      1.664362    94A      1.686952    95A      1.741686  
      96A      1.770635    97A      1.800409    98A      1.871277  
      99A      1.895571   100A      1.934104   101A      2.005788  
     102A      2.017117   103A      2.119413   104A      2.129216  
     105A      2.139792   106A      2.202409   107A      2.205293  
     108A      2.226130   109A      2.266501   110A      2.296309  
     111A      2.301324   112A      2.332988   113A      2.384472  
     114A      2.386169   115A      2.401381   116A      2.446858  
     117A      2.474845   118A      2.533636   119A      2.569619  
     120A      2.609959   121A      2.661097   122A      2.669094  
     123A      2.692372   124A      2.729806   125A      2.758781  
     126A      2.824135   127A      2.837166   128A      2.918460  
     129A      2.946631   130A      3.031594   131A      3.067281  
     132A      3.108622   133A      3.168990   134A      3.349444  
     135A      3.453044   136A      3.582294   137A      4.414552  
     138A      4.549856   139A      4.618291   140A      4.659511  
     141A      4.720854   142A      4.799374   143A      4.879412  
     144A      5.015782  

    Final Occupation by Irrep:
              A 
    DOCC [    32 ]

  Energy converged.

  @DF-RHF Final Energy:  -383.94155764699309

   => Energetics <=

    Nuclear Repulsion Energy =            381.0920190163673738
    One-Electron Energy =               -1278.1799022398570287
    Two-Electron Energy =                 513.1463255764963378
    DFT Exchange-Correlation Energy =       0.0000000000000000
    Empirical Dispersion Energy =           0.0000000000000000
    PCM Polarization Energy =               0.0000000000000000
    EFP Energy =                            0.0000000000000000
    Total Energy =                       -383.9415576469932603

    Alert: EFP and PCM quantities not currently incorporated into SCF psivars.

Properties will be evaluated at   0.000000,   0.000000,   0.000000 Bohr
  ==> Properties <==


Properties computed using the SCF density matrix

  Nuclear Dipole Moment: (a.u.)
     X:    -9.3902      Y:    -1.5202      Z:     0.1017

  Electronic Dipole Moment: (a.u.)
     X:     9.5315      Y:     0.8234      Z:    -0.1060

  Dipole Moment: (a.u.)
     X:     0.1414      Y:    -0.6968      Z:    -0.0043     Total:     0.7110

  Dipole Moment: (Debye)
     X:     0.3594      Y:    -1.7710      Z:    -0.0110     Total:     1.8072


  Saving occupied orbitals to File 180.

*** tstop() called on cx1-1-2-3.cx1.hpc.ic.ac.uk at Fri Sep  2 14:04:29 2016
Module time:
	user time   =      17.34 seconds =       0.29 minutes
	system time =       0.24 seconds =       0.00 minutes
	total time  =          6 seconds =       0.10 minutes
Total time:
	user time   =      64.36 seconds =       1.07 minutes
	system time =       0.84 seconds =       0.01 minutes
	total time  =         21 seconds =       0.35 minutes

*** tstart() called on cx1-1-2-3.cx1.hpc.ic.ac.uk
*** at Fri Sep  2 14:04:29 2016


         ------------------------------------------------------------
                                   SCF GRAD                          
                          Rob Parrish, Justin Turney,                
                       Andy Simmonett, and Alex Sokolov              
         ------------------------------------------------------------

  ==> Geometry <==

    Molecular point group: c1
    Full point group: C1

    Geometry (in Angstrom), charge = 0, multiplicity = 1:

       Center              X                  Y                   Z               Mass       
    ------------   -----------------  -----------------  -----------------  -----------------
           O          1.214730541532     1.306249516382    -0.008967803363    15.994914619560
           C          1.121668520221     0.121201307387    -0.015262361351    12.000000000000
           C         -0.170720430878    -0.658383524112    -0.011456975925    12.000000000000
           O          2.171971341933    -0.689765599468    -0.029657032221    15.994914619560
           C         -1.412281435141     0.228289892752    -0.002072504012    12.000000000000
           H         -0.156796329654    -1.306360281797    -0.883588136927     1.007825032070
           H         -0.149658975076    -1.318702940637     0.851283290260     1.007825032070
           C         -2.705725415191    -0.585286615356     0.064839930819    12.000000000000
           H         -1.417256392800     0.845783257240    -0.895158921316     1.007825032070
           H         -1.361347194505     0.911225802171     0.839977031740     1.007825032070
           C         -3.956170625843     0.292697259562     0.042200264997    12.000000000000
           H         -2.740647424505    -1.283452432299    -0.769160482958     1.007825032070
           H         -2.706791795912    -1.190633604481     0.968985517574     1.007825032070
           H         -4.002715441972     0.884491305877    -0.867353790500     1.007825032070
           H         -4.858718379814    -0.308227895069     0.093093874071     1.007825032070
           H         -3.967173553930     0.979657901323     0.883396763692     1.007825032070
           C          3.451759283921    -0.083779315329    -0.035892532428    12.000000000000
           H          3.575040542943     0.534804032482    -0.913200818796     1.007825032070
           H          4.162482496476    -0.895376031672    -0.047704022682     1.007825032070
           H          3.589731421839     0.522029026311     0.848110348420     1.007825032070

  Nuclear repulsion =  381.092019016367374

  ==> Basis Set <==

  Basis Set: 6-31G*
    Number of shells: 72
    Number of basis function: 144
    Number of Cartesian functions: 144
    Spherical Harmonics?: false
    Max angular momentum: 2

  ==> DFJKGrad: Density-Fitted SCF Gradients <==

    Gradient:                    1
    J tasked:                  Yes
    K tasked:                  Yes
    wK tasked:                  No
    OpenMP threads:              4
    Integrals threads:           4
    Memory (MB):              1430
    Schwarz Cutoff:          0E+00
    Fitting Condition:       1E-12

   => Auxiliary Basis Set <=

  Basis Set: 
    Number of shells: 300
    Number of basis function: 948
    Number of Cartesian functions: 948
    Spherical Harmonics?: false
    Max angular momentum: 3


  -Total Gradient:
     Atom            X                  Y                   Z
    ------   -----------------  -----------------  -----------------
       1       -0.000038230328    -0.000014967554    -0.000105063322
       2       -0.000031457870    -0.000114768712     0.000212711070
       3       -0.000416510971    -0.000562796584     0.000129479566
       4       -0.000037721121     0.000016936047    -0.000091129586
       5        0.000384623025     0.000556035597     0.000577335635
       6        0.000366063663     0.000398679139    -0.000323260465
       7        0.000028586317    -0.000013718266     0.000046658300
       8        0.000085769674     0.000075095363    -0.000159866658
       9       -0.000414236878    -0.000429149437    -0.000294283065
      10        0.000042720175     0.000065502500     0.000069783337
      11       -0.000001971427     0.000010452503    -0.000078028943
      12       -0.000017028374    -0.000075958136     0.000019114439
      13        0.000041975075     0.000096031737     0.000008686973
      14       -0.000013033821     0.000010593025    -0.000000030226
      15        0.000000985263    -0.000004646852    -0.000013790892
      16        0.000017992418    -0.000018842462    -0.000003239746
      17        0.000005008674     0.000007354688     0.000016658591
      18       -0.000000103502     0.000001595171    -0.000004606808
      19       -0.000003240873    -0.000000783357    -0.000003988782
      20       -0.000000189125    -0.000002644413    -0.000003139420


*** tstop() called on cx1-1-2-3.cx1.hpc.ic.ac.uk at Fri Sep  2 14:04:35 2016
Module time:
	user time   =      25.35 seconds =       0.42 minutes
	system time =       0.25 seconds =       0.00 minutes
	total time  =          6 seconds =       0.10 minutes
Total time:
	user time   =      89.73 seconds =       1.50 minutes
	system time =       1.10 seconds =       0.02 minutes
	total time  =         27 seconds =       0.45 minutes
CURRENT ENERGY: -383.9415576470

			-----------------------------------------
			 OPTKING 2.0: for geometry optimizations 
			  - R.A. King,  Bethel University        
			-----------------------------------------

	Previous internal coordinate definitions found.
	---Fragment 1 Geometry and Gradient---
	 O           2.2955080487        2.4684538472       -0.0169466924
	 C           2.1196463151        0.2290372779       -0.0288416831
	 C          -0.3226148596       -1.2441645510       -0.0216505468
	 O           4.1044310047       -1.3034680789       -0.0560436688
	 C          -2.6688251350        0.4314053762       -0.0039164650
	 H          -0.2963021217       -2.4686631635       -1.6697395931
	 H          -0.2828144762       -2.4919874084        1.6086922801
	 C          -5.1130800255       -1.1060314123        0.1225297117
	 H          -2.6782264425        1.5982987240       -1.6916052067
	 H          -2.5725733694        1.7219672113        1.5873265479
	 C          -7.4760790178        0.5531176604        0.0797469436
	 H          -5.1790730591       -2.4253736016       -1.4535026650
	 H          -5.1150951930       -2.2499714371        1.8311172549
	 H          -7.5640359732        1.6714463350       -1.6390611244
	 H          -9.1816470947       -0.5824663082        0.1759219266
	 H          -7.4968715386        1.8512851374        1.6693779501
	 C           6.5228797233       -0.1583199616       -0.0678270565
	 H           6.7558475401        1.0106331562       -1.7256994519
	 H           7.8659519513       -1.6920154858       -0.0901475383
	 H           6.7836092779        0.9864918931        1.6026962890
	            -0.0000382303       -0.0000149676       -0.0001050633
	            -0.0000314579       -0.0001147687        0.0002127111
	            -0.0004165110       -0.0005627966        0.0001294796
	            -0.0000377211        0.0000169360       -0.0000911296
	             0.0003846230        0.0005560356        0.0005773356
	             0.0003660637        0.0003986791       -0.0003232605
	             0.0000285863       -0.0000137183        0.0000466583
	             0.0000857697        0.0000750954       -0.0001598667
	            -0.0004142369       -0.0004291494       -0.0002942831
	             0.0000427202        0.0000655025        0.0000697833
	            -0.0000019714        0.0000104525       -0.0000780289
	            -0.0000170284       -0.0000759581        0.0000191144
	             0.0000419751        0.0000960317        0.0000086870
	            -0.0000130338        0.0000105930       -0.0000000302
	             0.0000009853       -0.0000046469       -0.0000137909
	             0.0000179924       -0.0000188425       -0.0000032397
	             0.0000050087        0.0000073547        0.0000166586
	            -0.0000001035        0.0000015952       -0.0000046068
	            -0.0000032409       -0.0000007834       -0.0000039888
	            -0.0000001891       -0.0000026444       -0.0000031394

	---Fragment 1 Intrafragment Coordinates---
	 - Coordinate -           - BOHR/RAD -       - ANG/DEG -
	 R(1,2)           =         2.246343	       1.188713
	 R(2,3)           =         2.852195	       1.509317
	 R(2,4)           =         2.507725	       1.327031
	 R(3,5)           =         2.883150	       1.525697
	 R(3,6)           =         2.053360	       1.086591
	 R(3,7)           =         2.053452	       1.086640
	 R(4,17)          =         2.675892	       1.416021
	 R(5,8)           =         2.890343	       1.529504
	 R(5,9)           =         2.051834	       1.085784
	 R(5,10)          =         2.051065	       1.085377
	 R(8,11)          =         2.887624	       1.528065
	 R(8,12)          =         2.056428	       1.088215
	 R(8,13)          =         2.056180	       1.088083
	 R(11,14)         =         2.052485	       1.086129
	 R(11,15)         =         2.051283	       1.085492
	 R(11,16)         =         2.052461	       1.086116
	 R(17,18)         =         2.041878	       1.080515
	 R(17,19)         =         2.038765	       1.078868
	 R(17,20)         =         2.041867	       1.080510
	 B(1,2,3)         =         2.191915	     125.587479
	 B(1,2,4)         =         2.149960	     123.183662
	 B(2,3,5)         =         1.978656	     113.368613
	 B(2,3,6)         =         1.870275	     107.158844
	 B(2,3,7)         =         1.874731	     107.414155
	 B(2,4,17)        =         2.041871	     116.990581
	 B(3,2,4)         =         1.941307	     111.228716
	 B(3,5,8)         =         1.959846	     112.290910
	 B(3,5,9)         =         1.906230	     109.218958
	 B(3,5,10)        =         1.909493	     109.405905
	 B(4,17,18)       =         1.930172	     110.590728
	 B(4,17,19)       =         1.847830	     105.872889
	 B(4,17,20)       =         1.930228	     110.593924
	 B(5,3,6)         =         1.941137	     111.218958
	 B(5,3,7)         =         1.943401	     111.348685
	 B(5,8,11)        =         1.966813	     112.690085
	 B(5,8,12)        =         1.912269	     109.564952
	 B(5,8,13)        =         1.910398	     109.457765
	 B(6,3,7)         =         1.848995	     105.939612
	 B(8,5,9)         =         1.911995	     109.549251
	 B(8,5,10)        =         1.918179	     109.903583
	 B(8,11,14)       =         1.939643	     111.133374
	 B(8,11,15)       =         1.940809	     111.200154
	 B(8,11,16)       =         1.939309	     111.114209
	 B(9,5,10)        =         1.855114	     106.290205
	 B(11,8,12)       =         1.908173	     109.330257
	 B(11,8,13)       =         1.908338	     109.339708
	 B(12,8,13)       =         1.854457	     106.252583
	 B(14,11,15)      =         1.881016	     107.774255
	 B(14,11,16)      =         1.879191	     107.669733
	 B(15,11,16)      =         1.881166	     107.782852
	 B(18,17,19)      =         1.924755	     110.280325
	 B(18,17,20)      =         1.905751	     109.191504
	 B(19,17,20)      =         1.924752	     110.280144
	 D(1,2,3,5)       =         0.002705	       0.154959
	 D(1,2,3,6)       =         2.151148	     123.251725
	 D(1,2,3,7)       =        -2.151831	    -123.290836
	 D(1,2,4,17)      =         0.001350	       0.077336
	 D(2,3,5,8)       =        -3.096906	    -177.439647
	 D(2,3,5,9)       =         1.061713	      60.831679
	 D(2,3,5,10)      =        -0.962184	     -55.129108
	 D(2,4,17,18)     =        -1.056474	     -60.531494
	 D(2,4,17,19)     =        -3.141393	    -179.988567
	 D(2,4,17,20)     =         1.056847	      60.552856
	 D(3,2,4,17)      =         3.140667	     179.946946
	 D(3,5,8,11)      =        -3.118500	    -178.676916
	 D(3,5,8,12)      =        -0.989861	     -56.714847
	 D(3,5,8,13)      =         1.037169	      59.425407
	 D(4,2,3,5)       =        -3.136546	    -179.710853
	 D(4,2,3,6)       =        -0.988102	     -56.614087
	 D(4,2,3,7)       =         0.992104	      56.843352
	 D(5,8,11,14)     =         1.048510	      60.075176
	 D(5,8,11,15)     =        -3.139166	    -179.860942
	 D(5,8,11,16)     =        -1.043690	     -59.799058
	 D(6,3,5,8)       =         1.077368	      61.728656
	*D(6,3,5,9)       =        -1.047198	     -60.000018
	 D(6,3,5,10)      =        -3.071095	    -175.960804
	 D(7,3,5,8)       =        -0.980516	     -56.179451
	 D(7,3,5,9)       =        -3.105083	    -177.908125
	 D(7,3,5,10)      =         1.154205	      66.131089
	 D(9,5,8,11)      =        -0.997227	     -57.136888
	 D(9,5,8,12)      =         1.131413	      64.825180
	 D(9,5,8,13)      =        -3.124743	    -179.034565
	 D(10,5,8,11)     =         1.034896	      59.295146
	 D(10,5,8,12)     =        -3.119650	    -178.742786
	 D(10,5,8,13)     =        -1.092620	     -62.602531
	 D(12,8,11,14)    =        -1.082442	     -62.019364
	 D(12,8,11,15)    =         1.013068	      58.044518
	 D(12,8,11,16)    =         3.108543	     178.106402
	 D(13,8,11,14)    =        -3.105996	    -177.960440
	 D(13,8,11,15)    =        -1.010486	     -57.896558
	 D(13,8,11,16)    =         1.084990	      62.165326

	Current energy   :      -383.9415576470

	Energy change for the previous step:
		Projected    :         0.0001354601
		Actual       :        -0.0000020493

	Performing BFGS update.
	Previous computed or guess Hessian on step 1.
	Steps to be used in Hessian update: 1
	Taking RFO optimization step.
	Going to follow RFO solution 1.
	Using RFO vector 1.
	Norm of target step-size    0.05910
	Projected energy change by RFO approximation:        -0.0000146178

	Back-transformation to cartesian coordinates...
	Successfully converged to displaced geometry.

	Back-transformation to cartesian coordinates to adjust frozen coordinates...
	Successfully converged to displaced geometry.

	--- Internal Coordinate Step in ANG or DEG, aJ/ANG or AJ/DEG ---
	 ---------------------------------------------------------------------------
	   Coordinate                Previous        Force       Change         New 
	   ----------                --------       ------       ------       ------
	    1 R(1,2)          =      1.188713     0.000152     0.000005     1.188718
	    2 R(2,3)          =      1.509317     0.001204     0.000151     1.509467
	    3 R(2,4)          =      1.327031     0.000342     0.000024     1.327055
	    4 R(3,5)          =      1.525697    -0.000515    -0.000032     1.525666
	    5 R(3,6)          =      1.086591    -0.000218    -0.000030     1.086561
	    6 R(3,7)          =      1.086640    -0.000378    -0.000036     1.086604
	    7 R(4,17)         =      1.416021    -0.000030    -0.000005     1.416016
	    8 R(5,8)          =      1.529504     0.001287     0.000161     1.529664
	    9 R(5,9)          =      1.085784     0.000001     0.000045     1.085829
	   10 R(5,10)         =      1.085377    -0.000802    -0.000132     1.085245
	   11 R(8,11)         =      1.528065     0.000027     0.000002     1.528066
	   12 R(8,12)         =      1.088215    -0.000285    -0.000015     1.088200
	   13 R(8,13)         =      1.088083     0.000381     0.000024     1.088108
	   14 R(11,14)        =      1.086129    -0.000052    -0.000003     1.086125
	   15 R(11,15)        =      1.085492    -0.000009     0.000001     1.085493
	   16 R(11,16)        =      1.086116     0.000120     0.000013     1.086129
	   17 R(17,18)        =      1.080515    -0.000038    -0.000001     1.080514
	   18 R(17,19)        =      1.078868     0.000012     0.000002     1.078870
	   19 R(17,20)        =      1.080510     0.000034     0.000003     1.080513
	   20 B(1,2,3)        =    125.587479     0.000004     0.008356   125.595835
	   21 B(1,2,4)        =    123.183662    -0.000002    -0.004887   123.178775
	   22 B(2,3,5)        =    113.368613     0.000000    -0.004057   113.364555
	   23 B(2,3,6)        =    107.158844     0.000002    -0.020813   107.138031
	   24 B(2,3,7)        =    107.414155    -0.000001     0.005868   107.420023
	   25 B(2,4,17)       =    116.990581     0.000000     0.000905   116.991487
	   26 B(3,2,4)        =    111.228716    -0.000002    -0.004242   111.224474
	   27 B(3,5,8)        =    112.290910    -0.000001    -0.008713   112.282197
	   28 B(3,5,9)        =    109.218958    -0.000001     0.006469   109.225427
	   29 B(3,5,10)       =    109.405905    -0.000000    -0.009044   109.396861
	   30 B(4,17,18)      =    110.590728     0.000000     0.000261   110.590989
	   31 B(4,17,19)      =    105.872889     0.000000     0.000651   105.873540
	   32 B(4,17,20)      =    110.593924    -0.000000    -0.000101   110.593823
	   33 B(5,3,6)        =    111.218958    -0.000004    -0.018283   111.200675
	   34 B(5,3,7)        =    111.348685    -0.000000     0.011422   111.360107
	   35 B(5,8,11)       =    112.690085    -0.000000     0.000603   112.690688
	   36 B(5,8,12)       =    109.564952    -0.000004    -0.002965   109.561988
	   37 B(5,8,13)       =    109.457765     0.000005     0.009204   109.466969
	   38 B(6,3,7)        =    105.939612     0.000002     0.027612   105.967224
	   39 B(8,5,9)        =    109.549251     0.000006     0.006368   109.555619
	   40 B(8,5,10)       =    109.903583    -0.000005    -0.022860   109.880723
	   41 B(8,11,14)      =    111.133374    -0.000002    -0.004464   111.128910
	   42 B(8,11,15)      =    111.200154     0.000000     0.001256   111.201410
	   43 B(8,11,16)      =    111.114209     0.000003     0.004699   111.118908
	   44 B(9,5,10)       =    106.290205     0.000001     0.030064   106.320269
	   45 B(11,8,12)      =    109.330257     0.000003     0.005165   109.335422
	   46 B(11,8,13)      =    109.339708    -0.000004    -0.009842   109.329866
	   47 B(12,8,13)      =    106.252583    -0.000000    -0.002363   106.250220
	   48 B(14,11,15)     =    107.774255     0.000001     0.000368   107.774623
	   49 B(14,11,16)     =    107.669733    -0.000000    -0.000634   107.669099
	   50 B(15,11,16)     =    107.782852    -0.000001    -0.001316   107.781536
	   51 B(18,17,19)     =    110.280325     0.000000     0.000559   110.280884
	   52 B(18,17,20)     =    109.191504    -0.000000    -0.000466   109.191038
	   53 B(19,17,20)     =    110.280144    -0.000000    -0.000874   110.279270
	   54 D(1,2,3,5)      =      0.154959     0.000001     0.262575     0.417534
	   55 D(1,2,3,6)      =    123.251725     0.000000     0.221836   123.473561
	   56 D(1,2,3,7)      =   -123.290836     0.000001     0.246447  -123.044388
	   57 D(1,2,4,17)     =      0.077336    -0.000001    -0.237233    -0.159897
	   58 D(2,3,5,8)      =   -177.439647     0.000002    -0.036557  -177.476204
	   59 D(2,3,5,9)      =     60.831679     0.000000    -0.043364    60.788315
	   60 D(2,3,5,10)     =    -55.129108     0.000000    -0.077977   -55.207085
	   61 D(2,4,17,18)    =    -60.531494     0.000000    -0.019622   -60.551117
	   62 D(2,4,17,19)    =   -179.988567    -0.000000    -0.020817  -180.009384
	   63 D(2,4,17,20)    =     60.552856    -0.000000    -0.020102    60.532753
	   64 D(3,2,4,17)     =    179.946946     0.000001     0.223845   180.170792
	   65 D(3,5,8,11)     =   -178.676916    -0.000002    -1.115500  -179.792416
	   66 D(3,5,8,12)     =    -56.714847    -0.000001    -1.110601   -57.825449
	   67 D(3,5,8,13)     =     59.425407    -0.000001    -1.109890    58.315517
	   68 D(4,2,3,5)      =   -179.710853    -0.000001    -0.211991  -179.922844
	   69 D(4,2,3,6)      =    -56.614087    -0.000001    -0.252730   -56.866817
	   70 D(4,2,3,7)      =     56.843352    -0.000001    -0.228119    56.615234
	   71 D(5,8,11,14)    =     60.075176    -0.000000     0.122568    60.197744
	   72 D(5,8,11,15)    =   -179.860942    -0.000000     0.120877  -179.740065
	   73 D(5,8,11,16)    =    -59.799058    -0.000000     0.123212   -59.675846
	   74 D(6,3,5,8)      =     61.728656     0.000002     0.006807    61.735463
	   75 *D(6,3,5,9)     =    -60.000018     0.000000    -0.000000   -60.000018
	   76 D(6,3,5,10)     =   -175.960804    -0.000000    -0.034613  -175.995417
	   77 D(7,3,5,8)      =    -56.179451     0.000002    -0.023331   -56.202782
	   78 D(7,3,5,9)      =   -177.908125     0.000000    -0.030138  -177.938263
	   79 D(7,3,5,10)     =     66.131089    -0.000000    -0.064751    66.066337
	   80 D(9,5,8,11)     =    -57.136888    -0.000001    -1.108653   -58.245541
	   81 D(9,5,8,12)     =     64.825180    -0.000001    -1.103754    63.721427
	   82 D(9,5,8,13)     =   -179.034565    -0.000001    -1.103042  -180.137608
	   83 D(10,5,8,11)    =     59.295146    -0.000000    -1.081767    58.213379
	   84 D(10,5,8,12)    =   -178.742786    -0.000000    -1.076868  -179.819653
	   85 D(10,5,8,13)    =    -62.602531    -0.000000    -1.076156   -63.678687
	   86 D(12,8,11,14)   =    -62.019364     0.000000     0.122263   -61.897101
	   87 D(12,8,11,15)   =     58.044518     0.000000     0.120572    58.165090
	   88 D(12,8,11,16)   =    178.106402     0.000000     0.122906   178.229308
	   89 D(13,8,11,14)   =   -177.960440     0.000000     0.127719  -177.832721
	   90 D(13,8,11,15)   =    -57.896558     0.000000     0.126028   -57.770530
	   91 D(13,8,11,16)   =     62.165326     0.000000     0.128362    62.293688
	 ---------------------------------------------------------------------------

  ==> Convergence Check <==

  Measures of convergence in internal coordinates in au.
  Criteria marked as inactive (o), active & met (*), and active & unmet ( ).
  ---------------------------------------------------------------------------------------------
   Step     Total Energy     Delta E     MAX Force     RMS Force      MAX Disp      RMS Disp   
  ---------------------------------------------------------------------------------------------
    Convergence Criteria    1.00e-06 *    3.00e-04 *             o    1.20e-03 *             o
  ---------------------------------------------------------------------------------------------
      2    -383.94155765   -2.05e-06      1.56e-04 *    4.42e-05 o    1.95e-02      6.20e-03 o  ~
  ---------------------------------------------------------------------------------------------

	Writing optimization data to binary file.
	Structure for next step:
	Cartesian Geometry (in Angstrom)
	    O     1.2146088241   1.3063603884  -0.0203702562
	    C     1.1216011168   0.1212881560  -0.0224670690
	    C    -0.1707582191  -0.6586074268  -0.0145931167
	    O     2.1720746756  -0.6896207827  -0.0249269464
	    C    -1.4124270185   0.2279096971  -0.0133752565
	    H    -0.1555254340  -1.3123146747  -0.8823772798
	    H    -0.1506623804  -1.3127627253   0.8528083852
	    C    -2.7058837090  -0.5856597785   0.0569623165
	    H    -1.4160308544   0.8394225293  -0.9106286513
	    H    -1.3632040828   0.9159717377   0.8244219669
	    C    -3.9559418841   0.2931632938   0.0536185500
	    H    -2.7483880477  -1.2757940328  -0.7833277209
	    H    -2.6996790403  -1.1996678743   0.9552571901
	    H    -4.0110555720   0.8920759765  -0.8507787614
	    H    -4.8583328898  -0.3076290591   0.1087093445
	    H    -3.9582478058   0.9735480154   0.9002280657
	    C     3.4518174444  -0.0835282693  -0.0285095572
	    H     3.5800900640   0.5282399307  -0.9098705000
	    H     4.1626821612  -0.8950886155  -0.0299076232
	    H     3.5846426173   0.5291544463   0.8515385673
			--------------------------
			 OPTKING Finished Execution 
			--------------------------

    Structure for next step:
    Molecular point group: c1
    Full point group: C1

    Geometry (in Angstrom), charge = 0, multiplicity = 1:

    O            1.214622679816     1.306343691980    -0.018493721599
    C            1.121614979615     0.121271550154    -0.020590534204
    C           -0.170744257558    -0.658623973106    -0.012716582460
    O            2.172088458215    -0.689637326676    -0.023050411464
    C           -1.412412962195     0.227893083061    -0.011498722415
    H           -0.155511473646    -1.312331171112    -0.880500679354
    H           -0.150648420450    -1.312779221667     0.854684853177
    C           -2.705869553925    -0.585676330410     0.058838845229
    H           -1.416016797838     0.839405868557    -0.908752048684
    H           -1.363190030271     0.915955071093     0.826298437024
    C           -3.955927633512     0.293146674784     0.055495079007
    H           -2.748373889326    -1.275810532016    -0.781451127974
    H           -2.699664885706    -1.199684379327     0.957133650209
    H           -4.011041317262     0.892059311797    -0.848902163323
    H           -4.858318570389    -0.307645632240     0.110585869324
    H           -3.958233555047     0.973531344479     0.902104529984
    C            3.451831129219    -0.083544859529    -0.026633021946
    H            3.580103739101     0.528223293731    -0.907993897410
    H            4.162695791810    -0.895105143807    -0.028031087841
    H            3.584656292056     0.529137809247     0.853415035372

gradient() will perform analytic gradient computation.

*** tstart() called on cx1-1-2-3.cx1.hpc.ic.ac.uk
*** at Fri Sep  2 14:04:36 2016


         ---------------------------------------------------------
                                   SCF
            by Justin Turney, Rob Parrish, and Andy Simmonett
                              RHF Reference
                        4 Threads,   2000 MiB Core
         ---------------------------------------------------------

  ==> Geometry <==

    Molecular point group: c1
    Full point group: C1

    Geometry (in Angstrom), charge = 0, multiplicity = 1:

       Center              X                  Y                   Z               Mass       
    ------------   -----------------  -----------------  -----------------  -----------------
           O          1.214622679816     1.306343691980    -0.018493721599    15.994914619560
           C          1.121614979615     0.121271550154    -0.020590534204    12.000000000000
           C         -0.170744257558    -0.658623973106    -0.012716582460    12.000000000000
           O          2.172088458215    -0.689637326676    -0.023050411464    15.994914619560
           C         -1.412412962195     0.227893083061    -0.011498722415    12.000000000000
           H         -0.155511473646    -1.312331171112    -0.880500679354     1.007825032070
           H         -0.150648420450    -1.312779221667     0.854684853177     1.007825032070
           C         -2.705869553925    -0.585676330410     0.058838845229    12.000000000000
           H         -1.416016797838     0.839405868557    -0.908752048684     1.007825032070
           H         -1.363190030271     0.915955071093     0.826298437024     1.007825032070
           C         -3.955927633512     0.293146674784     0.055495079007    12.000000000000
           H         -2.748373889326    -1.275810532016    -0.781451127974     1.007825032070
           H         -2.699664885706    -1.199684379327     0.957133650209     1.007825032070
           H         -4.011041317262     0.892059311797    -0.848902163323     1.007825032070
           H         -4.858318570389    -0.307645632240     0.110585869324     1.007825032070
           H         -3.958233555047     0.973531344479     0.902104529984     1.007825032070
           C          3.451831129219    -0.083544859529    -0.026633021946    12.000000000000
           H          3.580103739101     0.528223293731    -0.907993897410     1.007825032070
           H          4.162695791810    -0.895105143807    -0.028031087841     1.007825032070
           H          3.584656292056     0.529137809247     0.853415035372     1.007825032070

  Running in c1 symmetry.

  Rotational constants: A =      0.25859  B =      0.02468  C =      0.02301 [cm^-1]
  Rotational constants: A =   7752.23272  B =    740.03339  C =    689.76125 [MHz]
  Nuclear repulsion =  381.085159832385159

  Charge       = 0
  Multiplicity = 1
  Electrons    = 64
  Nalpha       = 32
  Nbeta        = 32

  ==> Algorithm <==

  SCF Algorithm Type is DF.
  DIIS enabled.
  MOM disabled.
  Fractional occupation disabled.
  Guess Type is READ.
  Energy threshold   = 1.00e-08
  Density threshold  = 1.00e-08
  Integral threshold = 0.00e+00

  ==> Primary Basis <==

  Basis Set: 6-31G*
    Number of shells: 72
    Number of basis function: 144
    Number of Cartesian functions: 144
    Spherical Harmonics?: false
    Max angular momentum: 2

  ==> Pre-Iterations <==

   -------------------------------------------------------
    Irrep   Nso     Nmo     Nalpha   Nbeta   Ndocc  Nsocc
   -------------------------------------------------------
     A        144     144       0       0       0       0
   -------------------------------------------------------
    Total     144     144      32      32      32       0
   -------------------------------------------------------

 OEINTS: Overlap, kinetic, potential, dipole, and quadrupole integrals
         stored in file 35.

  ==> Integral Setup <==

  ==> DFJK: Density-Fitted J/K Matrices <==

    J tasked:                  Yes
    K tasked:                  Yes
    wK tasked:                  No
    OpenMP threads:              4
    Integrals threads:           4
[...]
	 R(2,3)           =         2.852480	       1.509467
	 R(2,4)           =         2.507770	       1.327055
	 R(3,5)           =         2.883090	       1.525666
	 R(3,6)           =         2.053302	       1.086561
	 R(3,7)           =         2.053384	       1.086604
	 R(4,17)          =         2.675883	       1.416016
	 R(5,8)           =         2.890646	       1.529664
	 R(5,9)           =         2.051919	       1.085829
	 R(5,10)          =         2.050815	       1.085245
	 R(8,11)          =         2.887627	       1.528066
	 R(8,12)          =         2.056400	       1.088200
	 R(8,13)          =         2.056225	       1.088108
	 R(11,14)         =         2.052479	       1.086125
	 R(11,15)         =         2.051285	       1.085493
	 R(11,16)         =         2.052486	       1.086129
	 R(17,18)         =         2.041876	       1.080514
	 R(17,19)         =         2.038769	       1.078870
	 R(17,20)         =         2.041873	       1.080513
	 B(1,2,3)         =         2.192061	     125.595835
	 B(1,2,4)         =         2.149875	     123.178775
	 B(2,3,5)         =         1.978585	     113.364555
	 B(2,3,6)         =         1.869911	     107.138031
	 B(2,3,7)         =         1.874833	     107.420023
	 B(2,4,17)        =         2.041887	     116.991487
	 B(3,2,4)         =         1.941233	     111.224474
	 B(3,5,8)         =         1.959694	     112.282197
	 B(3,5,9)         =         1.906343	     109.225427
	 B(3,5,10)        =         1.909335	     109.396861
	 B(4,17,18)       =         1.930177	     110.590989
	 B(4,17,19)       =         1.847842	     105.873540
	 B(4,17,20)       =         1.930226	     110.593823
	 B(5,3,6)         =         1.940818	     111.200675
	 B(5,3,7)         =         1.943601	     111.360107
	 B(5,8,11)        =         1.966824	     112.690688
	 B(5,8,12)        =         1.912217	     109.561988
	 B(5,8,13)        =         1.910559	     109.466969
	 B(6,3,7)         =         1.849477	     105.967224
	 B(8,5,9)         =         1.912106	     109.555619
	 B(8,5,10)        =         1.917780	     109.880723
	 B(8,11,14)       =         1.939565	     111.128910
	 B(8,11,15)       =         1.940831	     111.201410
	 B(8,11,16)       =         1.939391	     111.118908
	 B(9,5,10)        =         1.855639	     106.320269
	 B(11,8,12)       =         1.908263	     109.335422
	 B(11,8,13)       =         1.908166	     109.329866
	 B(12,8,13)       =         1.854416	     106.250220
	 B(14,11,15)      =         1.881022	     107.774623
	 B(14,11,16)      =         1.879180	     107.669099
	 B(15,11,16)      =         1.881143	     107.781536
	 B(18,17,19)      =         1.924765	     110.280884
	 B(18,17,20)      =         1.905743	     109.191038
	 B(19,17,20)      =         1.924736	     110.279270
	 D(1,2,3,5)       =         0.007287	       0.417534
	 D(1,2,3,6)       =         2.155020	     123.473561
	 D(1,2,3,7)       =        -2.147530	    -123.044388
	 D(1,2,4,17)      =        -0.002791	      -0.159897
	 D(2,3,5,8)       =        -3.097544	    -177.476204
	 D(2,3,5,9)       =         1.060956	      60.788315
	 D(2,3,5,10)      =        -0.963545	     -55.207085
	 D(2,4,17,18)     =        -1.056816	     -60.551117
	 D(2,4,17,19)     =         3.141429	     179.990616
	 D(2,4,17,20)     =         1.056496	      60.532753
	 D(3,2,4,17)      =        -3.138612	    -179.829208
	 D(3,5,8,11)      =        -3.137970	    -179.792416
	 D(3,5,8,12)      =        -1.009244	     -57.825449
	 D(3,5,8,13)      =         1.017798	      58.315517
	 D(4,2,3,5)       =        -3.140246	    -179.922844
	 D(4,2,3,6)       =        -0.992513	     -56.866817
	 D(4,2,3,7)       =         0.988122	      56.615234
	 D(5,8,11,14)     =         1.050649	      60.197744
	 D(5,8,11,15)     =        -3.137056	    -179.740065
	 D(5,8,11,16)     =        -1.041540	     -59.675846
	 D(6,3,5,8)       =         1.077487	      61.735463
	*D(6,3,5,9)       =        -1.047198	     -60.000018
	 D(6,3,5,10)      =        -3.071699	    -175.995417
	 D(7,3,5,8)       =        -0.980924	     -56.202782
	 D(7,3,5,9)       =        -3.105609	    -177.938263
	 D(7,3,5,10)      =         1.153075	      66.066337
	 D(9,5,8,11)      =        -1.016576	     -58.245541
	 D(9,5,8,12)      =         1.112149	      63.721427
	 D(9,5,8,13)      =         3.139191	     179.862392
	 D(10,5,8,11)     =         1.016015	      58.213379
	 D(10,5,8,12)     =        -3.138445	    -179.819653
	 D(10,5,8,13)     =        -1.111403	     -63.678687
	 D(12,8,11,14)    =        -1.080308	     -61.897101
	 D(12,8,11,15)    =         1.015172	      58.165090
	 D(12,8,11,16)    =         3.110688	     178.229308
	 D(13,8,11,14)    =        -3.103767	    -177.832721
	 D(13,8,11,15)    =        -1.008286	     -57.770530
	 D(13,8,11,16)    =         1.087230	      62.293688

	Current energy   :      -383.9415579597

	Energy change for the previous step:
		Projected    :        -0.0000146178
		Actual       :        -0.0000003127
	Energy ratio indicates iffy step: Trust radius decreased to 1.250e-01.


	Performing BFGS update.
	Previous computed or guess Hessian on step 1.
	Steps to be used in Hessian update: 2 1
	Taking RFO optimization step.
	Going to follow RFO solution 1.
	Using RFO vector 1.
	Norm of target step-size    0.02292
	Projected energy change by RFO approximation:        -0.0000069985

	Back-transformation to cartesian coordinates...
	Successfully converged to displaced geometry.

	Back-transformation to cartesian coordinates to adjust frozen coordinates...
	Successfully converged to displaced geometry.

	--- Internal Coordinate Step in ANG or DEG, aJ/ANG or AJ/DEG ---
	 ---------------------------------------------------------------------------
	   Coordinate                Previous        Force       Change         New 
	   ----------                --------       ------       ------       ------
	    1 R(1,2)          =      1.188718    -0.000036     0.000002     1.188720
	    2 R(2,3)          =      1.509467     0.000520     0.000104     1.509571
	    3 R(2,4)          =      1.327055     0.000206     0.000018     1.327073
	    4 R(3,5)          =      1.525666    -0.000243    -0.000020     1.525645
	    5 R(3,6)          =      1.086561     0.000355    -0.000002     1.086559
	    6 R(3,7)          =      1.086604    -0.000707    -0.000048     1.086556
	    7 R(4,17)         =      1.416016    -0.000030    -0.000004     1.416012
	    8 R(5,8)          =      1.529664     0.000545     0.000109     1.529773
	    9 R(5,9)          =      1.085829    -0.000350     0.000019     1.085848
	   10 R(5,10)         =      1.085245    -0.000057    -0.000081     1.085164
	   11 R(8,11)         =      1.528066     0.000025     0.000002     1.528068
	   12 R(8,12)         =      1.088200    -0.000271    -0.000016     1.088184
	   13 R(8,13)         =      1.088108     0.000296     0.000021     1.088129
	   14 R(11,14)        =      1.086125     0.000074     0.000002     1.086128
	   15 R(11,15)        =      1.085493    -0.000017     0.000000     1.085494
	   16 R(11,16)        =      1.086129    -0.000058     0.000004     1.086133
	   17 R(17,18)        =      1.080514     0.000020     0.000001     1.080515
	   18 R(17,19)        =      1.078870     0.000002     0.000001     1.078871
	   19 R(17,20)        =      1.080513    -0.000028     0.000000     1.080513
	   20 B(1,2,3)        =    125.595835     0.000001     0.005690   125.601526
	   21 B(1,2,4)        =    123.178775     0.000000    -0.002221   123.176554
	   22 B(2,3,5)        =    113.364555    -0.000001    -0.002292   113.362263
	   23 B(2,3,6)        =    107.138031     0.000008     0.005366   107.143397
	   24 B(2,3,7)        =    107.420023    -0.000006    -0.011028   107.408995
	   25 B(2,4,17)       =    116.991487     0.000000     0.000552   116.992039
	   26 B(3,2,4)        =    111.224474    -0.000001    -0.003235   111.221239
	   27 B(3,5,8)        =    112.282197    -0.000000    -0.004263   112.277934
	   28 B(3,5,9)        =    109.225427    -0.000001     0.002505   109.227932
	   29 B(3,5,10)       =    109.396861     0.000001    -0.005107   109.391754
	   30 B(4,17,18)      =    110.590989     0.000001     0.001706   110.592695
	   31 B(4,17,19)      =    105.873540     0.000000     0.000412   105.873952
	   32 B(4,17,20)      =    110.593823    -0.000001    -0.001487   110.592336
	   33 B(5,3,6)        =    111.200675    -0.000004    -0.009687   111.190988
	   34 B(5,3,7)        =    111.360107     0.000003     0.003834   111.363942
	   35 B(5,8,11)       =    112.690688    -0.000001    -0.000323   112.690365
	   36 B(5,8,12)       =    109.561988    -0.000004    -0.010139   109.551848
	   37 B(5,8,13)       =    109.466969     0.000005     0.013831   109.480800
	   38 B(6,3,7)        =    105.967224     0.000001     0.014972   105.982195
	   39 B(8,5,9)        =    109.555619     0.000003     0.006096   109.561715
	   40 B(8,5,10)       =    109.880723    -0.000003    -0.014324   109.866398
	   41 B(8,11,14)      =    111.128910     0.000001    -0.000975   111.127934
	   42 B(8,11,15)      =    111.201410    -0.000000     0.000536   111.201945
	   43 B(8,11,16)      =    111.118908    -0.000000     0.001693   111.120601
	   44 B(9,5,10)       =    106.320269     0.000000     0.016299   106.336567
	   45 B(11,8,12)      =    109.335422     0.000002    -0.000225   109.335197
	   46 B(11,8,13)      =    109.329866    -0.000002    -0.002123   109.327743
	   47 B(12,8,13)      =    106.250220    -0.000000    -0.001067   106.249153
	   48 B(14,11,15)     =    107.774623    -0.000000    -0.000351   107.774272
	   49 B(14,11,16)     =    107.669099    -0.000000    -0.000529   107.668570
	   50 B(15,11,16)     =    107.781536    -0.000000    -0.000449   107.781087
	   51 B(18,17,19)     =    110.280884    -0.000001    -0.000395   110.280489
	   52 B(18,17,20)     =    109.191038    -0.000000    -0.000353   109.190684
	   53 B(19,17,20)     =    110.279270     0.000001     0.000139   110.279408
	   54 D(1,2,3,5)      =      0.417534    -0.000003    -0.284857     0.132677
	   55 D(1,2,3,6)      =    123.473561    -0.000004    -0.294785   123.178775
	   56 D(1,2,3,7)      =   -123.044388    -0.000003    -0.280231  -123.324619
	   57 D(1,2,4,17)     =     -0.159897     0.000003     0.302320     0.142422
	   58 D(2,3,5,8)      =   -177.476204     0.000002     0.004888  -177.471316
	   59 D(2,3,5,9)      =     60.788315     0.000001    -0.001760    60.786554
	   60 D(2,3,5,10)     =    -55.207085     0.000001    -0.019849   -55.226934
	   61 D(2,4,17,18)    =    -60.551117     0.000000    -0.001492   -60.552609
	   62 D(2,4,17,19)    =    179.990616     0.000000    -0.002182   179.988434
	   63 D(2,4,17,20)    =     60.532753     0.000000    -0.001791    60.530962
	   64 D(3,2,4,17)     =   -179.829208    -0.000003    -0.313594  -180.142803
	   65 D(3,5,8,11)     =   -179.792416     0.000000    -0.321585  -180.114001
	   66 D(3,5,8,12)     =    -57.825449    -0.000000    -0.329337   -58.154785
	   67 D(3,5,8,13)     =     58.315517     0.000000    -0.328509    57.987008
	   68 D(4,2,3,5)      =   -179.922844     0.000004     0.349131  -179.573713
	   69 D(4,2,3,6)      =    -56.866817     0.000003     0.339203   -56.527615
	   70 D(4,2,3,7)      =     56.615234     0.000004     0.353758    56.968991
	   71 D(5,8,11,14)    =     60.197744    -0.000001    -0.039531    60.158212
	   72 D(5,8,11,15)    =   -179.740065    -0.000001    -0.040271  -179.780336
	   73 D(5,8,11,16)    =    -59.675846    -0.000001    -0.039343   -59.715189
	   74 D(6,3,5,8)      =     61.735463     0.000001     0.006648    61.742112
	   75 *D(6,3,5,9)     =    -60.000018     0.000000    -0.000000   -60.000018
	   76 D(6,3,5,10)     =   -175.995417    -0.000000    -0.018089  -176.013506
	   77 D(7,3,5,8)      =    -56.202782     0.000001    -0.008314   -56.211096
	   78 D(7,3,5,9)      =   -177.938263    -0.000000    -0.014962  -177.953225
	   79 D(7,3,5,10)     =     66.066337    -0.000000    -0.033051    66.033286
	   80 D(9,5,8,11)     =    -58.245541     0.000000    -0.316991   -58.562532
	   81 D(9,5,8,12)     =     63.721427     0.000000    -0.324743    63.396683
	   82 D(9,5,8,13)     =    179.862392     0.000000    -0.323915   179.538477
	   83 D(10,5,8,11)    =     58.213379     0.000001    -0.301998    57.911381
	   84 D(10,5,8,12)    =   -179.819653     0.000000    -0.309750  -180.129403
	   85 D(10,5,8,13)    =    -63.678687     0.000000    -0.308922   -63.987610
	   86 D(12,8,11,14)   =    -61.897101     0.000000    -0.026198   -61.923300
	   87 D(12,8,11,15)   =     58.165090     0.000000    -0.026938    58.138152
	   88 D(12,8,11,16)   =    178.229308     0.000000    -0.026010   178.203298
	   89 D(13,8,11,14)   =   -177.832721     0.000000    -0.023603  -177.856324
	   90 D(13,8,11,15)   =    -57.770530     0.000000    -0.024343   -57.794873
	   91 D(13,8,11,16)   =     62.293688     0.000000    -0.023414    62.270274
	 ---------------------------------------------------------------------------

  ==> Convergence Check <==

  Measures of convergence in internal coordinates in au.
  Criteria marked as inactive (o), active & met (*), and active & unmet ( ).
  ---------------------------------------------------------------------------------------------
   Step     Total Energy     Delta E     MAX Force     RMS Force      MAX Disp      RMS Disp   
  ---------------------------------------------------------------------------------------------
    Convergence Criteria    1.00e-06 *    3.00e-04 *             o    1.20e-03 *             o
  ---------------------------------------------------------------------------------------------
      3    -383.94155796   -3.13e-07 *    2.19e-04 *    6.77e-05 o    6.17e-03      2.40e-03 o  ~
  ---------------------------------------------------------------------------------------------


  **** Optimization is complete! (in 3 steps) ****

  ==> Optimization Summary <==

  Measures of convergence in internal coordinates in au.
  --------------------------------------------------------------------------------------------------------------- ~
   Step         Total Energy             Delta E       MAX Force       RMS Force        MAX Disp        RMS Disp  ~
  --------------------------------------------------------------------------------------------------------------- ~
      1    -383.941555597653   -383.941555597653      0.00024636      0.00005754      0.02457624      0.00741579  ~
      2    -383.941557646993     -0.000002049340      0.00015625      0.00004424      0.01946915      0.00619582  ~
      3    -383.941557959701     -0.000000312708      0.00021873      0.00006772      0.00617424      0.00240239  ~
  --------------------------------------------------------------------------------------------------------------- ~

	Writing optimization data to binary file.
	Final energy is   -383.9415579597011
	Final (previous) structure:
	Cartesian Geometry (in Angstrom)
	    O     1.2146227726   1.3063437917  -0.0184937230
	    C     1.1216150653   0.1212715594  -0.0205905358
	    C    -0.1707442706  -0.6586240234  -0.0127165834
	    O     2.1720886241  -0.6896373793  -0.0230504132
	    C    -1.4124130701   0.2278931005  -0.0114987233
	    H    -0.1555114855  -1.3123312713  -0.8805007466
	    H    -0.1506484320  -1.3127793219   0.8546849184
	    C    -2.7058697606  -0.5856763751   0.0588388497
	    H    -1.4160169060   0.8394059327  -0.9087521181
	    H    -1.3631901344   0.9159551410   0.8262985001
	    C    -3.9559279356   0.2931466972   0.0554950832
	    H    -2.7483740992  -1.2758106294  -0.7814511876
	    H    -2.6996650919  -1.1996844709   0.9571337233
	    H    -4.0110416236   0.8920593799  -0.8489022281
	    H    -4.8583189414  -0.3076456557   0.1105858778
	    H    -3.9582338573   0.9735314188   0.9021045989
	    C     3.4518313928  -0.0835448659  -0.0266330240
	    H     3.5801040125   0.5282233341  -0.9079939667
	    H     4.1626961097  -0.8951052122  -0.0280310900
	    H     3.5846565658   0.5291378497   0.8534151005
	Saving final (previous) structure.
			--------------------------
			 OPTKING Finished Execution 
			--------------------------

    Final optimized geometry and variables:
    Molecular point group: c1
    Full point group: C1

    Geometry (in Angstrom), charge = 0, multiplicity = 1:

    O            1.214622679816     1.306343691980    -0.018493721599
    C            1.121614979615     0.121271550154    -0.020590534204
    C           -0.170744257558    -0.658623973106    -0.012716582460
    O            2.172088458215    -0.689637326676    -0.023050411464
    C           -1.412412962195     0.227893083061    -0.011498722415
    H           -0.155511473646    -1.312331171112    -0.880500679354
    H           -0.150648420450    -1.312779221667     0.854684853177
    C           -2.705869553925    -0.585676330410     0.058838845229
    H           -1.416016797838     0.839405868557    -0.908752048684
    H           -1.363190030271     0.915955071093     0.826298437024
    C           -3.955927633512     0.293146674784     0.055495079007
    H           -2.748373889326    -1.275810532016    -0.781451127974
    H           -2.699664885706    -1.199684379327     0.957133650209
    H           -4.011041317262     0.892059311797    -0.848902163323
    H           -4.858318570389    -0.307645632240     0.110585869324
    H           -3.958233555047     0.973531344479     0.902104529984
    C            3.451831129219    -0.083544859529    -0.026633021946
    H            3.580103739101     0.528223293731    -0.907993897410
    H            4.162695791810    -0.895105143807    -0.028031087841
    H            3.584656292056     0.529137809247     0.853415035372

	Cleaning optimization helper files.


Properties will be evaluated at   0.000000,   0.000000,   0.000000 Bohr

Properties computed using the  density matrix

  Nuclear Dipole Moment: (a.u.)
     X:    -9.3899      Y:    -1.5205      Z:     0.1391

  Electronic Dipole Moment: (a.u.)
     X:     9.5312      Y:     0.8237      Z:    -0.1397

  Dipole Moment: (a.u.)
     X:     0.1413      Y:    -0.6968      Z:    -0.0006     Total:     0.7110

  Dipole Moment: (Debye)
     X:     0.3591      Y:    -1.7710      Z:    -0.0016     Total:     1.8071

  Quadrupole Moment: (Debye Ang)
    XX:   -42.8640     YY:   -55.3415     ZZ:   -48.5539
    XY:    -0.8274     XZ:    -0.0238     YZ:     0.0551

  Traceless Quadrupole Moment: (Debye Ang)
    XX:     6.0558     YY:    -6.4217     ZZ:     0.3659
    XY:    -0.8274     XZ:    -0.0238     YZ:     0.0551

  Mulliken Charges: (a.u.)
   Center  Symbol    Alpha    Beta     Spin     Total
       1     O     4.28596  4.28596  0.00000 -0.57193
       2     C     2.60546  2.60546  0.00000  0.78907
       3     C     3.20799  3.20799  0.00000 -0.41599
       4     O     4.30723  4.30723  0.00000 -0.61446
       5     C     3.15105  3.15105  0.00000 -0.30210
       6     H     0.40067  0.40067  0.00000  0.19866
       7     H     0.40058  0.40058  0.00000  0.19884
       8     C     3.15428  3.15428  0.00000 -0.30856
       9     H     0.41288  0.41288  0.00000  0.17423
      10     H     0.41094  0.41094  0.00000  0.17811
      11     C     3.23930  3.23930  0.00000 -0.47860
      12     H     0.42302  0.42302  0.00000  0.15397
      13     H     0.42296  0.42296  0.00000  0.15409
      14     H     0.42007  0.42007  0.00000  0.15986
      15     H     0.41874  0.41874  0.00000  0.16252
      16     H     0.41990  0.41990  0.00000  0.16020
      17     C     3.09243  3.09243  0.00000 -0.18487
      18     H     0.40908  0.40908  0.00000  0.18183
      19     H     0.40842  0.40842  0.00000  0.18316
      20     H     0.40903  0.40903  0.00000  0.18194

   Total alpha = 32.00000, Total beta = 32.00000, Total charge =  0.00000


*** PSI4 exiting successfully. Buy a developer a beer!
