    -----------------------------------------------------------------------
          Psi4: An Open-Source Ab Initio Electronic Structure Package
                              Psi4 (no tag) Driver

                          Git: Rev {detached?}  

    J. M. Turney, A. C. Simmonett, R. M. Parrish, E. G. Hohenstein,
    F. A. Evangelista, J. T. Fermann, B. J. Mintz, L. A. Burns, J. J. Wilke,
    M. L. Abrams, N. J. Russ, M. L. Leininger, C. L. Janssen, E. T. Seidl,
    W. D. Allen, H. F. Schaefer, R. A. King, E. F. Valeev, C. D. Sherrill,
    and T. D. Crawford, WIREs Comput. Mol. Sci. 2, 556-565 (2012)
    (doi: 10.1002/wcms.93)

                         Additional Contributions by
    A. E. DePrince, M. Saitow, U. Bozkaya, A. Yu. Sokolov
    -----------------------------------------------------------------------


    Psi4 started on: Fri Sep  2 11:49:26 2016

    Process ID:  15094
    PSI4DATADIR: /export131/home/mjharvey/miniconda3/share
    Memory level set to 256.000 MB

  ==> Input File <==

--------------------------------------------------------------------------
set {
	reference rhf
	basis 6-31G*
}


set_num_threads( 4 )
memory 2 gb

molecule MOL {
0 1

H	 2.866480	 -0.465706	 0.876907
C	 2.405773	 -0.024801	 0.000000
N	 0.988830	 -0.304158	 0.000000
H	 2.866480	 -0.465706	 -0.876907
H	 2.629928	 1.045948	 0.000000
C	 0.316200	 0.246925	 -1.161829
C	 0.338999	 0.131288	 1.222324
H	 0.401652	 1.337783	 -1.196815
H	 0.778546	 -0.149176	 -2.060487
C	 -1.153806	 -0.138222	 -1.134763
H	 0.818039	 -0.349487	 2.069449
H	 0.426111	 1.213720	 1.361069
C	 -1.131612	 -0.250793	 1.186165
H	 -1.689510	 0.337723	 -1.945635
H	 -1.250283	 -1.217294	 -1.240909
O	 -1.759909	 0.283200	 0.054773
H	 -1.651308	 0.143956	 2.049360
H	 -1.227045	 -1.335161	 1.189215

	symmetry c1
}
set optking {
	frozen_dihedral = ("
		6 3 2 5
	")
}

ee = optimize('scf')
oeprop('DIPOLE', 'QUADRUPOLE', 'MULLIKEN_CHARGES')
f=open( 'psi4out.xyz', 'w' )
f.write( "18  " )
f.write( str(ee) + "\n" )
f.write( MOL.save_string_xyz() )
f.close()
--------------------------------------------------------------------------

  Memory set to   2.000 GiB by Python script.
gradient() will perform analytic gradient computation.

*** tstart() called on cx1-1-1-1.cx1.hpc.ic.ac.uk
*** at Fri Sep  2 11:49:26 2016


         ---------------------------------------------------------
                                   SCF
            by Justin Turney, Rob Parrish, and Andy Simmonett
                              RHF Reference
                        4 Threads,   2000 MiB Core
         ---------------------------------------------------------

  ==> Geometry <==

    Molecular point group: c1
    Full point group: C1

    Geometry (in Angstrom), charge = 0, multiplicity = 1:

       Center              X                  Y                   Z               Mass       
    ------------   -----------------  -----------------  -----------------  -----------------
           H          2.866364385697    -0.465119683399     0.852710673426     1.007825032070
           C          2.405657385697    -0.024214683399    -0.024196326574    12.000000000000
           N          0.988714385697    -0.303571683399    -0.024196326574    14.003074004780
           H          2.866364385697    -0.465119683399    -0.901103326574     1.007825032070
           H          2.629812385697     1.046534316601    -0.024196326574     1.007825032070
           C          0.316084385697     0.247511316601    -1.186025326574    12.000000000000
           C          0.338883385697     0.131874316601     1.198127673426    12.000000000000
           H          0.401536385697     1.338369316601    -1.221011326574     1.007825032070
           H          0.778430385697    -0.148589683399    -2.084683326574     1.007825032070
           C         -1.153921614303    -0.137635683399    -1.158959326574    12.000000000000
           H          0.817923385697    -0.348900683399     2.045252673426     1.007825032070
           H          0.425995385697     1.214306316601     1.336872673426     1.007825032070
           C         -1.131727614303    -0.250206683399     1.161968673426    12.000000000000
           H         -1.689625614303     0.338309316601    -1.969831326574     1.007825032070
           H         -1.250398614303    -1.216707683399    -1.265105326574     1.007825032070
           O         -1.760024614303     0.283786316601     0.030576673426    15.994914619560
           H         -1.651423614303     0.144542316601     2.025163673426     1.007825032070
           H         -1.227160614303    -1.334574683399     1.165018673426     1.007825032070

  Running in c1 symmetry.

  Rotational constants: A =      0.16244  B =      0.07906  C =      0.05780 [cm^-1]
  Rotational constants: A =   4869.69113  B =   2370.18140  C =   1732.82077 [MHz]
  Nuclear repulsion =  341.513120315952847

  Charge       = 0
  Multiplicity = 1
  Electrons    = 56
  Nalpha       = 28
  Nbeta        = 28

  ==> Algorithm <==

  SCF Algorithm Type is DF.
  DIIS enabled.
  MOM disabled.
  Fractional occupation disabled.
  Guess Type is CORE.
  Energy threshold   = 1.00e-08
  Density threshold  = 1.00e-08
  Integral threshold = 0.00e+00

  ==> Primary Basis <==

  Basis Set: 6-31G*
    Number of shells: 64
    Number of basis function: 127
    Number of Cartesian functions: 127
    Spherical Harmonics?: false
    Max angular momentum: 2

  ==> Pre-Iterations <==

   -------------------------------------------------------
    Irrep   Nso     Nmo     Nalpha   Nbeta   Ndocc  Nsocc
   -------------------------------------------------------
     A        127     127       0       0       0       0
   -------------------------------------------------------
    Total     127     127      28      28      28       0
   -------------------------------------------------------

 OEINTS: Overlap, kinetic, potential, dipole, and quadrupole integrals
         stored in file 35.

  ==> Integral Setup <==

  ==> DFJK: Density-Fitted J/K Matrices <==

    J tasked:                  Yes
    K tasked:                  Yes
    wK tasked:                  No
    OpenMP threads:              4
    Integrals threads:           4
    Memory (MB):              1430
    Algorithm:                Core
    Integral Cache:           NONE
    Schwarz Cutoff:          1E-12
    Fitting Condition:       1E-12

   => Auxiliary Basis Set <=

  Basis Set: 
    Number of shells: 267
    Number of basis function: 842
    Number of Cartesian functions: 842
    Spherical Harmonics?: false
    Max angular momentum: 3

  Minimum eigenvalue in the overlap matrix is 3.2372100541E-03.
  Using Symmetric Orthogonalization.
  SCF Guess: Core (One-Electron) Hamiltonian.

  ==> Iterations <==

                           Total Energy        Delta E     RMS |[F,P]|

   @DF-RHF iter   1:  -254.47382926342880   -2.54474e+02   7.04465e-02 
   @DF-RHF iter   2:  -175.86796486770493    7.86059e+01   7.52202e-02 DIIS
   @DF-RHF iter   3:  -270.10421481771073   -9.42362e+01   5.17258e-02 DIIS
   @DF-RHF iter   4:  -269.83773630280007    2.66479e-01   6.01385e-02 DIIS
   @DF-RHF iter   5:  -324.25704747711063   -5.44193e+01   9.88195e-03 DIIS
   @DF-RHF iter   6:  -324.93273789497312   -6.75690e-01   3.45328e-03 DIIS
   @DF-RHF iter   7:  -325.01309232791732   -8.03544e-02   1.35418e-03 DIIS
   @DF-RHF iter   8:  -325.02673660940786   -1.36443e-02   3.79759e-04 DIIS
   @DF-RHF iter   9:  -325.02851076174215   -1.77415e-03   1.05132e-04 DIIS
   @DF-RHF iter  10:  -325.02861062683223   -9.98651e-05   4.42816e-05 DIIS
   @DF-RHF iter  11:  -325.02863546150593   -2.48347e-05   6.32087e-06 DIIS
   @DF-RHF iter  12:  -325.02863599439581   -5.32890e-07   1.86491e-06 DIIS
   @DF-RHF iter  13:  -325.02863603542323   -4.10274e-08   6.75567e-07 DIIS
   @DF-RHF iter  14:  -325.02863604152424   -6.10100e-09   1.33932e-07 DIIS
   @DF-RHF iter  15:  -325.02863604183972   -3.15481e-10   2.93389e-08 DIIS
   @DF-RHF iter  16:  -325.02863604185677   -1.70530e-11   7.78382e-09 DIIS

  ==> Post-Iterations <==

    Orbital Energies (a.u.)
    -----------------------

    Doubly Occupied:                                                      

       1A    -20.554128     2A    -15.549402     3A    -11.266327  
       4A    -11.266291     5A    -11.244188     6A    -11.244138  
       7A    -11.241108     8A     -1.383547     9A     -1.232531  
      10A     -1.038592    11A     -0.981341    12A     -0.883010  
      13A     -0.868944    14A     -0.774674    15A     -0.683630  
      16A     -0.645679    17A     -0.643532    18A     -0.634347  
      19A     -0.629046    20A     -0.571836    21A     -0.557273  
      22A     -0.540143    23A     -0.527487    24A     -0.502086  
      25A     -0.484295    26A     -0.452490    27A     -0.408012  
      28A     -0.353398  

    Virtual:                                                              

      29A      0.232947    30A      0.258329    31A      0.273257  
      32A      0.284439    33A      0.309069    34A      0.310886  
      35A      0.323006    36A      0.325753    37A      0.334470  
      38A      0.344536    39A      0.346160    40A      0.359537  
      41A      0.386897    42A      0.430532    43A      0.436663  
      44A      0.452437    45A      0.465408    46A      0.480631  
      47A      0.717669    48A      0.732855    49A      0.748602  
      50A      0.782202    51A      0.796977    52A      0.805247  
      53A      0.832989    54A      0.842277    55A      0.887036  
      56A      0.906303    57A      0.933531    58A      0.977911  
      59A      0.979196    60A      1.059416    61A      1.065470  
      62A      1.109008    63A      1.110565    64A      1.124735  
      65A      1.136482    66A      1.150829    67A      1.168414  
      68A      1.182570    69A      1.192950    70A      1.200245  
      71A      1.202879    72A      1.232336    73A      1.251124  
      74A      1.256878    75A      1.301875    76A      1.320114  
      77A      1.412178    78A      1.471355    79A      1.527003  
      80A      1.642490    81A      1.649403    82A      1.653359  
      83A      1.671482    84A      1.702670    85A      1.721031  
      86A      1.874232    87A      1.900961    88A      1.987125  
      89A      2.002945    90A      2.068081    91A      2.153010  
      92A      2.196862    93A      2.199197    94A      2.227868  
      95A      2.302594    96A      2.312429    97A      2.350772  
      98A      2.391254    99A      2.399506   100A      2.415531  
     101A      2.452622   102A      2.482483   103A      2.495511  
     104A      2.540129   105A      2.586554   106A      2.619426  
     107A      2.655808   108A      2.680279   109A      2.775074  
     110A      2.782243   111A      2.809430   112A      2.900610  
     113A      2.912243   114A      2.946629   115A      3.085993  
     116A      3.136427   117A      3.159639   118A      3.219541  
     119A      3.253913   120A      3.327514   121A      4.394923  
     122A      4.504714   123A      4.645586   124A      4.703958  
     125A      4.767456   126A      4.940881   127A      4.953453  

    Final Occupation by Irrep:
              A 
    DOCC [    28 ]

  Energy converged.

  @DF-RHF Final Energy:  -325.02863604185677

   => Energetics <=

    Nuclear Repulsion Energy =            341.5131203159528468
    One-Electron Energy =               -1118.7605640083716025
    Two-Electron Energy =                 452.2188076505620984
    DFT Exchange-Correlation Energy =       0.0000000000000000
    Empirical Dispersion Energy =           0.0000000000000000
    PCM Polarization Energy =               0.0000000000000000
    EFP Energy =                            0.0000000000000000
    Total Energy =                       -325.0286360418566574

    Alert: EFP and PCM quantities not currently incorporated into SCF psivars.

Properties will be evaluated at   0.000000,   0.000000,   0.000000 Bohr
  ==> Properties <==


Properties computed using the SCF density matrix

  Nuclear Dipole Moment: (a.u.)
     X:     4.6458      Y:     0.0989      Z:    -0.0381

  Electronic Dipole Moment: (a.u.)
     X:    -4.0876      Y:    -0.1399      Z:     0.0335

  Dipole Moment: (a.u.)
     X:     0.5582      Y:    -0.0411      Z:    -0.0047     Total:     0.5598

  Dipole Moment: (Debye)
     X:     1.4189      Y:    -0.1044      Z:    -0.0119     Total:     1.4228


  Saving occupied orbitals to File 180.

*** tstop() called on cx1-1-1-1.cx1.hpc.ic.ac.uk at Fri Sep  2 11:49:33 2016
Module time:
	user time   =      16.45 seconds =       0.27 minutes
	system time =       0.20 seconds =       0.00 minutes
	total time  =          7 seconds =       0.12 minutes
Total time:
	user time   =      16.45 seconds =       0.27 minutes
	system time =       0.20 seconds =       0.00 minutes
	total time  =          7 seconds =       0.12 minutes

*** tstart() called on cx1-1-1-1.cx1.hpc.ic.ac.uk
*** at Fri Sep  2 11:49:33 2016


         ------------------------------------------------------------
                                   SCF GRAD                          
                          Rob Parrish, Justin Turney,                
                       Andy Simmonett, and Alex Sokolov              
         ------------------------------------------------------------

  ==> Geometry <==

    Molecular point group: c1
    Full point group: C1

    Geometry (in Angstrom), charge = 0, multiplicity = 1:

       Center              X                  Y                   Z               Mass       
    ------------   -----------------  -----------------  -----------------  -----------------
           H          2.866364385697    -0.465119683399     0.852710673426     1.007825032070
           C          2.405657385697    -0.024214683399    -0.024196326574    12.000000000000
           N          0.988714385697    -0.303571683399    -0.024196326574    14.003074004780
           H          2.866364385697    -0.465119683399    -0.901103326574     1.007825032070
           H          2.629812385697     1.046534316601    -0.024196326574     1.007825032070
           C          0.316084385697     0.247511316601    -1.186025326574    12.000000000000
           C          0.338883385697     0.131874316601     1.198127673426    12.000000000000
           H          0.401536385697     1.338369316601    -1.221011326574     1.007825032070
           H          0.778430385697    -0.148589683399    -2.084683326574     1.007825032070
           C         -1.153921614303    -0.137635683399    -1.158959326574    12.000000000000
           H          0.817923385697    -0.348900683399     2.045252673426     1.007825032070
           H          0.425995385697     1.214306316601     1.336872673426     1.007825032070
           C         -1.131727614303    -0.250206683399     1.161968673426    12.000000000000
           H         -1.689625614303     0.338309316601    -1.969831326574     1.007825032070
           H         -1.250398614303    -1.216707683399    -1.265105326574     1.007825032070
           O         -1.760024614303     0.283786316601     0.030576673426    15.994914619560
           H         -1.651423614303     0.144542316601     2.025163673426     1.007825032070
           H         -1.227160614303    -1.334574683399     1.165018673426     1.007825032070

  Nuclear repulsion =  341.513120315952847

  ==> Basis Set <==

  Basis Set: 6-31G*
    Number of shells: 64
    Number of basis function: 127
    Number of Cartesian functions: 127
    Spherical Harmonics?: false
    Max angular momentum: 2

  ==> DFJKGrad: Density-Fitted SCF Gradients <==

    Gradient:                    1
    J tasked:                  Yes
    K tasked:                  Yes
    wK tasked:                  No
    OpenMP threads:              4
    Integrals threads:           4
    Memory (MB):              1430
    Schwarz Cutoff:          0E+00
    Fitting Condition:       1E-12

   => Auxiliary Basis Set <=

  Basis Set: 
    Number of shells: 267
    Number of basis function: 842
    Number of Cartesian functions: 842
    Spherical Harmonics?: false
    Max angular momentum: 3


  -Total Gradient:
     Atom            X                  Y                   Z
    ------   -----------------  -----------------  -----------------
       1        0.000001137021     0.000146194940     0.000212140295
       2       -0.000123984149     0.000028509732     0.000320052492
       3       -0.000040029114     0.000025729598    -0.000529199775
       4       -0.000076516576    -0.000162276589     0.000225095240
       5        0.000019138172     0.000007421347    -0.000312974125
       6       -0.000033176405     0.000297500594    -0.000029321096
       7        0.000156948476    -0.000315569395     0.000093702971
       8       -0.000031595855     0.000055743924    -0.000057161286
       9       -0.000058645616     0.000017997288     0.000008781810
      10        0.000110003977    -0.000087270875     0.000222209930
      11        0.000057381792     0.000026874814     0.000085192624
      12        0.000093741530     0.000003322233    -0.000064818315
      13        0.000071573922    -0.000144183076    -0.000216571232
      14        0.000006884523     0.000024399266     0.000064966140
      15       -0.000016173930    -0.000061266100    -0.000065547020
      16       -0.000111359244     0.000155846017     0.000036732110
      17        0.000008505693     0.000037324350    -0.000065943235
      18       -0.000033834210    -0.000056298069     0.000072662473


*** tstop() called on cx1-1-1-1.cx1.hpc.ic.ac.uk at Fri Sep  2 11:49:38 2016
Module time:
	user time   =      18.64 seconds =       0.31 minutes
	system time =       0.22 seconds =       0.00 minutes
	total time  =          5 seconds =       0.08 minutes
Total time:
	user time   =      35.11 seconds =       0.59 minutes
	system time =       0.42 seconds =       0.01 minutes
	total time  =         12 seconds =       0.20 minutes
CURRENT ENERGY: -325.0286360419

			-----------------------------------------
			 OPTKING 2.0: for geometry optimizations 
			  - R.A. King,  Bethel University        
			-----------------------------------------

	Internal coordinates to be generated automatically.
	Detected frag with atoms:  1 2 3 4 5 6 7 8 9 10 11 12 13 14 15 16 17 18
	---Fragment 1 Bond Connectivity---
	 1 : 2
	 2 : 1 3 4 5
	 3 : 2 6 7
	 4 : 2
	 5 : 2
	 6 : 3 8 9 10
	 7 : 3 11 12 13
	 8 : 6
	 9 : 6
	 10 : 6 14 15 16
	 11 : 7
	 12 : 7
	 13 : 7 16 17 18
	 14 : 10
	 15 : 10
	 16 : 10 13
	 17 : 13
	 18 : 13

	Assuming in current code that numbering for constraints corresponds to unified fragment.
	Frozen dihedral atom list: 
	     6     3     2     5
	---Fragment 1 Geometry and Gradient---
	 H           5.4166436860       -0.8789488206        1.6113896434
	 C           4.5460336285       -0.0457591200       -0.0457244306
	 N           1.8683994126       -0.5736673433       -0.0457244306
	 H           5.4166436860       -0.8789488206       -1.7028385047
	 H           4.9696251898        1.9776632470       -0.0457244306
	 C           0.5973129238        0.4677286032       -2.2412630539
	 C           0.6403967900        0.2492063423        2.2641331750
	 H           0.7587938014        2.5291514730       -2.3073770124
	 H           1.4710202425       -0.2807938078       -3.9394805610
	 C          -2.1805958298       -0.2600937477       -2.1901157264
	 H           1.5456511967       -0.6593267392        3.8649674253
	 H           0.8050146128        2.2947063798        2.5263232273
	 C          -2.1386552481       -0.4728221082        2.1958025678
	 H          -3.1929296781        0.6393119566       -3.7224417352
	 H          -2.3629109380       -2.2992443054       -2.3907025965
	 O          -3.3259645082        0.5362784186        0.0577815388
	 H          -3.1207383604        0.2731453930        3.8270047170
	 H          -2.3189974821       -2.5219806555        2.2015662325
	             0.0000011370        0.0001461949        0.0002121403
	            -0.0001239841        0.0000285097        0.0003200525
	            -0.0000400291        0.0000257296       -0.0005291998
	            -0.0000765166       -0.0001622766        0.0002250952
	             0.0000191382        0.0000074213       -0.0003129741
	            -0.0000331764        0.0002975006       -0.0000293211
	             0.0001569485       -0.0003155694        0.0000937030
	            -0.0000315959        0.0000557439       -0.0000571613
	            -0.0000586456        0.0000179973        0.0000087818
	             0.0001100040       -0.0000872709        0.0002222099
	             0.0000573818        0.0000268748        0.0000851926
	             0.0000937415        0.0000033222       -0.0000648183
	             0.0000715739       -0.0001441831       -0.0002165712
	             0.0000068845        0.0000243993        0.0000649661
	            -0.0000161739       -0.0000612661       -0.0000655470
	            -0.0001113592        0.0001558460        0.0000367321
	             0.0000085057        0.0000373244       -0.0000659432
	            -0.0000338342       -0.0000562981        0.0000726625

	Previous optimization step data not found.  Starting new optimization.

	---Fragment 1 Intrafragment Coordinates---
	 - Coordinate -           - BOHR/RAD -       - ANG/DEG -
	 R(1,2)           =         2.048949	       1.084257
	 R(2,3)           =         2.729178	       1.444219
	 R(2,4)           =         2.048949	       1.084257
	 R(2,5)           =         2.067285	       1.093960
	 R(3,6)           =         2.742363	       1.451196
	 R(3,7)           =         2.742363	       1.451196
	 R(6,8)           =         2.068795	       1.094759
	 R(6,9)           =         2.051242	       1.085471
	 R(6,10)          =         2.872128	       1.519865
	 R(7,11)          =         2.051241	       1.085470
	 R(7,12)          =         2.068795	       1.094759
	 R(7,13)          =         2.872129	       1.519865
	 R(10,14)         =         2.044938	       1.082135
	 R(10,15)         =         2.057087	       1.088564
	 R(10,16)         =         2.645585	       1.399983
	 R(13,16)         =         2.645585	       1.399984
	 R(13,17)         =         2.044939	       1.082135
	 R(13,18)         =         2.057087	       1.088564
	 B(1,2,3)         =         1.915825	     109.768671
	 B(1,2,4)         =         1.884091	     107.950453
	 B(1,2,5)         =         1.886989	     108.116508
	 B(2,3,6)         =         1.961990	     112.413755
	 B(2,3,7)         =         1.961990	     112.413733
	 B(3,2,4)         =         1.915825	     109.768671
	 B(3,2,5)         =         1.971818	     112.976877
	 B(3,6,8)         =         1.947436	     111.579844
	 B(3,6,9)         =         1.903732	     109.075790
	 B(3,6,10)        =         1.915383	     109.743367
	 B(3,7,11)        =         1.903732	     109.075806
	 B(3,7,12)        =         1.947436	     111.579861
	 B(3,7,13)        =         1.915382	     109.743332
	 B(4,2,5)         =         1.886989	     108.116508
	 B(6,3,7)         =         1.931400	     110.661073
	 B(6,10,14)       =         1.932647	     110.732504
	 B(6,10,15)       =         1.912596	     109.583669
	 B(6,10,16)       =         1.936476	     110.951887
	 B(7,13,16)       =         1.936476	     110.951886
	 B(7,13,17)       =         1.932647	     110.732494
	 B(7,13,18)       =         1.912596	     109.583695
	 B(8,6,9)         =         1.879587	     107.692406
	 B(8,6,10)        =         1.905585	     109.181994
	 B(9,6,10)        =         1.911594	     109.526288
	 B(10,16,13)      =         1.957946	     112.182070
	 B(11,7,12)       =         1.879588	     107.692446
	 B(11,7,13)       =         1.911595	     109.526305
	 B(12,7,13)       =         1.905584	     109.181942
	 B(14,10,15)      =         1.895517	     108.605111
	 B(14,10,16)      =         1.864992	     106.856155
	 B(15,10,16)      =         1.920774	     110.052234
	 B(16,13,17)      =         1.864991	     106.856124
	 B(16,13,18)      =         1.920775	     110.052286
	 B(17,13,18)      =         1.895516	     108.605075
	 D(1,2,3,6)       =        -3.128513	    -179.250585
	 D(1,2,3,7)       =         0.961486	      55.089108
	 D(2,3,6,8)       =        -1.074212	     -61.547814
	 D(2,3,6,9)       =         1.000180	      57.306095
	 D(2,3,6,10)      =         3.094414	     177.296877
	 D(2,3,7,11)      =        -1.000180	     -57.306075
	 D(2,3,7,12)      =         1.074214	      61.547904
	 D(2,3,7,13)      =        -3.094414	    -177.296865
	 D(3,6,10,14)     =         3.052802	     174.912682
	 D(3,6,10,15)     =        -1.139746	     -65.302627
	 D(3,6,10,16)     =         0.984843	      56.427369
	 D(3,7,13,16)     =        -0.984844	     -56.427402
	 D(3,7,13,17)     =        -3.052802	    -174.912669
	 D(3,7,13,18)     =         1.139747	      65.302676
	 D(4,2,3,6)       =        -1.060278	     -60.749453
	 D(4,2,3,7)       =         3.029721	     173.590240
	*D(5,2,3,6)       =         1.047197	      59.999981
	 D(5,2,3,7)       =        -1.145989	     -65.660326
	 D(6,3,7,11)      =         3.073283	     176.086160
	 D(6,3,7,12)      =        -1.135509	     -65.059861
	 D(6,3,7,13)      =         0.979049	      56.095371
	 D(6,10,16,13)    =        -1.012606	     -58.018038
	 D(7,3,6,8)       =         1.135510	      65.059938
	 D(7,3,6,9)       =        -3.073283	    -176.086152
	 D(7,3,6,10)      =        -0.979049	     -56.095371
	 D(7,13,16,10)    =         1.012606	      58.018058
	 D(8,6,10,14)     =         0.913234	      52.324465
	 D(8,6,10,15)     =         3.003871	     172.109156
	 D(8,6,10,16)     =        -1.154725	     -66.160848
	 D(9,6,10,14)     =        -1.140947	     -65.371428
	 D(9,6,10,15)     =         0.949691	      54.413263
	 D(9,6,10,16)     =         3.074280	     176.143259
	 D(10,16,13,17)   =         3.121031	     178.821896
	 D(10,16,13,18)   =        -1.107192	     -63.437448
	 D(11,7,13,16)    =        -3.074281	    -176.143299
	 D(11,7,13,17)    =         1.140947	      65.371434
	 D(11,7,13,18)    =        -0.949690	     -54.413221
	 D(12,7,13,16)    =         1.154723	      66.160781
	 D(12,7,13,17)    =        -0.913235	     -52.324486
	 D(12,7,13,18)    =        -3.003871	    -172.109141
	 D(13,16,10,14)   =        -3.121031	    -178.821908
	 D(13,16,10,15)   =         1.107192	      63.437402

	Current energy   :      -325.0286360419

	Generating empirical Hessian (Schlegel '84) for each fragment.
	Taking RFO optimization step.
	Going to follow RFO solution 1.
	Using RFO vector 1.
	Norm of target step-size    0.02296
	Projected energy change by RFO approximation:        -0.0000031409

	Back-transformation to cartesian coordinates...
	Successfully converged to displaced geometry.

	Back-transformation to cartesian coordinates to adjust frozen coordinates...
	Successfully converged to displaced geometry.

	--- Internal Coordinate Step in ANG or DEG, aJ/ANG or AJ/DEG ---
	 ---------------------------------------------------------------------------
	   Coordinate                Previous        Force       Change         New 
	   ----------                --------       ------       ------       ------
	    1 R(1,2)          =      1.084257    -0.000928    -0.000168     1.084090
	    2 R(2,3)          =      1.444219     0.001425     0.000235     1.444453
	    3 R(2,4)          =      1.084257     0.001224     0.000222     1.084479
	    4 R(2,5)          =      1.093960    -0.000092    -0.000017     1.093943
	    5 R(3,6)          =      1.451196    -0.001029    -0.000181     1.451015
	    6 R(3,7)          =      1.451196     0.001917     0.000320     1.451516
	    7 R(6,8)          =      1.094759    -0.000452    -0.000085     1.094674
	    8 R(6,9)          =      1.085471     0.000320     0.000058     1.085529
	    9 R(6,10)         =      1.519865     0.000119    -0.000010     1.519854
	   10 R(7,11)         =      1.085470    -0.000658    -0.000120     1.085350
	   11 R(7,12)         =      1.094759    -0.000021    -0.000004     1.094755
	   12 R(7,13)         =      1.519865    -0.000145     0.000005     1.519870
	   13 R(10,14)        =      1.082135     0.000341     0.000061     1.082196
	   14 R(10,15)        =      1.088564    -0.000565    -0.000104     1.088460
	   15 R(10,16)        =      1.399983     0.000126     0.000021     1.400004
	   16 R(13,16)        =      1.399984     0.000459     0.000070     1.400054
	   17 R(13,17)        =      1.082135     0.000355     0.000064     1.082199
	   18 R(13,18)        =      1.088564    -0.000488    -0.000090     1.088474
	   19 B(1,2,3)        =    109.768671     0.000004     0.093486   109.862157
	   20 B(1,2,4)        =    107.950453    -0.000002    -0.004323   107.946130
	   21 B(1,2,5)        =    108.116508     0.000007     0.160364   108.276872
	   22 B(2,3,6)        =    112.413755    -0.000016    -0.166803   112.246952
	   23 B(2,3,7)        =    112.413733     0.000022     0.021301   112.435034
	   24 B(3,2,4)        =    109.768671     0.000003    -0.055170   109.713501
	   25 B(3,2,5)        =    112.976877    -0.000004    -0.020335   112.956541
	   26 B(3,6,8)        =    111.579844    -0.000007    -0.039662   111.540181
	   27 B(3,6,9)        =    109.075790    -0.000005    -0.031361   109.044430
	   28 B(3,6,10)       =    109.743367     0.000011     0.053455   109.796822
	   29 B(3,7,11)       =    109.075806    -0.000005    -0.035974   109.039831
	   30 B(3,7,12)       =    111.579861     0.000007     0.070955   111.650816
	   31 B(3,7,13)       =    109.743332     0.000005     0.014392   109.757724
	   32 B(4,2,5)        =    108.116508    -0.000009    -0.174823   107.941685
	   33 B(6,3,7)        =    110.661073    -0.000010    -0.166466   110.494607
	   34 B(6,10,14)      =    110.732504     0.000004     0.029946   110.762450
	   35 B(6,10,15)      =    109.583669    -0.000002    -0.020764   109.562905
	   36 B(6,10,16)      =    110.951887    -0.000005    -0.031592   110.920295
	   37 B(7,13,16)      =    110.951886    -0.000007     0.000669   110.952555
	   38 B(7,13,17)      =    110.732494     0.000002     0.033268   110.765762
	   39 B(7,13,18)      =    109.583695    -0.000001    -0.043557   109.540138
	   40 B(8,6,9)        =    107.692406     0.000002    -0.000543   107.691864
	   41 B(8,6,10)       =    109.181994     0.000001     0.007716   109.189710
	   42 B(9,6,10)       =    109.526288    -0.000003     0.009812   109.536100
	   43 B(10,16,13)     =    112.182070     0.000009     0.030407   112.212477
	   44 B(11,7,12)      =    107.692446     0.000003     0.013749   107.706195
	   45 B(11,7,13)      =    109.526305    -0.000000    -0.036761   109.489544
	   46 B(12,7,13)      =    109.181942    -0.000010    -0.028249   109.153693
	   47 B(14,10,15)     =    108.605111    -0.000000     0.009006   108.614117
	   48 B(14,10,16)     =    106.856155     0.000005     0.050192   106.906347
	   49 B(15,10,16)     =    110.052234    -0.000001    -0.034810   110.017424
	   50 B(16,13,17)     =    106.856124     0.000005     0.055152   106.911276
	   51 B(16,13,18)     =    110.052286    -0.000000    -0.050623   110.001663
	   52 B(17,13,18)     =    108.605075     0.000000     0.007024   108.612099
	   53 D(1,2,3,6)      =   -179.250585     0.000002     0.257532  -178.993053
	   54 D(1,2,3,7)      =     55.089108     0.000004     0.597762    55.686870
	   55 D(2,3,6,8)      =    -61.547814    -0.000001     0.072641   -61.475174
	   56 D(2,3,6,9)      =     57.306095    -0.000002     0.027591    57.333687
	   57 D(2,3,6,10)     =    177.296877    -0.000002     0.052745   177.349621
	   58 D(2,3,7,11)     =    -57.306075    -0.000002    -0.239981   -57.546057
	   59 D(2,3,7,12)     =     61.547904    -0.000001    -0.202595    61.345308
	   60 D(2,3,7,13)     =   -177.296865    -0.000002    -0.181667  -177.478531
	   61 D(3,6,10,14)    =    174.912682     0.000001     0.144252   175.056934
	   62 D(3,6,10,15)    =    -65.302627     0.000001     0.160888   -65.141739
	   63 D(3,6,10,16)    =     56.427369    -0.000001     0.082655    56.510024
	   64 D(3,7,13,16)    =    -56.427402    -0.000000    -0.066973   -56.494375
	   65 D(3,7,13,17)    =   -174.912669    -0.000001    -0.157536  -175.070204
	   66 D(3,7,13,18)    =     65.302676    -0.000001    -0.159204    65.143472
	   67 D(4,2,3,6)      =    -60.749453     0.000003     0.275345   -60.474108
	   68 D(4,2,3,7)      =    173.590240     0.000004     0.615575   174.205815
	   69 *D(5,2,3,6)     =     59.999981     0.000000     0.000000    59.999981
	   70 D(5,2,3,7)      =    -65.660326     0.000002     0.340230   -65.320096
	   71 D(6,3,7,11)     =    176.086160     0.000000     0.096744   176.182904
	   72 D(6,3,7,12)     =    -65.059861     0.000001     0.134130   -64.925731
	   73 D(6,3,7,13)     =     56.095371     0.000000     0.155059    56.250429
	   74 D(6,10,16,13)   =    -58.018038     0.000002     0.117091   -57.900947
	   75 D(7,3,6,8)      =     65.059938     0.000001    -0.158938    64.901000
	   76 D(7,3,6,9)      =   -176.086152     0.000000    -0.203988  -176.290140
	   77 D(7,3,6,10)     =    -56.095371     0.000000    -0.178834   -56.274205
	   78 D(7,13,16,10)   =     58.018058    -0.000000    -0.100330    57.917727
	   79 D(8,6,10,14)    =     52.324465     0.000001     0.154146    52.478611
	   80 D(8,6,10,15)    =    172.109156     0.000001     0.170782   172.279938
	   81 D(8,6,10,16)    =    -66.160848    -0.000001     0.092549   -66.068299
	   82 D(9,6,10,14)    =    -65.371428     0.000000     0.144617   -65.226810
	   83 D(9,6,10,15)    =     54.413263     0.000000     0.161253    54.574516
	   84 D(9,6,10,16)    =    176.143259    -0.000001     0.083020   176.226279
	   85 D(10,16,13,17)  =    178.821896     0.000000    -0.024802   178.797094
	   86 D(10,16,13,18)  =    -63.437448     0.000001    -0.011982   -63.449430
	   87 D(11,7,13,16)   =   -176.143299     0.000001    -0.009052  -176.152351
	   88 D(11,7,13,17)   =     65.371434    -0.000000    -0.099615    65.271820
	   89 D(11,7,13,18)   =    -54.413221    -0.000001    -0.101283   -54.514504
	   90 D(12,7,13,16)   =     66.160781     0.000001     0.012052    66.172833
	   91 D(12,7,13,17)   =    -52.324486     0.000000    -0.078511   -52.402997
	   92 D(12,7,13,18)   =   -172.109141    -0.000000    -0.080179  -172.189320
	   93 D(13,16,10,14)  =   -178.821908     0.000001     0.067527  -178.754381
	   94 D(13,16,10,15)  =     63.437402     0.000000     0.046718    63.484121
	 ---------------------------------------------------------------------------

  ==> Convergence Check <==

  Measures of convergence in internal coordinates in au.
  Criteria marked as inactive (o), active & met (*), and active & unmet ( ).
  --------------------------------------------------------------------------------------------- ~
   Step     Total Energy     Delta E     MAX Force     RMS Force      MAX Disp      RMS Disp    ~
  --------------------------------------------------------------------------------------------- ~
    Convergence Criteria    1.00e-06 *    3.00e-04 *             o    1.20e-03 *             o  ~
  --------------------------------------------------------------------------------------------- ~
      1    -325.02863604   -3.25e+02      2.91e-04 *    8.85e-05 o    1.07e-02      2.37e-03 o  ~
  ---------------------------------------------------------------------------------------------

	Writing optimization data to binary file.
	Structure for next step:
	Cartesian Geometry (in Angstrom)
	    H     2.8707569933  -0.4691352426   0.8478906374
	    C     2.4054568504  -0.0246064063  -0.0245427442
	    N     0.9888535081  -0.3068781863  -0.0226694551
	    H     2.8639512823  -0.4594901935  -0.9058790395
	    H     2.6270615526   1.0466549653  -0.0231963444
	    C     0.3169623731   0.2461793013  -1.1837618296
	    C     0.3381111425   0.1323285594   1.1982030803
	    H     0.4033100238   1.3369534513  -1.2164364927
	    H     0.7803674704  -0.1484982155  -2.0825709082
	    C    -1.1533170305  -0.1380546462  -1.1592593397
	    H     0.8159392977  -0.3474213230   2.0464397512
	    H     0.4252606391   1.2149513051   1.3353974600
	    C    -1.1327108901  -0.2489797646   1.1622535976
	    H    -1.6877025332   0.3375248830  -1.9712967652
	    H    -1.2498359890  -1.2170898033  -1.2646765468
	    O    -1.7604238630   0.2835060359   0.0297402934
	    H    -1.6526713964   0.1459281723   2.0252966512
	    H    -1.2278851088  -1.3332801896   1.1654511126
			--------------------------
			 OPTKING Finished Execution 
			--------------------------

    Structure for next step:
    Molecular point group: c1
    Full point group: C1

    Geometry (in Angstrom), charge = 0, multiplicity = 1:

    H            2.870849566834    -0.468618382111     0.847603256730
    C            2.405549459483    -0.024089579765    -0.024830058308
    N            0.988946225384    -0.306361338248    -0.022956769332
    H            2.864043856409    -0.458973333732    -0.906166286235
    H            2.627154144810     1.047171709984    -0.023483658528
    C            0.317055141698     0.246696107109    -1.184049055160
    C            0.338203909419     0.132845373957     1.197915672816
    H            0.403402785770     1.337470173799    -1.216723715735
    H            0.780460203566    -0.147981379532    -2.082858065145
    C           -1.153224149640    -0.137537811056    -1.159546567081
    H            0.816032028200    -0.346904471803     2.046152279000
    H            0.425353399377     1.215468036910     1.335110042131
    C           -1.132618010810    -0.248462920920     1.161966192864
    H           -1.687609611582     0.338041681881    -1.971583930622
    H           -1.249743100730    -1.216572885747    -1.264963766171
    O           -1.760330935805     0.284022838878     0.029452975227
    H           -1.652578477382     0.146444985827     2.025009180626
    H           -1.227792222264    -1.332763263151     1.165163707672

gradient() will perform analytic gradient computation.

*** tstart() called on cx1-1-1-1.cx1.hpc.ic.ac.uk
*** at Fri Sep  2 11:49:39 2016


         ---------------------------------------------------------
                                   SCF
            by Justin Turney, Rob Parrish, and Andy Simmonett
                              RHF Reference
                        4 Threads,   2000 MiB Core
         ---------------------------------------------------------

  ==> Geometry <==

    Molecular point group: c1
    Full point group: C1

    Geometry (in Angstrom), charge = 0, multiplicity = 1:

       Center              X                  Y                   Z               Mass       
    ------------   -----------------  -----------------  -----------------  -----------------
           H          2.870849566834    -0.468618382111     0.847603256730     1.007825032070
           C          2.405549459483    -0.024089579765    -0.024830058308    12.000000000000
           N          0.988946225384    -0.306361338248    -0.022956769332    14.003074004780
           H          2.864043856409    -0.458973333732    -0.906166286235     1.007825032070
           H          2.627154144810     1.047171709984    -0.023483658528     1.007825032070
           C          0.317055141698     0.246696107109    -1.184049055160    12.000000000000
           C          0.338203909419     0.132845373957     1.197915672816    12.000000000000
           H          0.403402785770     1.337470173799    -1.216723715735     1.007825032070
           H          0.780460203566    -0.147981379532    -2.082858065145     1.007825032070
           C         -1.153224149640    -0.137537811056    -1.159546567081    12.000000000000
           H          0.816032028200    -0.346904471803     2.046152279000     1.007825032070
           H          0.425353399377     1.215468036910     1.335110042131     1.007825032070
           C         -1.132618010810    -0.248462920920     1.161966192864    12.000000000000
           H         -1.687609611582     0.338041681881    -1.971583930622     1.007825032070
           H         -1.249743100730    -1.216572885747    -1.264963766171     1.007825032070
           O         -1.760330935805     0.284022838878     0.029452975227    15.994914619560
           H         -1.652578477382     0.146444985827     2.025009180626     1.007825032070
           H         -1.227792222264    -1.332763263151     1.165163707672     1.007825032070

  Running in c1 symmetry.

  Rotational constants: A =      0.16252  B =      0.07905  C =      0.05781 [cm^-1]
  Rotational constants: A =   4872.33772  B =   2369.81699  C =   1733.07484 [MHz]
  Nuclear repulsion =  341.529734802220730

  Charge       = 0
  Multiplicity = 1
  Electrons    = 56
  Nalpha       = 28
  Nbeta        = 28

  ==> Algorithm <==

  SCF Algorithm Type is DF.
  DIIS enabled.
  MOM disabled.
  Fractional occupation disabled.
  Guess Type is READ.
  Energy threshold   = 1.00e-08
  Density threshold  = 1.00e-08
  Integral threshold = 0.00e+00

  ==> Primary Basis <==

  Basis Set: 6-31G*
    Number of shells: 64
    Number of basis function: 127
    Number of Cartesian functions: 127
    Spherical Harmonics?: false
    Max angular momentum: 2

  ==> Pre-Iterations <==

   -------------------------------------------------------
    Irrep   Nso     Nmo     Nalpha   Nbeta   Ndocc  Nsocc
   -------------------------------------------------------
     A        127     127       0       0       0       0
   -------------------------------------------------------
    Total     127     127      28      28      28       0
   -------------------------------------------------------

 OEINTS: Overlap, kinetic, potential, dipole, and quadrupole integrals
         stored in file 35.

  ==> Integral Setup <==

  ==> DFJK: Density-Fitted J/K Matrices <==

    J tasked:                  Yes
    K tasked:                  Yes
    wK tasked:                  No
    OpenMP threads:              4
    Integrals threads:           4
    Memory (MB):              1430
    Algorithm:                Core
    Integral Cache:           NONE
    Schwarz Cutoff:          1E-12
    Fitting Condition:       1E-12

   => Auxiliary Basis Set <=

  Basis Set: 
    Number of shells: 267
    Number of basis function: 842
    Number of Cartesian functions: 842
    Spherical Harmonics?: false
    Max angular momentum: 3

  Minimum eigenvalue in the overlap matrix is 3.2343261451E-03.
  Using Symmetric Orthogonalization.
  SCF Guess: Reading in previously saved MOs, projecting if necessary.

  Using orbitals from previous SCF, no projection.
  Recomputing DOCC and SOCC from number of alpha and beta electrons from previous calculation.
              A 
    DOCC [    28 ]

  ==> Iterations <==

                           Total Energy        Delta E     RMS |[F,P]|

   @DF-RHF iter   0:  -325.02823173452470   -3.25028e+02   5.71261e-05 
   @DF-RHF iter   1:  -325.02863905620524   -4.07322e-04   1.07316e-05 
   @DF-RHF iter   2:  -325.02864075179883   -1.69559e-06   3.80121e-06 DIIS
   @DF-RHF iter   3:  -325.02864097769788   -2.25899e-07   1.51113e-06 DIIS
   @DF-RHF iter   4:  -325.02864100287997   -2.51821e-08   1.78175e-07 DIIS
   @DF-RHF iter   5:  -325.02864100341691   -5.36943e-10   7.76902e-08 DIIS
   @DF-RHF iter   6:  -325.02864100348978   -7.28733e-11   2.05182e-08 DIIS
   @DF-RHF iter   7:  -325.02864100349615   -6.36646e-12   6.95988e-09 DIIS

  ==> Post-Iterations <==

    Orbital Energies (a.u.)
    -----------------------

    Doubly Occupied:                                                      

       1A    -20.554047     2A    -15.549592     3A    -11.266344  
       4A    -11.266322     5A    -11.244140     6A    -11.244100  
       7A    -11.241165     8A     -1.383476     9A     -1.232700  
      10A     -1.038549    11A     -0.981354    12A     -0.882947  
      13A     -0.869000    14A     -0.774805    15A     -0.683657  
      16A     -0.645613    17A     -0.643446    18A     -0.634375  
      19A     -0.629132    20A     -0.571911    21A     -0.557351  
      22A     -0.540097    23A     -0.527450    24A     -0.502037  
      25A     -0.484187    26A     -0.452405    27A     -0.407968  
      28A     -0.353842  

    Virtual:                                                              

      29A      0.232948    30A      0.258281    31A      0.273324  
      32A      0.284383    33A      0.309223    34A      0.310983  
      35A      0.322985    36A      0.325671    37A      0.334466  
      38A      0.344498    39A      0.346210    40A      0.359425  
      41A      0.386789    42A      0.430362    43A      0.436764  
      44A      0.452510    45A      0.465458    46A      0.480380  
      47A      0.717622    48A      0.732817    49A      0.748551  
      50A      0.781877    51A      0.797064    52A      0.805646  
      53A      0.832924    54A      0.842920    55A      0.887194  
      56A      0.906221    57A      0.933314    58A      0.977959  
      59A      0.979539    60A      1.059133    61A      1.065701  
      62A      1.109029    63A      1.110437    64A      1.124677  
      65A      1.136584    66A      1.150885    67A      1.168561  
      68A      1.182662    69A      1.193111    70A      1.200325  
      71A      1.202806    72A      1.232406    73A      1.251115  
      74A      1.257159    75A      1.302025    76A      1.319551  
      77A      1.411559    78A      1.471188    79A      1.527609  
      80A      1.642562    81A      1.649733    82A      1.652554  
      83A      1.671059    84A      1.703836    85A      1.722390  
      86A      1.873906    87A      1.901076    88A      1.987141  
      89A      2.003466    90A      2.067639    91A      2.153440  
      92A      2.196448    93A      2.199077    94A      2.227154  
      95A      2.302688    96A      2.312767    97A      2.350742  
      98A      2.391351    99A      2.399786   100A      2.415824  
     101A      2.452617   102A      2.482293   103A      2.495371  
     104A      2.539647   105A      2.586581   106A      2.619284  
     107A      2.656398   108A      2.680786   109A      2.775079  
     110A      2.782090   111A      2.809358   112A      2.899683  
     113A      2.912097   114A      2.946965   115A      3.085906  
     116A      3.137103   117A      3.160305   118A      3.219070  
     119A      3.253480   120A      3.327408   121A      4.394970  
     122A      4.505859   123A      4.645714   124A      4.704095  
     125A      4.767602   126A      4.940623   127A      4.953917  

    Final Occupation by Irrep:
              A 
    DOCC [    28 ]

  Energy converged.

  @DF-RHF Final Energy:  -325.02864100349615

   => Energetics <=

    Nuclear Repulsion Energy =            341.5297348022207302
    One-Electron Energy =               -1118.7927294922321835
    Two-Electron Energy =                 452.2343536865152487
    DFT Exchange-Correlation Energy =       0.0000000000000000
    Empirical Dispersion Energy =           0.0000000000000000
    PCM Polarization Energy =               0.0000000000000000
    EFP Energy =                            0.0000000000000000
    Total Energy =                       -325.0286410034962614

    Alert: EFP and PCM quantities not currently incorporated into SCF psivars.

Properties will be evaluated at   0.000000,   0.000000,   0.000000 Bohr
  ==> Properties <==


Properties computed using the SCF density matrix

  Nuclear Dipole Moment: (a.u.)
     X:     4.6475      Y:     0.1080      Z:    -0.0436

  Electronic Dipole Moment: (a.u.)
     X:    -4.0886      Y:    -0.1460      Z:     0.0391

  Dipole Moment: (a.u.)
     X:     0.5589      Y:    -0.0380      Z:    -0.0045     Total:     0.5602

  Dipole Moment: (Debye)
     X:     1.4207      Y:    -0.0967      Z:    -0.0114     Total:     1.4240


  Saving occupied orbitals to File 180.

*** tstop() called on cx1-1-1-1.cx1.hpc.ic.ac.uk at Fri Sep  2 11:49:44 2016
Module time:
	user time   =      13.35 seconds =       0.22 minutes
	system time =       0.17 seconds =       0.00 minutes
	total time  =          5 seconds =       0.08 minutes
Total time:
	user time   =      49.74 seconds =       0.83 minutes
	system time =       0.62 seconds =       0.01 minutes
	total time  =         18 seconds =       0.30 minutes

*** tstart() called on cx1-1-1-1.cx1.hpc.ic.ac.uk
*** at Fri Sep  2 11:49:44 2016


         ------------------------------------------------------------
                                   SCF GRAD                          
                          Rob Parrish, Justin Turney,                
                       Andy Simmonett, and Alex Sokolov              
         ------------------------------------------------------------

  ==> Geometry <==

    Molecular point group: c1
    Full point group: C1

    Geometry (in Angstrom), charge = 0, multiplicity = 1:

       Center              X                  Y                   Z               Mass       
    ------------   -----------------  -----------------  -----------------  -----------------
           H          2.870849566834    -0.468618382111     0.847603256730     1.007825032070
           C          2.405549459483    -0.024089579765    -0.024830058308    12.000000000000
           N          0.988946225384    -0.306361338248    -0.022956769332    14.003074004780
           H          2.864043856409    -0.458973333732    -0.906166286235     1.007825032070
           H          2.627154144810     1.047171709984    -0.023483658528     1.007825032070
           C          0.317055141698     0.246696107109    -1.184049055160    12.000000000000
           C          0.338203909419     0.132845373957     1.197915672816    12.000000000000
           H          0.403402785770     1.337470173799    -1.216723715735     1.007825032070
           H          0.780460203566    -0.147981379532    -2.082858065145     1.007825032070
           C         -1.153224149640    -0.137537811056    -1.159546567081    12.000000000000
           H          0.816032028200    -0.346904471803     2.046152279000     1.007825032070
           H          0.425353399377     1.215468036910     1.335110042131     1.007825032070
           C         -1.132618010810    -0.248462920920     1.161966192864    12.000000000000
           H         -1.687609611582     0.338041681881    -1.971583930622     1.007825032070
           H         -1.249743100730    -1.216572885747    -1.264963766171     1.007825032070
           O         -1.760330935805     0.284022838878     0.029452975227    15.994914619560
           H         -1.652578477382     0.146444985827     2.025009180626     1.007825032070
           H         -1.227792222264    -1.332763263151     1.165163707672     1.007825032070

  Nuclear repulsion =  341.529734802220730

  ==> Basis Set <==

  Basis Set: 6-31G*
    Number of shells: 64
    Number of basis function: 127
    Number of Cartesian functions: 127
    Spherical Harmonics?: false
    Max angular momentum: 2

  ==> DFJKGrad: Density-Fitted SCF Gradients <==

    Gradient:                    1
    J tasked:                  Yes
    K tasked:                  Yes
    wK tasked:                  No
    OpenMP threads:              4
    Integrals threads:           4
    Memory (MB):              1430
    Schwarz Cutoff:          0E+00
    Fitting Condition:       1E-12

   => Auxiliary Basis Set <=

  Basis Set: 
    Number of shells: 267
    Number of basis function: 842
    Number of Cartesian functions: 842
    Spherical Harmonics?: false
    Max angular momentum: 3


  -Total Gradient:
     Atom            X                  Y                   Z
    ------   -----------------  -----------------  -----------------
       1        0.000056006613     0.000005588080     0.000017176379
       2       -0.000170700212     0.000100841877     0.000902835028
       3        0.000155359660    -0.000598583497    -0.000645539132
       4       -0.000014759740     0.000021009947     0.000019013449
       5        0.000020251422     0.000014708231    -0.000685042901
       6       -0.000012118728     0.000411934178     0.000522969014
       7       -0.000008834912    -0.000004740200    -0.000237117375
       8        0.000011150969     0.000000061803     0.000003147655
       9        0.000038276270    -0.000014761788     0.000040305293
      10       -0.000073205919     0.000045504891    -0.000072879006
      11       -0.000004727207    -0.000007318173    -0.000059139610
      12       -0.000054280617     0.000031701730     0.000085839227
      13       -0.000034077690     0.000124974033     0.000148623116
      14       -0.000003848523    -0.000015491296    -0.000046737722
      15       -0.000002099978     0.000013735486     0.000035196737
      16        0.000105335797    -0.000121360329    -0.000040168005
      17       -0.000011713846    -0.000030668803     0.000052392905
      18        0.000003986639     0.000022863830    -0.000040875053


*** tstop() called on cx1-1-1-1.cx1.hpc.ic.ac.uk at Fri Sep  2 11:49:50 2016
Module time:
	user time   =      19.12 seconds =       0.32 minutes
	system time =       0.18 seconds =       0.00 minutes
	total time  =          6 seconds =       0.10 minutes
Total time:
	user time   =      68.87 seconds =       1.15 minutes
	system time =       0.80 seconds =       0.01 minutes
	total time  =         24 seconds =       0.40 minutes
CURRENT ENERGY: -325.0286410035

			-----------------------------------------
			 OPTKING 2.0: for geometry optimizations 
			  - R.A. King,  Bethel University        
			-----------------------------------------

	Previous internal coordinate definitions found.
	---Fragment 1 Geometry and Gradient---
	 H           5.4251194500       -0.8855604030        1.6017380246
	 C           4.5458296775       -0.0455227084       -0.0469220101
	 N           1.8688375261       -0.5789390270       -0.0433820069
	 H           5.4122585212       -0.8673339031       -1.7124061118
	 H           4.9646018426        1.9788677460       -0.0443776832
	 C           0.5991473868        0.4661880805       -2.2375284422
	 C           0.6391127659        0.2510413748        2.2637325519
	 H           0.7623207863        2.5274523394       -2.2992746021
	 H           1.4748560424       -0.2796442801       -3.9360313168
	 C          -2.1792778127       -0.2599087958       -2.1912254501
	 H           1.5420770490       -0.6555544460        3.8666674335
	 H           0.8038014345        2.2969017130        2.5229923369
	 C          -2.1403378536       -0.4695268747        2.1957978802
	 H          -3.1891199851        0.6388062003       -3.7257536769
	 H          -2.3616721968       -2.2989895748       -2.3904350861
	 O          -3.3265433719        0.5367253810        0.0556580570
	 H          -3.1229207354        0.2767409167        3.8267127680
	 H          -2.3201910482       -2.5185575673        2.2018403075
	             0.0000560066        0.0000055881        0.0000171764
	            -0.0001707002        0.0001008419        0.0009028350
	             0.0001553597       -0.0005985835       -0.0006455391
	            -0.0000147597        0.0000210099        0.0000190134
	             0.0000202514        0.0000147082       -0.0006850429
	            -0.0000121187        0.0004119342        0.0005229690
	            -0.0000088349       -0.0000047402       -0.0002371174
	             0.0000111510        0.0000000618        0.0000031477
	             0.0000382763       -0.0000147618        0.0000403053
	            -0.0000732059        0.0000455049       -0.0000728790
	            -0.0000047272       -0.0000073182       -0.0000591396
	            -0.0000542806        0.0000317017        0.0000858392
	            -0.0000340777        0.0001249740        0.0001486231
	            -0.0000038485       -0.0000154913       -0.0000467377
	            -0.0000021000        0.0000137355        0.0000351967
	             0.0001053358       -0.0001213603       -0.0000401680
	            -0.0000117138       -0.0000306688        0.0000523929
	             0.0000039866        0.0000228638       -0.0000408751

	---Fragment 1 Intrafragment Coordinates---
	 - Coordinate -           - BOHR/RAD -       - ANG/DEG -
	 R(1,2)           =         2.048632	       1.084090
	 R(2,3)           =         2.729621	       1.444453
	 R(2,4)           =         2.049368	       1.084479
	 R(2,5)           =         2.067253	       1.093943
	 R(3,6)           =         2.742022	       1.451015
	 R(3,7)           =         2.742967	       1.451516
	 R(6,8)           =         2.068634	       1.094674
	 R(6,9)           =         2.051352	       1.085529
	 R(6,10)          =         2.872108	       1.519854
	 R(7,11)          =         2.051015	       1.085350
	 R(7,12)          =         2.068788	       1.094755
	 R(7,13)          =         2.872138	       1.519870
	 R(10,14)         =         2.045054	       1.082196
	 R(10,15)         =         2.056891	       1.088460
	 R(10,16)         =         2.645625	       1.400004
	 R(13,16)         =         2.645718	       1.400054
	 R(13,17)         =         2.045059	       1.082199
	 R(13,18)         =         2.056918	       1.088474
	 B(1,2,3)         =         1.917456	     109.862157
	 B(1,2,4)         =         1.884015	     107.946130
	 B(1,2,5)         =         1.889788	     108.276872
	 B(2,3,6)         =         1.959079	     112.246952
	 B(2,3,7)         =         1.962362	     112.435034
	 B(3,2,4)         =         1.914862	     109.713501
	 B(3,2,5)         =         1.971464	     112.956541
	 B(3,6,8)         =         1.946743	     111.540181
	 B(3,6,9)         =         1.903184	     109.044430
	 B(3,6,10)        =         1.916316	     109.796822
	 B(3,7,11)        =         1.903104	     109.039831
	 B(3,7,12)        =         1.948674	     111.650816
	 B(3,7,13)        =         1.915634	     109.757724
	 B(4,2,5)         =         1.883938	     107.941685
	 B(6,3,7)         =         1.928495	     110.494607
	 B(6,10,14)       =         1.933169	     110.762450
	 B(6,10,15)       =         1.912233	     109.562905
	 B(6,10,16)       =         1.935924	     110.920295
	 B(7,13,16)       =         1.936487	     110.952555
	 B(7,13,17)       =         1.933227	     110.765762
	 B(7,13,18)       =         1.911836	     109.540138
	 B(8,6,9)         =         1.879578	     107.691864
	 B(8,6,10)        =         1.905720	     109.189710
	 B(9,6,10)        =         1.911766	     109.536100
	 B(10,16,13)      =         1.958477	     112.212477
	 B(11,7,12)       =         1.879828	     107.706195
	 B(11,7,13)       =         1.910953	     109.489544
	 B(12,7,13)       =         1.905091	     109.153693
	 B(14,10,15)      =         1.895674	     108.614117
	 B(14,10,16)      =         1.865868	     106.906347
	 B(15,10,16)      =         1.920166	     110.017424
	 B(16,13,17)      =         1.865954	     106.911276
	 B(16,13,18)      =         1.919891	     110.001663
	 B(17,13,18)      =         1.895639	     108.612099
	 D(1,2,3,6)       =        -3.124018	    -178.993053
	 D(1,2,3,7)       =         0.971919	      55.686870
	 D(2,3,6,8)       =        -1.072944	     -61.475174
	 D(2,3,6,9)       =         1.000662	      57.333687
	 D(2,3,6,10)      =         3.095335	     177.349621
	 D(2,3,7,11)      =        -1.004368	     -57.546057
	 D(2,3,7,12)      =         1.070678	      61.345308
	 D(2,3,7,13)      =        -3.097585	    -177.478531
	 D(3,6,10,14)     =         3.055320	     175.056934
	 D(3,6,10,15)     =        -1.136938	     -65.141739
	 D(3,6,10,16)     =         0.986286	      56.510024
	 D(3,7,13,16)     =        -0.986013	     -56.494375
	 D(3,7,13,17)     =        -3.055551	    -175.070204
	 D(3,7,13,18)     =         1.136968	      65.143472
	 D(4,2,3,6)       =        -1.055472	     -60.474108
	 D(4,2,3,7)       =         3.040465	     174.205815
	*D(5,2,3,6)       =         1.047197	      59.999981
	 D(5,2,3,7)       =        -1.140051	     -65.320096
	 D(6,3,7,11)      =         3.074972	     176.182904
	 D(6,3,7,12)      =        -1.133168	     -64.925731
	 D(6,3,7,13)      =         0.981755	      56.250429
	 D(6,10,16,13)    =        -1.010562	     -57.900947
	 D(7,3,6,8)       =         1.132736	      64.901000
	 D(7,3,6,9)       =        -3.076843	    -176.290140
	 D(7,3,6,10)      =        -0.982170	     -56.274205
	 D(7,13,16,10)    =         1.010855	      57.917727
	 D(8,6,10,14)     =         0.915925	      52.478611
	 D(8,6,10,15)     =         3.006852	     172.279938
	 D(8,6,10,16)     =        -1.153109	     -66.068299
	 D(9,6,10,14)     =        -1.138423	     -65.226810
	 D(9,6,10,15)     =         0.952505	      54.574516
	 D(9,6,10,16)     =         3.075729	     176.226279
	 D(10,16,13,17)   =         3.120598	     178.797094
	 D(10,16,13,18)   =        -1.107401	     -63.449430
	 D(11,7,13,16)    =        -3.074439	    -176.152351
	 D(11,7,13,17)    =         1.139208	      65.271820
	 D(11,7,13,18)    =        -0.951458	     -54.514504
	 D(12,7,13,16)    =         1.154934	      66.172833
	 D(12,7,13,17)    =        -0.914605	     -52.402997
	 D(12,7,13,18)    =        -3.005271	    -172.189320
	 D(13,16,10,14)   =        -3.119853	    -178.754381
	 D(13,16,10,15)   =         1.108007	      63.484121

	Current energy   :      -325.0286410035

	Energy change for the previous step:
		Projected    :        -0.0000031409
		Actual       :        -0.0000049616
	Energy ratio indicates good step: Trust radius increased to 1.000e+00.


	Performing BFGS update.
	Previous computed or guess Hessian on step 1.
	Steps to be used in Hessian update: 1
	Taking RFO optimization step.
	Going to follow RFO solution 1.
	Using RFO vector 1.
	Norm of target step-size    0.00430
	Projected energy change by RFO approximation:        -0.0000013562

	Back-transformation to cartesian coordinates...
	Successfully converged to displaced geometry.

	Back-transformation to cartesian coordinates to adjust frozen coordinates...
	Successfully converged to displaced geometry.

	--- Internal Coordinate Step in ANG or DEG, aJ/ANG or AJ/DEG ---
	 ---------------------------------------------------------------------------
	   Coordinate                Previous        Force       Change         New 
	   ----------                --------       ------       ------       ------
	    1 R(1,2)          =      1.084090    -0.000293    -0.000055     1.084035
	    2 R(2,3)          =      1.444453     0.000656     0.000105     1.444559
	    3 R(2,4)          =      1.084479     0.000248     0.000051     1.084530
	    4 R(2,5)          =      1.093943    -0.000146    -0.000024     1.093919
	    5 R(3,6)          =      1.451015     0.002103     0.000333     1.451349
	    6 R(3,7)          =      1.451516     0.000433     0.000095     1.451611
	    7 R(6,8)          =      1.094674    -0.000007    -0.000006     1.094668
	    8 R(6,9)          =      1.085529     0.000096     0.000018     1.085547
	    9 R(6,10)         =      1.519854    -0.000239    -0.000019     1.519835
	   10 R(7,11)         =      1.085350     0.000371     0.000051     1.085401
	   11 R(7,12)         =      1.094755    -0.000311    -0.000050     1.094706
	   12 R(7,13)         =      1.519870     0.000223     0.000014     1.519885
	   13 R(10,14)        =      1.082196    -0.000249    -0.000034     1.082162
	   14 R(10,15)        =      1.088460     0.000139     0.000016     1.088476
	   15 R(10,16)        =      1.400004     0.000131     0.000004     1.400008
	   16 R(13,16)        =      1.400054     0.000037    -0.000027     1.400027
	   17 R(13,17)        =      1.082199    -0.000298    -0.000042     1.082157
	   18 R(13,18)        =      1.088474     0.000191     0.000025     1.088499
	   19 B(1,2,3)        =    109.862157    -0.000005    -0.017563   109.844594
	   20 B(1,2,4)        =    107.946130     0.000001     0.002750   107.948880
	   21 B(1,2,5)        =    108.276872     0.000003     0.017705   108.294577
	   22 B(2,3,6)        =    112.246952     0.000005     0.010401   112.257353
	   23 B(2,3,7)        =    112.435034    -0.000007    -0.022457   112.412577
	   24 B(3,2,4)        =    109.713501     0.000001     0.003142   109.716643
	   25 B(3,2,5)        =    112.956541    -0.000001    -0.003695   112.952846
	   26 B(3,6,8)        =    111.540181     0.000001    -0.006609   111.533572
	   27 B(3,6,9)        =    109.044430     0.000005     0.028137   109.072567
	   28 B(3,6,10)       =    109.796822    -0.000005     0.000751   109.797573
	   29 B(3,7,11)       =    109.039831     0.000005     0.030187   109.070019
	   30 B(3,7,12)       =    111.650816    -0.000004    -0.045830   111.604986
	   31 B(3,7,13)       =    109.757724    -0.000005    -0.014456   109.743268
	   32 B(4,2,5)        =    107.941685     0.000000    -0.001622   107.940063
	   33 B(6,3,7)        =    110.494607     0.000002     0.016114   110.510720
	   34 B(6,10,14)      =    110.762450    -0.000001    -0.010828   110.751622
	   35 B(6,10,15)      =    109.562905    -0.000000     0.004811   109.567716
	   36 B(6,10,16)      =    110.920295     0.000004     0.013830   110.934124
	   37 B(7,13,16)      =    110.952555     0.000006     0.004268   110.956823
	   38 B(7,13,17)      =    110.765762    -0.000002    -0.019245   110.746517
	   39 B(7,13,18)      =    109.540138    -0.000001     0.015888   109.556026
	   40 B(8,6,9)        =    107.691864    -0.000001    -0.002870   107.688994
	   41 B(8,6,10)       =    109.189710     0.000000    -0.012133   109.177576
	   42 B(9,6,10)       =    109.536100    -0.000000    -0.007395   109.528705
	   43 B(10,16,13)     =    112.212477    -0.000002    -0.019041   112.193437
	   44 B(11,7,12)      =    107.706195    -0.000001     0.007130   107.713325
	   45 B(11,7,13)      =    109.489544     0.000001     0.011671   109.501215
	   46 B(12,7,13)      =    109.153693     0.000005     0.012583   109.166276
	   47 B(14,10,15)     =    108.614117     0.000000    -0.001457   108.612661
	   48 B(14,10,16)     =    106.906347    -0.000003    -0.024483   106.881865
	   49 B(15,10,16)     =    110.017424     0.000001     0.017451   110.034875
	   50 B(16,13,17)     =    106.911276    -0.000005    -0.032314   106.878962
	   51 B(16,13,18)     =    110.001663     0.000001     0.029046   110.030709
	   52 B(17,13,18)     =    108.612099     0.000001     0.001587   108.613686
	   53 D(1,2,3,6)      =   -178.993053     0.000000     0.007658  -178.985394
	   54 D(1,2,3,7)      =     55.686870    -0.000000    -0.004411    55.682459
	   55 D(2,3,6,8)      =    -61.475174     0.000000     0.037118   -61.438056
	   56 D(2,3,6,9)      =     57.333687     0.000001     0.047549    57.381235
	   57 D(2,3,6,10)     =    177.349621     0.000001     0.056268   177.405889
	   58 D(2,3,7,11)     =    -57.546057     0.000000     0.011971   -57.534086
	   59 D(2,3,7,12)     =     61.345308     0.000000     0.012116    61.357425
	   60 D(2,3,7,13)     =   -177.478531     0.000000    -0.012064  -177.490596
	   61 D(3,6,10,14)    =    175.056934    -0.000001    -0.059917   174.997018
	   62 D(3,6,10,15)    =    -65.141739    -0.000001    -0.065427   -65.207166
	   63 D(3,6,10,16)    =     56.510024     0.000000    -0.031285    56.478739
	   64 D(3,7,13,16)    =    -56.494375    -0.000000    -0.031563   -56.525938
	   65 D(3,7,13,17)    =   -175.070204     0.000001     0.018373  -175.051831
	   66 D(3,7,13,18)    =     65.143472     0.000001     0.018288    65.161761
	   67 D(4,2,3,6)      =    -60.474108    -0.000000     0.002316   -60.471792
	   68 D(4,2,3,7)      =    174.205815    -0.000000    -0.009753   174.196062
	   69 *D(5,2,3,6)     =     59.999981    -0.000000    -0.000000    59.999981
	   70 D(5,2,3,7)      =    -65.320096    -0.000000    -0.012069   -65.332166
	   71 D(6,3,7,11)     =    176.182904    -0.000000     0.002728   176.185631
	   72 D(6,3,7,12)     =    -64.925731    -0.000000     0.002873   -64.922858
	   73 D(6,3,7,13)     =     56.250429    -0.000000    -0.021307    56.229122
	   74 D(6,10,16,13)   =    -57.900947    -0.000001    -0.016824   -57.917771
	   75 D(7,3,6,8)      =     64.901000    -0.000001     0.027968    64.928968
	   76 D(7,3,6,9)      =   -176.290140     0.000000     0.038399  -176.251741
	   77 D(7,3,6,10)     =    -56.274205     0.000000     0.047118   -56.227087
	   78 D(7,13,16,10)   =     57.917727     0.000000     0.047132    57.964859
	   79 D(8,6,10,14)    =     52.478611    -0.000000    -0.044312    52.434300
	   80 D(8,6,10,15)    =    172.279938    -0.000000    -0.049822   172.230116
	   81 D(8,6,10,16)    =    -66.068299     0.000000    -0.015679   -66.083978
	   82 D(9,6,10,14)    =    -65.226810     0.000000    -0.029482   -65.256292
	   83 D(9,6,10,15)    =     54.574516    -0.000000    -0.034992    54.539524
	   84 D(9,6,10,16)    =    176.226279     0.000001    -0.000850   176.225430
	   85 D(10,16,13,17)  =    178.797094    -0.000000     0.005878   178.802972
	   86 D(10,16,13,18)  =    -63.449430    -0.000000     0.004839   -63.444591
	   87 D(11,7,13,16)   =   -176.152351    -0.000001    -0.066908  -176.219258
	   88 D(11,7,13,17)   =     65.271820     0.000000    -0.016971    65.254848
	   89 D(11,7,13,18)   =    -54.514504     0.000000    -0.017057   -54.531560
	   90 D(12,7,13,16)   =     66.172833    -0.000001    -0.089594    66.083239
	   91 D(12,7,13,17)   =    -52.402997    -0.000000    -0.039658   -52.442654
	   92 D(12,7,13,18)   =   -172.189320    -0.000000    -0.039743  -172.229062
	   93 D(13,16,10,14)  =   -178.754381    -0.000000     0.003666  -178.750716
	   94 D(13,16,10,15)  =     63.484121     0.000000     0.010062    63.494182
	 ---------------------------------------------------------------------------

  ==> Convergence Check <==

  Measures of convergence in internal coordinates in au.
  Criteria marked as inactive (o), active & met (*), and active & unmet ( ).
  ---------------------------------------------------------------------------------------------
   Step     Total Energy     Delta E     MAX Force     RMS Force      MAX Disp      RMS Disp   
  ---------------------------------------------------------------------------------------------
    Convergence Criteria    1.00e-06 *    3.00e-04 *             o    1.20e-03 *             o
  ---------------------------------------------------------------------------------------------
      2    -325.02864100   -4.96e-06      2.55e-04 *    4.38e-05 o    1.56e-03      4.44e-04 o  ~
  ---------------------------------------------------------------------------------------------

	Writing optimization data to binary file.
	Structure for next step:
	Cartesian Geometry (in Angstrom)
	    H     2.8706171113  -0.4683142147   0.8481393646
	    C     2.4057293065  -0.0237909753  -0.0244485783
	    N     0.9891073007  -0.3065105853  -0.0229576808
	    H     2.8646756101  -0.4585773140  -0.9056604682
	    H     2.6269364723   1.0475279420  -0.0231312432
	    C     0.3169993763   0.2462739226  -1.1844712285
	    C     0.3383876679   0.1325737715   1.1980844218
	    H     0.4035467224   1.3370154611  -1.2175034536
	    H     0.7798008992  -0.1487048159  -2.0834809434
	    C    -1.1534091532  -0.1373530040  -1.1594122808
	    H     0.8161719590  -0.3467410509   2.0466563532
	    H     0.4256635661   1.2152392730   1.3344606105
	    C    -1.1324151499  -0.2488339291   1.1617919761
	    H    -1.6878070734   0.3388827156  -1.9710108882
	    H    -1.2505268571  -1.2162989281  -1.2653538650
	    O    -1.7602018138   0.2843754640   0.0296929736
	    H    -1.6522960559   0.1462700387   2.0247406307
	    H    -1.2278252962  -1.3331382243   1.1650757306
			--------------------------
			 OPTKING Finished Execution 
			--------------------------

    Structure for next step:
    Molecular point group: c1
    Full point group: C1

    Geometry (in Angstrom), charge = 0, multiplicity = 1:

    H            2.870541619280    -0.468284052120     0.848094251031
    C            2.405653849962    -0.023760846674    -0.024493625201
    N            0.989031952353    -0.306480435044    -0.023002727857
    H            2.864600118467    -0.458547152111    -0.905705447859
    H            2.626860998888     1.047557988853    -0.023176290191
    C            0.316924079290     0.246304030633    -1.184516186893
    C            0.338312369273     0.132603888243     1.198039281546
    H            0.403471418717     1.337045485860    -1.217548409410
    H            0.779725566782    -0.148674677696    -2.083525833092
    C           -1.153484338003    -0.137322866677    -1.159457241035
    H            0.816096623885    -0.346710897533     2.046611148070
    H            0.425588260748     1.215269307078     1.334415459787
    C           -1.132490336237    -0.248803783242     1.161746838583
    H           -1.687882217323     0.338912816579    -1.971055786507
    H           -1.250602034437    -1.216268708326    -1.265398817224
    O           -1.760276952172     0.284405569133     0.029647922520
    H           -1.652371202528     0.146300154401     2.024695427237
    H           -1.227900475237    -1.333107995690     1.165030592801

gradient() will perform analytic gradient computation.

*** tstart() called on cx1-1-1-1.cx1.hpc.ic.ac.uk
*** at Fri Sep  2 11:49:50 2016


         ---------------------------------------------------------
                                   SCF
            by Justin Turney, Rob Parrish, and Andy Simmonett
                              RHF Reference
                        4 Threads,   2000 MiB Core
         ---------------------------------------------------------

  ==> Geometry <==

    Molecular point group: c1
    Full point group: C1

    Geometry (in Angstrom), charge = 0, multiplicity = 1:

       Center              X                  Y                   Z               Mass       
    ------------   -----------------  -----------------  -----------------  -----------------
           H          2.870541619280    -0.468284052120     0.848094251031     1.007825032070
           C          2.405653849962    -0.023760846674    -0.024493625201    12.000000000000
           N          0.989031952353    -0.306480435044    -0.023002727857    14.003074004780
           H          2.864600118467    -0.458547152111    -0.905705447859     1.007825032070
           H          2.626860998888     1.047557988853    -0.023176290191     1.007825032070
           C          0.316924079290     0.246304030633    -1.184516186893    12.000000000000
           C          0.338312369273     0.132603888243     1.198039281546    12.000000000000
           H          0.403471418717     1.337045485860    -1.217548409410     1.007825032070
           H          0.779725566782    -0.148674677696    -2.083525833092     1.007825032070
           C         -1.153484338003    -0.137322866677    -1.159457241035    12.000000000000
           H          0.816096623885    -0.346710897533     2.046611148070     1.007825032070
           H          0.425588260748     1.215269307078     1.334415459787     1.007825032070
           C         -1.132490336237    -0.248803783242     1.161746838583    12.000000000000
           H         -1.687882217323     0.338912816579    -1.971055786507     1.007825032070
           H         -1.250602034437    -1.216268708326    -1.265398817224     1.007825032070
           O         -1.760276952172     0.284405569133     0.029647922520    15.994914619560
           H         -1.652371202528     0.146300154401     2.024695427237     1.007825032070
           H         -1.227900475237    -1.333107995690     1.165030592801     1.007825032070

  Running in c1 symmetry.

  Rotational constants: A =      0.16250  B =      0.07904  C =      0.05780 [cm^-1]
  Rotational constants: A =   4871.74216  B =   2369.68914  C =   1732.94456 [MHz]
  Nuclear repulsion =  341.516581636609601

  Charge       = 0
  Multiplicity = 1
  Electrons    = 56
  Nalpha       = 28
  Nbeta        = 28

  ==> Algorithm <==

  SCF Algorithm Type is DF.
  DIIS enabled.
  MOM disabled.
  Fractional occupation disabled.
  Guess Type is READ.
  Energy threshold   = 1.00e-08
  Density threshold  = 1.00e-08
  Integral threshold = 0.00e+00

  ==> Primary Basis <==

  Basis Set: 6-31G*
    Number of shells: 64
    Number of basis function: 127
    Number of Cartesian functions: 127
    Spherical Harmonics?: false
    Max angular momentum: 2

  ==> Pre-Iterations <==

   -------------------------------------------------------
    Irrep   Nso     Nmo     Nalpha   Nbeta   Ndocc  Nsocc
   -------------------------------------------------------
     A        127     127       0       0       0       0
   -------------------------------------------------------
    Total     127     127      28      28      28       0
   -------------------------------------------------------

 OEINTS: Overlap, kinetic, potential, dipole, and quadrupole integrals
         stored in file 35.

  ==> Integral Setup <==

  ==> DFJK: Density-Fitted J/K Matrices <==

    J tasked:                  Yes
    K tasked:                  Yes
    wK tasked:                  No
    OpenMP threads:              4
    Integrals threads:           4
    Memory (MB):              1430
    Algorithm:                Core
    Integral Cache:           NONE
    Schwarz Cutoff:          1E-12
    Fitting Condition:       1E-12

   => Auxiliary Basis Set <=

  Basis Set: 
    Number of shells: 267
    Number of basis function: 842
    Number of Cartesian functions: 842
    Spherical Harmonics?: false
    Max angular momentum: 3

  Minimum eigenvalue in the overlap matrix is 3.2355792076E-03.
  Using Symmetric Orthogonalization.
  SCF Guess: Reading in previously saved MOs, projecting if necessary.

  Using orbitals from previous SCF, no projection.
  Recomputing DOCC and SOCC from number of alpha and beta electrons from previous calculation.
              A 
    DOCC [    28 ]

  ==> Iterations <==

                           Total Energy        Delta E     RMS |[F,P]|

   @DF-RHF iter   0:  -325.02851052595889   -3.25029e+02   1.31313e-05 
   @DF-RHF iter   1:  -325.02864137845330   -1.30852e-04   1.96529e-06 
   @DF-RHF iter   2:  -325.02864142967513   -5.12218e-08   7.62330e-07 DIIS
   @DF-RHF iter   3:  -325.02864143655569   -6.88055e-09   3.81899e-07 DIIS
   @DF-RHF iter   4:  -325.02864143812002   -1.56433e-09   5.49080e-08 DIIS
   @DF-RHF iter   5:  -325.02864143817482   -5.47971e-11   2.00295e-08 DIIS
   @DF-RHF iter   6:  -325.02864143818232   -7.50333e-12   6.55318e-09 DIIS

  ==> Post-Iterations <==

    Orbital Energies (a.u.)
    -----------------------

    Doubly Occupied:                                                      

       1A    -20.554089     2A    -15.549587     3A    -11.266343  
       4A    -11.266311     5A    -11.244154     6A    -11.244138  
       7A    -11.241149     8A     -1.383508     9A     -1.232571  
      10A     -1.038546    11A     -0.981330    12A     -0.882924  
      13A     -0.868981    14A     -0.774804    15A     -0.683630  
      16A     -0.645611    17A     -0.643492    18A     -0.634302  
      19A     -0.629119    20A     -0.571863    21A     -0.557300  
      22A     -0.540082    23A     -0.527488    24A     -0.502063  
      25A     -0.484160    26A     -0.452459    27A     -0.407975  
      28A     -0.353819  

    Virtual:                                                              

      29A      0.232941    30A      0.258275    31A      0.273323  
      32A      0.284407    33A      0.309157    34A      0.310974  
      35A      0.322982    36A      0.325679    37A      0.334454  
      38A      0.344528    39A      0.346224    40A      0.359410  
      41A      0.386761    42A      0.430366    43A      0.436728  
      44A      0.452504    45A      0.465414    46A      0.480344  
[...]
	 R(1,2)           =         2.048529	       1.084035
	 R(2,3)           =         2.729821	       1.444559
	 R(2,4)           =         2.049464	       1.084530
	 R(2,5)           =         2.067207	       1.093919
	 R(3,6)           =         2.742652	       1.451349
	 R(3,7)           =         2.743147	       1.451611
	 R(6,8)           =         2.068623	       1.094668
	 R(6,9)           =         2.051386	       1.085547
	 R(6,10)          =         2.872072	       1.519835
	 R(7,11)          =         2.051110	       1.085401
	 R(7,12)          =         2.068693	       1.094706
	 R(7,13)          =         2.872166	       1.519885
	 R(10,14)         =         2.044989	       1.082162
	 R(10,15)         =         2.056921	       1.088476
	 R(10,16)         =         2.645632	       1.400008
	 R(13,16)         =         2.645668	       1.400027
	 R(13,17)         =         2.044980	       1.082157
	 R(13,18)         =         2.056965	       1.088499
	 B(1,2,3)         =         1.917150	     109.844594
	 B(1,2,4)         =         1.884063	     107.948880
	 B(1,2,5)         =         1.890097	     108.294577
	 B(2,3,6)         =         1.959260	     112.257353
	 B(2,3,7)         =         1.961970	     112.412577
	 B(3,2,4)         =         1.914917	     109.716643
	 B(3,2,5)         =         1.971399	     112.952846
	 B(3,6,8)         =         1.946628	     111.533572
	 B(3,6,9)         =         1.903675	     109.072567
	 B(3,6,10)        =         1.916329	     109.797573
	 B(3,7,11)        =         1.903631	     109.070019
	 B(3,7,12)        =         1.947874	     111.604986
	 B(3,7,13)        =         1.915381	     109.743268
	 B(4,2,5)         =         1.883909	     107.940063
	 B(6,3,7)         =         1.928776	     110.510720
	 B(6,10,14)       =         1.932980	     110.751622
	 B(6,10,15)       =         1.912317	     109.567716
	 B(6,10,16)       =         1.936166	     110.934124
	 B(7,13,16)       =         1.936562	     110.956823
	 B(7,13,17)       =         1.932891	     110.746517
	 B(7,13,18)       =         1.912113	     109.556026
	 B(8,6,9)         =         1.879528	     107.688994
	 B(8,6,10)        =         1.905508	     109.177576
	 B(9,6,10)        =         1.911637	     109.528705
	 B(10,16,13)      =         1.958145	     112.193437
	 B(11,7,12)       =         1.879952	     107.713325
	 B(11,7,13)       =         1.911157	     109.501215
	 B(12,7,13)       =         1.905311	     109.166276
	 B(14,10,15)      =         1.895649	     108.612661
	 B(14,10,16)      =         1.865440	     106.881865
	 B(15,10,16)      =         1.920471	     110.034875
	 B(16,13,17)      =         1.865390	     106.878962
	 B(16,13,18)      =         1.920398	     110.030709
	 B(17,13,18)      =         1.895666	     108.613686
	 D(1,2,3,6)       =        -3.123884	    -178.985394
	 D(1,2,3,7)       =         0.971842	      55.682459
	 D(2,3,6,8)       =        -1.072296	     -61.438056
	 D(2,3,6,9)       =         1.001491	      57.381235
	 D(2,3,6,10)      =         3.096317	     177.405889
	 D(2,3,7,11)      =        -1.004159	     -57.534086
	 D(2,3,7,12)      =         1.070889	      61.357425
	 D(2,3,7,13)      =        -3.097795	    -177.490596
	 D(3,6,10,14)     =         3.054274	     174.997018
	 D(3,6,10,15)     =        -1.138080	     -65.207166
	 D(3,6,10,16)     =         0.985740	      56.478739
	 D(3,7,13,16)     =        -0.986564	     -56.525938
	 D(3,7,13,17)     =        -3.055231	    -175.051831
	 D(3,7,13,18)     =         1.137287	      65.161761
	 D(4,2,3,6)       =        -1.055432	     -60.471792
	 D(4,2,3,7)       =         3.040295	     174.196062
	*D(5,2,3,6)       =         1.047197	      59.999981
	 D(5,2,3,7)       =        -1.140261	     -65.332166
	 D(6,3,7,11)      =         3.075019	     176.185631
	 D(6,3,7,12)      =        -1.133118	     -64.922858
	 D(6,3,7,13)      =         0.981383	      56.229122
	 D(6,10,16,13)    =        -1.010856	     -57.917771
	 D(7,3,6,8)       =         1.133224	      64.928968
	 D(7,3,6,9)       =        -3.076173	    -176.251741
	 D(7,3,6,10)      =        -0.981348	     -56.227087
	 D(7,13,16,10)    =         1.011678	      57.964859
	 D(8,6,10,14)     =         0.915151	      52.434300
	 D(8,6,10,15)     =         3.005983	     172.230116
	 D(8,6,10,16)     =        -1.153383	     -66.083978
	 D(9,6,10,14)     =        -1.138937	     -65.256292
	 D(9,6,10,15)     =         0.951894	      54.539524
	 D(9,6,10,16)     =         3.075714	     176.225430
	 D(10,16,13,17)   =         3.120701	     178.802972
	 D(10,16,13,18)   =        -1.107317	     -63.444591
	 D(11,7,13,16)    =        -3.075606	    -176.219258
	 D(11,7,13,17)    =         1.138912	      65.254848
	 D(11,7,13,18)    =        -0.951755	     -54.531560
	 D(12,7,13,16)    =         1.153370	      66.083239
	 D(12,7,13,17)    =        -0.915297	     -52.442654
	 D(12,7,13,18)    =        -3.005964	    -172.229062
	 D(13,16,10,14)   =        -3.119789	    -178.750716
	 D(13,16,10,15)   =         1.108183	      63.494182

	Current energy   :      -325.0286414382

	Energy change for the previous step:
		Projected    :        -0.0000013562
		Actual       :        -0.0000004347

	Performing BFGS update.
	Previous computed or guess Hessian on step 1.
	Steps to be used in Hessian update: 2 1
	Taking RFO optimization step.
	Going to follow RFO solution 1.
	Using RFO vector 1.
	Norm of target step-size    0.00117
	Projected energy change by RFO approximation:         0.0000000609

	Back-transformation to cartesian coordinates...
	Successfully converged to displaced geometry.

	Back-transformation to cartesian coordinates to adjust frozen coordinates...
	Successfully converged to displaced geometry.

	--- Internal Coordinate Step in ANG or DEG, aJ/ANG or AJ/DEG ---
	 ---------------------------------------------------------------------------
	   Coordinate                Previous        Force       Change         New 
	   ----------                --------       ------       ------       ------
	    1 R(1,2)          =      1.084035    -0.000029    -0.000008     1.084027
	    2 R(2,3)          =      1.444559     0.000150     0.000028     1.444587
	    3 R(2,4)          =      1.084530    -0.000017     0.000001     1.084531
	    4 R(2,5)          =      1.093919    -0.000054    -0.000010     1.093909
	    5 R(3,6)          =      1.451349     0.000043     0.000016     1.451365
	    6 R(3,7)          =      1.451611     0.000242     0.000044     1.451655
	    7 R(6,8)          =      1.094668     0.000005     0.000000     1.094669
	    8 R(6,9)          =      1.085547    -0.000105    -0.000015     1.085532
	    9 R(6,10)         =      1.519835    -0.000015    -0.000011     1.519824
	   10 R(7,11)         =      1.085401    -0.000051    -0.000005     1.085396
	   11 R(7,12)         =      1.094706    -0.000056    -0.000012     1.094693
	   12 R(7,13)         =      1.519885    -0.000057    -0.000002     1.519883
	   13 R(10,14)        =      1.082162     0.000030     0.000002     1.082164
	   14 R(10,15)        =      1.088476     0.000018     0.000004     1.088480
	   15 R(10,16)        =      1.400008     0.000127     0.000013     1.400022
	   16 R(13,16)        =      1.400027     0.000003     0.000008     1.400035
	   17 R(13,17)        =      1.082157     0.000092     0.000012     1.082168
	   18 R(13,18)        =      1.088499    -0.000063    -0.000008     1.088490
	   19 B(1,2,3)        =    109.844594    -0.000001    -0.009480   109.835113
	   20 B(1,2,4)        =    107.948880     0.000000     0.000978   107.949859
	   21 B(1,2,5)        =    108.294577     0.000000    -0.003376   108.291200
	   22 B(2,3,6)        =    112.257353     0.000001     0.004037   112.261390
	   23 B(2,3,7)        =    112.412577    -0.000000    -0.005437   112.407140
	   24 B(3,2,4)        =    109.716643     0.000000     0.005020   109.721664
	   25 B(3,2,5)        =    112.952846    -0.000000    -0.001705   112.951141
	   26 B(3,6,8)        =    111.533572     0.000000     0.003054   111.536626
	   27 B(3,6,9)        =    109.072567    -0.000001    -0.008957   109.063611
	   28 B(3,6,10)       =    109.797573    -0.000000    -0.006465   109.791108
	   29 B(3,7,11)       =    109.070019    -0.000001    -0.009735   109.060283
	   30 B(3,7,12)       =    111.604986     0.000000     0.002902   111.607888
	   31 B(3,7,13)       =    109.743268     0.000001     0.005733   109.749001
	   32 B(4,2,5)        =    107.940063     0.000001     0.008880   107.948943
	   33 B(6,3,7)        =    110.510720    -0.000001    -0.003075   110.507645
	   34 B(6,10,14)      =    110.751622    -0.000001    -0.004446   110.747176
	   35 B(6,10,15)      =    109.567716     0.000001     0.003319   109.571035
	   36 B(6,10,16)      =    110.934124    -0.000000     0.000273   110.934398
	   37 B(7,13,16)      =    110.956823    -0.000001    -0.000291   110.956533
	   38 B(7,13,17)      =    110.746517     0.000000     0.003116   110.749633
	   39 B(7,13,18)      =    109.556026    -0.000000    -0.004929   109.551096
	   40 B(8,6,9)        =    107.688994     0.000000     0.004543   107.693537
	   41 B(8,6,10)       =    109.177576     0.000000     0.007915   109.185491
	   42 B(9,6,10)       =    109.528705     0.000001     0.000066   109.528771
	   43 B(10,16,13)     =    112.193437     0.000001     0.004181   112.197617
	   44 B(11,7,12)      =    107.713325     0.000000     0.000400   107.713725
	   45 B(11,7,13)      =    109.501215    -0.000000     0.000027   109.501242
	   46 B(12,7,13)      =    109.166276    -0.000000     0.000509   109.166785
	   47 B(14,10,15)     =    108.612661    -0.000000    -0.000792   108.611868
	   48 B(14,10,16)     =    106.881865     0.000001     0.006292   106.888156
	   49 B(15,10,16)     =    110.034875    -0.000001    -0.004722   110.030152
	   50 B(16,13,17)     =    106.878962     0.000002     0.009591   106.888553
	   51 B(16,13,18)     =    110.030709    -0.000001    -0.006991   110.023718
	   52 B(17,13,18)     =    108.613686    -0.000000    -0.000253   108.613433
	   53 D(1,2,3,6)      =   -178.985394    -0.000000    -0.012210  -178.997605
	   54 D(1,2,3,7)      =     55.682459    -0.000000    -0.006978    55.675481
	   55 D(2,3,6,8)      =    -61.438056     0.000000     0.003926   -61.434130
	   56 D(2,3,6,9)      =     57.381235     0.000000     0.005676    57.386911
	   57 D(2,3,6,10)     =    177.405889     0.000000    -0.003680   177.402209
	   58 D(2,3,7,11)     =    -57.534086     0.000000    -0.002320   -57.536406
	   59 D(2,3,7,12)     =     61.357425     0.000000    -0.006305    61.351120
	   60 D(2,3,7,13)     =   -177.490596     0.000000     0.000147  -177.490448
	   61 D(3,6,10,14)    =    174.997018     0.000000     0.018061   175.015079
	   62 D(3,6,10,15)    =    -65.207166     0.000000     0.016418   -65.190748
	   63 D(3,6,10,16)    =     56.478739     0.000000     0.012892    56.491631
	   64 D(3,7,13,16)    =    -56.525938     0.000000     0.013643   -56.512294
	   65 D(3,7,13,17)    =   -175.051831    -0.000000    -0.000133  -175.051964
	   66 D(3,7,13,18)    =     65.161761    -0.000000     0.001383    65.163144
	   67 D(4,2,3,6)      =    -60.471792    -0.000000    -0.013700   -60.485492
	   68 D(4,2,3,7)      =    174.196062    -0.000000    -0.008469   174.187593
	   69 *D(5,2,3,6)     =     59.999981    -0.000000    -0.000000    59.999981
	   70 D(5,2,3,7)      =    -65.332166     0.000000     0.005232   -65.326934
	   71 D(6,3,7,11)     =    176.185631     0.000000    -0.001086   176.184546
	   72 D(6,3,7,12)     =    -64.922858    -0.000000    -0.005071   -64.927929
	   73 D(6,3,7,13)     =     56.229122     0.000000     0.001381    56.230503
	   74 D(6,10,16,13)   =    -57.917771    -0.000000    -0.002513   -57.920284
	   75 D(7,3,6,8)      =     64.928968     0.000000    -0.002594    64.926375
	   76 D(7,3,6,9)      =   -176.251741    -0.000000    -0.000844  -176.252584
	   77 D(7,3,6,10)     =    -56.227087    -0.000000    -0.010200   -56.237287
	   78 D(7,13,16,10)   =     57.964859    -0.000000    -0.014147    57.950712
	   79 D(8,6,10,14)    =     52.434300     0.000000     0.013284    52.447584
	   80 D(8,6,10,15)    =    172.230116     0.000000     0.011641   172.241757
	   81 D(8,6,10,16)    =    -66.083978     0.000000     0.008115   -66.075863
	   82 D(9,6,10,14)    =    -65.256292    -0.000000     0.003138   -65.253154
	   83 D(9,6,10,15)    =     54.539524    -0.000000     0.001495    54.541019
	   84 D(9,6,10,16)    =    176.225430    -0.000000    -0.002031   176.223399
	   85 D(10,16,13,17)  =    178.802972     0.000000    -0.004502   178.798471
	   86 D(10,16,13,18)  =    -63.444591     0.000000    -0.003059   -63.447651
	   87 D(11,7,13,16)   =   -176.219258     0.000000     0.022055  -176.197204
	   88 D(11,7,13,17)   =     65.254848     0.000000     0.008278    65.263127
	   89 D(11,7,13,18)   =    -54.531560     0.000000     0.009795   -54.521765
	   90 D(12,7,13,16)   =     66.083239     0.000000     0.021259    66.104498
	   91 D(12,7,13,17)   =    -52.442654    -0.000000     0.007483   -52.435171
	   92 D(12,7,13,18)   =   -172.229062    -0.000000     0.008999  -172.220063
	   93 D(13,16,10,14)  =   -178.750716     0.000000    -0.001198  -178.751914
	   94 D(13,16,10,15)  =     63.494182     0.000000    -0.001325    63.492857
	 ---------------------------------------------------------------------------

  ==> Convergence Check <==

  Measures of convergence in internal coordinates in au.
  Criteria marked as inactive (o), active & met (*), and active & unmet ( ).
  ---------------------------------------------------------------------------------------------
   Step     Total Energy     Delta E     MAX Force     RMS Force      MAX Disp      RMS Disp   
  ---------------------------------------------------------------------------------------------
    Convergence Criteria    1.00e-06 *    3.00e-04 *             o    1.20e-03 *             o
  ---------------------------------------------------------------------------------------------
      3    -325.02864144   -4.35e-07 *    2.93e-05 *    9.30e-06 o    3.85e-04 *    1.21e-04 o  ~
  ---------------------------------------------------------------------------------------------


  **** Optimization is complete! (in 3 steps) ****

  ==> Optimization Summary <==

  Measures of convergence in internal coordinates in au.
  --------------------------------------------------------------------------------------------------------------- ~
   Step         Total Energy             Delta E       MAX Force       RMS Force        MAX Disp        RMS Disp  ~
  --------------------------------------------------------------------------------------------------------------- ~
      1    -325.028636041857   -325.028636041857      0.00029126      0.00008846      0.01074381      0.00236848  ~
      2    -325.028641003496     -0.000004961639      0.00025520      0.00004383      0.00156370      0.00044364  ~
      3    -325.028641438182     -0.000000434686      0.00002935      0.00000930      0.00038493      0.00012082  ~
  --------------------------------------------------------------------------------------------------------------- ~

	Writing optimization data to binary file.
	Final energy is   -325.0286414381823
	Final (previous) structure:
	Cartesian Geometry (in Angstrom)
	    H     2.8705418385  -0.4682840879   0.8480943158
	    C     2.4056540337  -0.0237608485  -0.0244936271
	    N     0.9890320279  -0.3064804584  -0.0230027296
	    H     2.8646003372  -0.4585471871  -0.9057055170
	    H     2.6268611995   1.0475580688  -0.0231762920
	    C     0.3169241035   0.2463040494  -1.1845162773
	    C     0.3383123951   0.1326038984   1.1980393730
	    H     0.4034714495   1.3370455880  -1.2175485024
	    H     0.7797256263  -0.1486746890  -2.0835259922
	    C    -1.1534844261  -0.1373228772  -1.1594573296
	    H     0.8160966862  -0.3467109240   2.0466113044
	    H     0.4255882932   1.2152693999   1.3344155617
	    C    -1.1324904227  -0.2488038022   1.1617469273
	    H    -1.6878823462   0.3389128425  -1.9710559370
	    H    -1.2506021299  -1.2162688012  -1.2653989139
	    O    -1.7602770866   0.2844055909   0.0296479248
	    H    -1.6523713287   0.1463001656   2.0246955819
	    H    -1.2279005690  -1.3331080975   1.1650306818
	Saving final (previous) structure.
			--------------------------
			 OPTKING Finished Execution 
			--------------------------

    Final optimized geometry and variables:
    Molecular point group: c1
    Full point group: C1

    Geometry (in Angstrom), charge = 0, multiplicity = 1:

    H            2.870541619280    -0.468284052120     0.848094251031
    C            2.405653849962    -0.023760846674    -0.024493625201
    N            0.989031952353    -0.306480435044    -0.023002727857
    H            2.864600118467    -0.458547152111    -0.905705447859
    H            2.626860998888     1.047557988853    -0.023176290191
    C            0.316924079290     0.246304030633    -1.184516186893
    C            0.338312369273     0.132603888243     1.198039281546
    H            0.403471418717     1.337045485860    -1.217548409410
    H            0.779725566782    -0.148674677696    -2.083525833092
    C           -1.153484338003    -0.137322866677    -1.159457241035
    H            0.816096623885    -0.346710897533     2.046611148070
    H            0.425588260748     1.215269307078     1.334415459787
    C           -1.132490336237    -0.248803783242     1.161746838583
    H           -1.687882217323     0.338912816579    -1.971055786507
    H           -1.250602034437    -1.216268708326    -1.265398817224
    O           -1.760276952172     0.284405569133     0.029647922520
    H           -1.652371202528     0.146300154401     2.024695427237
    H           -1.227900475237    -1.333107995690     1.165030592801

	Cleaning optimization helper files.


Properties will be evaluated at   0.000000,   0.000000,   0.000000 Bohr

Properties computed using the  density matrix

  Nuclear Dipole Moment: (a.u.)
     X:     4.6461      Y:     0.1087      Z:    -0.0444

  Electronic Dipole Moment: (a.u.)
     X:    -4.0877      Y:    -0.1468      Z:     0.0396

  Dipole Moment: (a.u.)
     X:     0.5585      Y:    -0.0382      Z:    -0.0048     Total:     0.5598

  Dipole Moment: (Debye)
     X:     1.4195      Y:    -0.0970      Z:    -0.0122     Total:     1.4229

  Quadrupole Moment: (Debye Ang)
    XX:   -46.9246     YY:   -45.9670     ZZ:   -39.4835
    XY:     1.9426     XZ:     0.1843     YZ:    -0.3256

  Traceless Quadrupole Moment: (Debye Ang)
    XX:    -2.7995     YY:    -1.8420     ZZ:     4.6415
    XY:     1.9426     XZ:     0.1843     YZ:    -0.3256

  Mulliken Charges: (a.u.)
   Center  Symbol    Alpha    Beta     Spin     Total
       1     H     0.41596  0.41596  0.00000  0.16807
       2     C     3.14036  3.14036  0.00000 -0.28071
       3     N     3.78739  3.78739  0.00000 -0.57479
       4     H     0.41570  0.41570  0.00000  0.16860
       5     H     0.43234  0.43234  0.00000  0.13532
       6     C     3.06853  3.06853  0.00000 -0.13705
       7     C     3.06846  3.06846  0.00000 -0.13691
       8     H     0.42815  0.42815  0.00000  0.14370
       9     H     0.41674  0.41674  0.00000  0.16653
      10     C     2.99756  2.99756  0.00000  0.00487
      11     H     0.41675  0.41675  0.00000  0.16649
      12     H     0.42825  0.42825  0.00000  0.14350
      13     C     2.99764  2.99764  0.00000  0.00473
      14     H     0.41322  0.41322  0.00000  0.17357
      15     H     0.42387  0.42387  0.00000  0.15227
      16     O     4.31199  4.31199  0.00000 -0.62399
      17     H     0.41322  0.41322  0.00000  0.17355
      18     H     0.42387  0.42387  0.00000  0.15225

   Total alpha = 28.00000, Total beta = 28.00000, Total charge =  0.00000


*** PSI4 exiting successfully. Buy a developer a beer!
