    -----------------------------------------------------------------------
          Psi4: An Open-Source Ab Initio Electronic Structure Package
                              Psi4 1.0.54 Driver

                          Git: Rev {master} 8d4cec3 dirty

    J. M. Turney, A. C. Simmonett, R. M. Parrish, E. G. Hohenstein,
    F. A. Evangelista, J. T. Fermann, B. J. Mintz, L. A. Burns, J. J. Wilke,
    M. L. Abrams, N. J. Russ, M. L. Leininger, C. L. Janssen, E. T. Seidl,
    W. D. Allen, H. F. Schaefer, R. A. King, E. F. Valeev, C. D. Sherrill,
    and T. D. Crawford, WIREs Comput. Mol. Sci. 2, 556-565 (2012)
    (doi: 10.1002/wcms.93)

                         Additional Contributions by
    A. E. DePrince, U. Bozkaya, A. Yu. Sokolov, D. G. A. Smith, R. Di Remigio,
    R. M. Richard, J. F. Gonthier, H. R. McAlexander, M. Saitow, and
    B. P. Pritchard
    -----------------------------------------------------------------------


    Psi4 started on: Sat Sep 10 15:45:40 2016

    Process ID:   5375
    PSI4DATADIR: /export131/home/mjharvey/miniconda3/share/psi4
    Memory level set to 256.000 MB

  ==> Input File <==

--------------------------------------------------------------------------
set {
	reference rhf
	basis cc-pvtz
}


set_num_threads( 4 )
memory 2 gb

molecule MOL {
0 1

H	 -1.875448	 0.780214	 -0.853968
N	 -1.851927	 0.161443	 -0.071573
C	 -0.561396	 -0.500007	 0.035200
H	 -2.584443	 -0.504943	 -0.200745
C	 0.575129	 0.507849	 -0.048832
H	 -0.478089	 -1.200753	 -0.788956
H	 -0.456191	 -1.081816	 0.952176
C	 1.951750	 -0.141983	 0.035101
H	 0.478254	 1.061643	 -0.975981
H	 0.467676	 1.231891	 0.755499
H	 2.101550	 -0.848142	 -0.774949
H	 2.738260	 0.600794	 -0.026526
H	 2.078939	 -0.679792	 0.968824

	symmetry c1
}
set optking {
	frozen_dihedral = ("
		1 2 3 6
	")
}

ee,wfn = optimize('scf', return_wfn=True)
oeprop( wfn, 'DIPOLE', 'QUADRUPOLE', 'MULLIKEN_CHARGES')
f=open( 'psi4out.xyz', 'w' )
f.write( "13  " )
f.write( str(ee) + "\n" )
f.write( MOL.save_string_xyz() )
f.close()
--------------------------------------------------------------------------

  Memory set to   2.000 GiB by Python script.
gradient() will perform analytic gradient computation.

*** tstart() called on cx1-28-12-4
*** at Sat Sep 10 15:45:40 2016


         ---------------------------------------------------------
                                   SCF
            by Justin Turney, Rob Parrish, and Andy Simmonett
                              RHF Reference
                        4 Threads,   2000 MiB Core
         ---------------------------------------------------------

  ==> Geometry <==

    Molecular point group: c1
    Full point group: C1

    Geometry (in Angstrom), charge = 0, multiplicity = 1:

       Center              X                  Y                   Z               Mass       
    ------------   -----------------  -----------------  -----------------  -----------------
           H         -1.877868120250     0.780127883852    -0.825247308577     1.007825032070
           N         -1.854347120250     0.161356883852    -0.042852308577    14.003074004780
           C         -0.563816120250    -0.500093116148     0.063920691423    12.000000000000
           H         -2.586863120250    -0.505029116148    -0.172024308577     1.007825032070
           C          0.572708879750     0.507762883852    -0.020111308577    12.000000000000
           H         -0.480509120250    -1.200839116148    -0.760235308577     1.007825032070
           H         -0.458611120250    -1.081902116148     0.980896691423     1.007825032070
           C          1.949329879750    -0.142069116148     0.063821691423    12.000000000000
           H          0.475833879750     1.061556883852    -0.947260308577     1.007825032070
           H          0.465255879750     1.231804883852     0.784219691423     1.007825032070
           H          2.099129879750    -0.848228116148    -0.746228308577     1.007825032070
           H          2.735839879750     0.600707883852     0.002194691423     1.007825032070
           H          2.076518879750    -0.679878116148     0.997544691423     1.007825032070

  Running in c1 symmetry.

  Rotational constants: A =      0.85340  B =      0.12556  C =      0.11720 [cm^-1]
  Rotational constants: A =  25584.16485  B =   3764.06053  C =   3513.46852 [MHz]
  Nuclear repulsion =  132.079094537701593

  Charge       = 0
  Multiplicity = 1
  Electrons    = 34
  Nalpha       = 17
  Nbeta        = 17

  ==> Algorithm <==

  SCF Algorithm Type is DF.
  DIIS enabled.
  MOM disabled.
  Fractional occupation disabled.
  Guess Type is SAD.
  Energy threshold   = 1.00e-08
  Density threshold  = 1.00e-08
  Integral threshold = 0.00e+00

  ==> Primary Basis <==

  Basis Set: CC-PVTZ
    Number of shells: 94
    Number of basis function: 246
    Number of Cartesian functions: 275
    Spherical Harmonics?: true
    Max angular momentum: 3

  ==> Pre-Iterations <==

   -------------------------------------------------------
    Irrep   Nso     Nmo     Nalpha   Nbeta   Ndocc  Nsocc
   -------------------------------------------------------
     A        246     246       0       0       0       0
   -------------------------------------------------------
    Total     246     246      17      17      17       0
   -------------------------------------------------------

  ==> Integral Setup <==

  ==> DFJK: Density-Fitted J/K Matrices <==

    J tasked:                  Yes
    K tasked:                  Yes
    wK tasked:                  No
    OpenMP threads:              4
    Integrals threads:           4
    Memory (MB):              1430
    Algorithm:                Core
    Integral Cache:           NONE
    Schwarz Cutoff:          1E-12
    Fitting Condition:       1E-12

   => Auxiliary Basis Set <=

  Basis Set: 
    Number of shells: 190
    Number of basis function: 586
    Number of Cartesian functions: 699
    Spherical Harmonics?: true
    Max angular momentum: 4

  Minimum eigenvalue in the overlap matrix is 5.7273343417E-04.
  Using Symmetric Orthogonalization.
  SCF Guess: Superposition of Atomic Densities via on-the-fly atomic UHF.

  ==> Iterations <==

                           Total Energy        Delta E     RMS |[F,P]|

   @DF-RHF iter   0:  -175.11146846418208   -1.75111e+02   1.64854e-02 
   @DF-RHF iter   1:  -173.27235586021621    1.83911e+00   1.32198e-03 
   @DF-RHF iter   2:  -173.34224874289080   -6.98929e-02   4.34511e-04 DIIS
   @DF-RHF iter   3:  -173.34905071258291   -6.80197e-03   1.64922e-04 DIIS
   @DF-RHF iter   4:  -173.35027782799878   -1.22712e-03   3.46175e-05 DIIS
   @DF-RHF iter   5:  -173.35034424019315   -6.64122e-05   9.54318e-06 DIIS
   @DF-RHF iter   6:  -173.35034967308630   -5.43289e-06   2.91197e-06 DIIS
   @DF-RHF iter   7:  -173.35035011300462   -4.39918e-07   8.29050e-07 DIIS
   @DF-RHF iter   8:  -173.35035015959957   -4.65949e-08   2.01417e-07 DIIS
   @DF-RHF iter   9:  -173.35035016311943   -3.51986e-09   5.79430e-08 DIIS
   @DF-RHF iter  10:  -173.35035016343122   -3.11786e-10   1.62183e-08 DIIS
   @DF-RHF iter  11:  -173.35035016345122   -2.00089e-11   4.49514e-09 DIIS

  ==> Post-Iterations <==

    Orbital Energies (a.u.)
    -----------------------

    Doubly Occupied:                                                      

       1A    -15.524935     2A    -11.238508     3A    -11.213080  
       4A    -11.208505     5A     -1.178397     6A     -1.037344  
       7A     -0.899487     8A     -0.802824     9A     -0.656088  
      10A     -0.635318    11A     -0.606208    12A     -0.563498  
      13A     -0.540210    14A     -0.494788    15A     -0.477770  
      16A     -0.470009    17A     -0.380222  

    Virtual:                                                              

      18A      0.142157    19A      0.154545    20A      0.174285  
      21A      0.191532    22A      0.211521    23A      0.227024  
      24A      0.239460    25A      0.253036    26A      0.261071  
      27A      0.306362    28A      0.341280    29A      0.363228  
      30A      0.403781    31A      0.419034    32A      0.449088  
      33A      0.461973    34A      0.490980    35A      0.521421  
      36A      0.537967    37A      0.572763    38A      0.582920  
      39A      0.605296    40A      0.622367    41A      0.623423  
      42A      0.651150    43A      0.656745    44A      0.667105  
      45A      0.680345    46A      0.686536    47A      0.689291  
      48A      0.714363    49A      0.734485    50A      0.741278  
      51A      0.765074    52A      0.833586    53A      0.845633  
      54A      0.884313    55A      0.911145    56A      0.940803  
      57A      0.959349    58A      0.986395    59A      1.016821  
      60A      1.077809    61A      1.092950    62A      1.127399  
      63A      1.137153    64A      1.168274    65A      1.196933  
      66A      1.231098    67A      1.234826    68A      1.262648  
      69A      1.280445    70A      1.298640    71A      1.315423  
      72A      1.334079    73A      1.342754    74A      1.380590  
      75A      1.394213    76A      1.408743    77A      1.411129  
      78A      1.444678    79A      1.450350    80A      1.485792  
      81A      1.495649    82A      1.521555    83A      1.532733  
      84A      1.542663    85A      1.577228    86A      1.593673  
      87A      1.622520    88A      1.644215    89A      1.681410  
      90A      1.708204    91A      1.755745    92A      1.772710  
      93A      1.813441    94A      1.831021    95A      1.843731  
      96A      1.862654    97A      1.893591    98A      1.960127  
      99A      2.013816   100A      2.071488   101A      2.116802  
     102A      2.501983   103A      2.592940   104A      2.597685  
     105A      2.652759   106A      2.677855   107A      2.733134  
     108A      2.760622   109A      2.780874   110A      2.800485  
     111A      2.806129   112A      2.833807   113A      2.889006  
     114A      2.928894   115A      2.950539   116A      2.993573  
     117A      3.029583   118A      3.052920   119A      3.099293  
     120A      3.123122   121A      3.139288   122A      3.148176  
     123A      3.182721   124A      3.194077   125A      3.205263  
     126A      3.240656   127A      3.294785   128A      3.319998  
     129A      3.343700   130A      3.362047   131A      3.380095  
     132A      3.396834   133A      3.400169   134A      3.413982  
     135A      3.431327   136A      3.440725   137A      3.462901  
     138A      3.486154   139A      3.510277   140A      3.546583  
     141A      3.567160   142A      3.590401   143A      3.630148  
     144A      3.647915   145A      3.661662   146A      3.670560  
     147A      3.703303   148A      3.741682   149A      3.757616  
     150A      3.774585   151A      3.794712   152A      3.815528  
     153A      3.837065   154A      3.846564   155A      3.872348  
     156A      3.889914   157A      3.901361   158A      3.933674  
     159A      3.951065   160A      3.998014   161A      4.026329  
     162A      4.049256   163A      4.077779   164A      4.117165  
     165A      4.124892   166A      4.133353   167A      4.144715  
     168A      4.149320   169A      4.183058   170A      4.193542  
     171A      4.220398   172A      4.250001   173A      4.264729  
     174A      4.303096   175A      4.313462   176A      4.335587  
     177A      4.340232   178A      4.364273   179A      4.387120  
     180A      4.415105   181A      4.430836   182A      4.441893  
     183A      4.458732   184A      4.467569   185A      4.515520  
     186A      4.537799   187A      4.569170   188A      4.594169  
     189A      4.613098   190A      4.617994   191A      4.654791  
     192A      4.670527   193A      4.715720   194A      4.748641  
     195A      4.756819   196A      4.771526   197A      4.815336  
     198A      4.868162   199A      4.910948   200A      4.943212  
     201A      5.006860   202A      5.077564   203A      5.093893  
     204A      5.123055   205A      5.195900   206A      5.225977  
     207A      5.246477   208A      5.255669   209A      5.286955  
     210A      5.327697   211A      5.357222   212A      5.365207  
     213A      5.414760   214A      5.441404   215A      5.510692  
     216A      5.566737   217A      5.627275   218A      5.653086  
     219A      5.664532   220A      5.701012   221A      5.736874  
     222A      5.748095   223A      5.768503   224A      5.790670  
     225A      5.843231   226A      5.882121   227A      5.892850  
     228A      5.964634   229A      6.007539   230A      6.029450  
     231A      6.046576   232A      6.151087   233A      6.207363  
     234A      6.310242   235A      6.323152   236A      6.338144  
     237A      6.370711   238A      6.428295   239A      6.470774  
     240A      6.605777   241A      6.718909   242A      7.360722  
     243A     12.970216   244A     13.434256   245A     14.005130  
     246A     14.236447  

    Final Occupation by Irrep:
              A 
    DOCC [    17 ]

  Energy converged.

  @DF-RHF Final Energy:  -173.35035016345122

   => Energetics <=

    Nuclear Repulsion Energy =            132.0790945377015930
    One-Electron Energy =                -495.0045095481262365
    Two-Electron Energy =                 189.5750648469732482
    DFT Exchange-Correlation Energy =       0.0000000000000000
    Empirical Dispersion Energy =           0.0000000000000000
    PCM Polarization Energy =               0.0000000000000000
    EFP Energy =                            0.0000000000000000
    Total Energy =                       -173.3503501634514237


  Saving occupied orbitals to File 180.

*** tstop() called on cx1-28-12-4 at Sat Sep 10 15:45:44 2016
Module time:
	user time   =      12.34 seconds =       0.21 minutes
	system time =       0.38 seconds =       0.01 minutes
	total time  =          4 seconds =       0.07 minutes
Total time:
	user time   =      12.34 seconds =       0.21 minutes
	system time =       0.38 seconds =       0.01 minutes
	total time  =          4 seconds =       0.07 minutes


Properties will be evaluated at   0.000000,   0.000000,   0.000000 Bohr

Properties computed using the SCF density matrix

  Nuclear Dipole Moment: (a.u.)
     X:     2.3010      Y:    -0.6020      Z:    -0.6431

  Electronic Dipole Moment: (a.u.)
     X:    -2.2280      Y:     0.3626      Z:     0.2081

  Dipole Moment: (a.u.)
     X:     0.0730      Y:    -0.2394      Z:    -0.4350     Total:     0.5019

  Dipole Moment: (Debye)
     X:     0.1855      Y:    -0.6086      Z:    -1.1058     Total:     1.2757


*** tstart() called on cx1-28-12-4
*** at Sat Sep 10 15:45:44 2016


         ------------------------------------------------------------
                                   SCF GRAD                          
                          Rob Parrish, Justin Turney,                
                       Andy Simmonett, and Alex Sokolov              
         ------------------------------------------------------------

  ==> Geometry <==

    Molecular point group: c1
    Full point group: C1

    Geometry (in Angstrom), charge = 0, multiplicity = 1:

       Center              X                  Y                   Z               Mass       
    ------------   -----------------  -----------------  -----------------  -----------------
           H         -1.877868120250     0.780127883852    -0.825247308577     1.007825032070
           N         -1.854347120250     0.161356883852    -0.042852308577    14.003074004780
           C         -0.563816120250    -0.500093116148     0.063920691423    12.000000000000
           H         -2.586863120250    -0.505029116148    -0.172024308577     1.007825032070
           C          0.572708879750     0.507762883852    -0.020111308577    12.000000000000
           H         -0.480509120250    -1.200839116148    -0.760235308577     1.007825032070
           H         -0.458611120250    -1.081902116148     0.980896691423     1.007825032070
           C          1.949329879750    -0.142069116148     0.063821691423    12.000000000000
           H          0.475833879750     1.061556883852    -0.947260308577     1.007825032070
           H          0.465255879750     1.231804883852     0.784219691423     1.007825032070
           H          2.099129879750    -0.848228116148    -0.746228308577     1.007825032070
           H          2.735839879750     0.600707883852     0.002194691423     1.007825032070
           H          2.076518879750    -0.679878116148     0.997544691423     1.007825032070

  Nuclear repulsion =  132.079094537701593

  ==> Basis Set <==

  Basis Set: CC-PVTZ
    Number of shells: 94
    Number of basis function: 246
    Number of Cartesian functions: 275
    Spherical Harmonics?: true
    Max angular momentum: 3

  ==> DFJKGrad: Density-Fitted SCF Gradients <==

    Gradient:                    1
    J tasked:                  Yes
    K tasked:                  Yes
    wK tasked:                  No
    OpenMP threads:              4
    Integrals threads:           4
    Memory (MB):              1430
    Schwarz Cutoff:          0E+00
    Fitting Condition:       1E-12

   => Auxiliary Basis Set <=

  Basis Set: 
    Number of shells: 190
    Number of basis function: 586
    Number of Cartesian functions: 699
    Spherical Harmonics?: true
    Max angular momentum: 4


  -Total Gradient:
     Atom            X                  Y                   Z
    ------   -----------------  -----------------  -----------------
       1       -0.001723944312     0.000990596124     0.000590423272
       2        0.004216957145    -0.000877260606    -0.012901450576
       3       -0.001028589097     0.000859277559     0.012818699081
       4       -0.000358571849    -0.001201368301    -0.001107002688
       5        0.000316548213    -0.000105717013    -0.005874858109
       6       -0.009229051529     0.005715435792     0.000259246670
       7        0.008191337925    -0.005514834259     0.001342259552
       8       -0.000113075646     0.000154390876     0.002085364088
       9       -0.001592519614    -0.000842954952     0.001769252698
      10        0.001094005326     0.001049506253     0.001209053062
      11       -0.000301210745     0.000143886990    -0.000131041359
      12        0.000022916002    -0.000031850469    -0.000069539322
      13        0.000505198186    -0.000339107994     0.000009593632


*** tstop() called on cx1-28-12-4 at Sat Sep 10 15:45:47 2016
Module time:
	user time   =      13.24 seconds =       0.22 minutes
	system time =       0.32 seconds =       0.01 minutes
	total time  =          3 seconds =       0.05 minutes
Total time:
	user time   =      25.67 seconds =       0.43 minutes
	system time =       0.70 seconds =       0.01 minutes
	total time  =          7 seconds =       0.12 minutes

			-----------------------------------------
			 OPTKING 2.0: for geometry optimizations 
			  - R.A. King,  Bethel University        
			-----------------------------------------

	Internal coordinates to be generated automatically.
	Detected frag 1 with atoms:  1 2 3 4 5 6 7 8 9 10 11 12 13
	---Fragment 1 Bond Connectivity---
	 1 : 2
	 2 : 1 3 4
	 3 : 2 5 6 7
	 4 : 2
	 5 : 3 8 9 10
	 6 : 3
	 7 : 3
	 8 : 5 11 12 13
	 9 : 5
	 10 : 5
	 11 : 8
	 12 : 8
	 13 : 8

	Assuming in current code that numbering for constraints corresponds to unified fragment.
	Frozen dihedral atom list: 
	     1     2     3     6
	---Fragment 1 Geometry and Gradient---
	 H          -3.5486564609        1.4742280491       -1.5594914051
	 N          -3.5042082126        0.3049203201       -0.0809791274
	 C          -1.0654580566       -0.9450390305        0.1207926010
	 H          -4.8884628405       -0.9543667187       -0.3250788314
	 C           1.0822629366        0.9595327909       -0.0380048654
	 H          -0.9080306416       -2.2692570592       -1.4366365298
	 H          -0.8666494188       -2.0444987021        1.8536261114
	 C           3.6836996154       -0.2684717215        0.1206055181
	 H           0.8991957175        2.0060517850       -1.7900625598
	 H           0.8792061944        2.3277738796        1.4819604448
	 H           3.9667805901       -1.6029188377       -1.4101671358
	 H           5.1699881162        1.1351733863        0.0041473657
	 H           3.9240519925       -1.2847834433        1.8850862721
	            -0.0017239443        0.0009905961        0.0005904233
	             0.0042169571       -0.0008772606       -0.0129014506
	            -0.0010285891        0.0008592776        0.0128186991
	            -0.0003585718       -0.0012013683       -0.0011070027
	             0.0003165482       -0.0001057170       -0.0058748581
	            -0.0092290515        0.0057154358        0.0002592467
	             0.0081913379       -0.0055148343        0.0013422596
	            -0.0001130756        0.0001543909        0.0020853641
	            -0.0015925196       -0.0008429550        0.0017692527
	             0.0010940053        0.0010495063        0.0012090531
	            -0.0003012107        0.0001438870       -0.0001310414
	             0.0000229160       -0.0000318505       -0.0000695393
	             0.0005051982       -0.0003391080        0.0000095936

	Previous optimization step data not found.  Starting new optimization.

	---Fragment 1 Intrafragment Coordinates---
	 - Coordinate -           - BOHR/RAD -       - ANG/DEG -
	 R(1,2)           =         1.885538	       0.997784
	 R(2,3)           =         2.747838	       1.454093
	 R(2,4)           =         1.887207	       0.998667
	 R(3,5)           =         2.874946	       1.521356
	 R(3,6)           =         2.050347	       1.084997
	 R(3,7)           =         2.061807	       1.091061
	 R(5,8)           =         2.881081	       1.524602
	 R(5,9)           =         2.049005	       1.084287
	 R(5,10)          =         2.055142	       1.087535
	 R(8,11)          =         2.050402	       1.085026
	 R(8,12)          =         2.047641	       1.083565
	 R(8,13)          =         2.050378	       1.085013
	 B(1,2,3)         =         1.939704	     111.136851
	 B(1,2,4)         =         1.870350	     107.163162
	 B(2,3,5)         =         1.936504	     110.953479
	 B(2,3,6)         =         1.881951	     107.827837
	 B(2,3,7)         =         1.971277	     112.945844
	 B(3,2,4)         =         1.935796	     110.912965
	 B(3,5,8)         =         1.970484	     112.900417
	 B(3,5,9)         =         1.895302	     108.592782
	 B(3,5,10)        =         1.903276	     109.049676
	 B(5,3,6)         =         1.905557	     109.180372
	 B(5,3,7)         =         1.904613	     109.126314
	 B(5,8,11)        =         1.940094	     111.159188
	 B(5,8,12)        =         1.939162	     111.105820
	 B(5,8,13)        =         1.943883	     111.376286
	 B(6,3,7)         =         1.861464	     106.654012
	 B(8,5,9)         =         1.923506	     110.208757
	 B(8,5,10)        =         1.909502	     109.406432
	 B(9,5,10)        =         1.858284	     106.471845
	 B(11,8,12)       =         1.879120	     107.665623
	 B(11,8,13)       =         1.879365	     107.679688
	 B(12,8,13)       =         1.879303	     107.676103
	 D(1,2,3,5)       =         0.864260	      49.518453
	*D(1,2,3,6)       =        -1.221732	     -70.000073
	 D(1,2,3,7)       =         3.009203	     172.414659
	 D(2,3,5,8)       =        -3.124812	    -179.038517
	 D(2,3,5,9)       =        -0.986249	     -56.507920
	 D(2,3,5,10)      =         1.031974	      59.127741
	 D(3,5,8,11)      =         1.050288	      60.177090
	 D(3,5,8,12)      =        -3.140585	    -179.942241
	 D(3,5,8,13)      =        -1.045503	     -59.902884
	 D(4,2,3,5)       =         2.943046	     168.624135
	 D(4,2,3,6)       =         0.857055	      49.105609
	 D(4,2,3,7)       =        -1.195196	     -68.479660
	 D(6,3,5,8)       =        -1.053007	     -60.332881
	 D(6,3,5,9)       =         1.085555	      62.197717
	 D(6,3,5,10)      =         3.103778	     177.833378
	 D(7,3,5,8)       =         0.975391	      55.885787
	 D(7,3,5,9)       =         3.113953	     178.416385
	 D(7,3,5,10)      =        -1.151009	     -65.947954
	 D(9,5,8,11)      =        -1.072425	     -61.445420
	 D(9,5,8,12)      =         1.019888	      58.435250
	 D(9,5,8,13)      =         3.114970	     178.474607
	 D(10,5,8,11)     =        -3.110009	    -178.190380
	 D(10,5,8,12)     =        -1.017696	     -58.309711
	 D(10,5,8,13)     =         1.077386	      61.729646

	Current energy   :      -173.3503501635

	Generating empirical Hessian (Schlegel '84) for each fragment.
	Taking RFO optimization step.
	Going to follow RFO solution 1.
	Using RFO vector 1.
	Norm of target step-size    0.29102
	Projected energy change by RFO approximation:        -0.0089354523

	Back-transformation to cartesian coordinates...
	Successfully converged to displaced geometry.

	Back-transformation to cartesian coordinates to adjust frozen coordinates...
	Successfully converged to displaced geometry.

	--- Internal Coordinate Step in ANG or DEG, aJ/ANG or AJ/DEG ---
	 ---------------------------------------------------------------------------
	   Coordinate                Previous        Force       Change         New 
	   ----------                --------       ------       ------       ------
	    1 R(1,2)          =      0.997784    -0.001582    -0.000209     0.997575
	    2 R(2,3)          =      1.454093     0.011567     0.001944     1.456037
	    3 R(2,4)          =      0.998667    -0.009951    -0.001320     0.997347
	    4 R(3,5)          =      1.521356    -0.000190    -0.000040     1.521316
	    5 R(3,6)          =      1.084997     0.037872     0.006775     1.091772
	    6 R(3,7)          =      1.091061    -0.040030    -0.007305     1.083756
	    7 R(5,8)          =      1.524602    -0.001961    -0.000414     1.524188
	    8 R(5,9)          =      1.084287     0.014839     0.002649     1.086935
	    9 R(5,10)         =      1.087535    -0.012233    -0.002207     1.085328
	   10 R(8,11)         =      1.085026     0.000308     0.000055     1.085081
	   11 R(8,12)         =      1.083565     0.000010     0.000002     1.083567
	   12 R(8,13)         =      1.085013    -0.001941    -0.000347     1.084666
	   13 B(1,2,3)        =    111.136851    -0.000249    -1.103325   110.033526
	   14 B(1,2,4)        =    107.163162     0.000073     0.431124   107.594286
	   15 B(2,3,5)        =    110.953479     0.000024    -0.223479   110.729999
	   16 B(2,3,6)        =    107.827837     0.000706     6.919766   114.747603
	   17 B(2,3,7)        =    112.945844    -0.000684    -6.135045   106.810799
	   18 B(3,2,4)        =    110.912965     0.000127     0.586836   111.499801
	   19 B(3,5,8)        =    112.900417     0.000006     0.207598   113.108015
	   20 B(3,5,9)        =    108.592782     0.000097     0.431021   109.023803
	   21 B(3,5,10)       =    109.049676    -0.000080    -0.386083   108.663594
	   22 B(5,3,6)        =    109.180372    -0.000323    -0.029852   109.150520
	   23 B(5,3,7)        =    109.126314     0.000303    -0.769530   108.356784
	   24 B(5,8,11)       =    111.159188     0.000053     0.195048   111.354236
	   25 B(5,8,12)       =    111.105820     0.000000     0.168910   111.274730
	   26 B(5,8,13)       =    111.376286    -0.000070    -0.484649   110.891636
	   27 B(6,3,7)        =    106.654012    -0.000025     0.120074   106.774086
	   28 B(8,5,9)        =    110.208757    -0.000119    -0.945803   109.262954
	   29 B(8,5,10)       =    109.406432     0.000092     0.536955   109.943386
	   30 B(9,5,10)       =    106.471845     0.000005     0.157243   106.629088
	   31 B(11,8,12)      =    107.665623    -0.000012     0.010909   107.676532
	   32 B(11,8,13)      =    107.679688     0.000009     0.166550   107.846238
	   33 B(12,8,13)      =    107.676103     0.000021    -0.049602   107.626502
	   34 D(1,2,3,5)      =     49.518453     0.000014     4.584809    54.103262
	   35 *D(1,2,3,6)     =    -70.000073     0.000000    -0.000000   -70.000073
	   36 D(1,2,3,7)      =    172.414659    -0.000006    -0.529295   171.885363
	   37 D(2,3,5,8)      =   -179.038517    -0.000091    -5.434729  -184.473246
	   38 D(2,3,5,9)      =    -56.507920    -0.000109    -6.194186   -62.702105
	   39 D(2,3,5,10)     =     59.127741    -0.000105    -5.982737    53.145004
	   40 D(3,5,8,11)     =     60.177090     0.000004    -0.240176    59.936914
	   41 D(3,5,8,12)     =   -179.942241     0.000009     0.018489  -179.923752
	   42 D(3,5,8,13)     =    -59.902884     0.000004    -0.255711   -60.158594
	   43 D(4,2,3,5)      =    168.624135     0.000017     4.782613   173.406747
	   44 D(4,2,3,6)      =     49.105609     0.000003     0.197804    49.303413
	   45 D(4,2,3,7)      =    -68.479660    -0.000003    -0.331492   -68.811152
	   46 D(6,3,5,8)      =    -60.332881     0.000066     3.106535   -57.226346
	   47 D(6,3,5,9)      =     62.197717     0.000047     2.347078    64.544795
	   48 D(6,3,5,10)     =    177.833378     0.000051     2.558526   180.391904
	   49 D(7,3,5,8)      =     55.885787     0.000056     2.807821    58.693608
	   50 D(7,3,5,9)      =    178.416385     0.000038     2.048365   180.464749
	   51 D(7,3,5,10)     =    -65.947954     0.000042     2.259813   -63.688141
	   52 D(9,5,8,11)     =    -61.445420    -0.000006    -0.254413   -61.699832
	   53 D(9,5,8,12)     =     58.435250    -0.000001     0.004252    58.439501
	   54 D(9,5,8,13)     =    178.474607    -0.000006    -0.269948   178.204659
	   55 D(10,5,8,11)    =   -178.190380    -0.000004    -0.207699  -178.398079
	   56 D(10,5,8,12)    =    -58.309711     0.000001     0.050966   -58.258745
	   57 D(10,5,8,13)    =     61.729646    -0.000004    -0.223234    61.506413
	 ---------------------------------------------------------------------------
	Successfully symmetrized geometry.

  ==> Convergence Check <==

  Measures of convergence in internal coordinates in au.
  Criteria marked as inactive (o), active & met (*), and active & unmet ( ).
  --------------------------------------------------------------------------------------------- ~
   Step     Total Energy     Delta E     MAX Force     RMS Force      MAX Disp      RMS Disp    ~
  --------------------------------------------------------------------------------------------- ~
    Convergence Criteria    1.00e-06 *    3.00e-04 *             o    1.20e-03 *             o  ~
  --------------------------------------------------------------------------------------------- ~
      1    -173.35035016   -1.73e+02      9.28e-03      2.76e-03 o    1.21e-01      3.86e-02 o  ~
  ---------------------------------------------------------------------------------------------

	Writing optimization data to binary file.
	Structure for next step:
	Cartesian Geometry (in Angstrom)
	    H    -1.8536369521   0.7957685397  -0.9162052203
	    N    -1.8503535896   0.1525203221  -0.1537247689
	    C    -0.5588699946  -0.5145754409  -0.0694782837
	    H    -2.5893579625  -0.4996287597  -0.3062867730
	    C     0.5695013890   0.5034122282   0.0003950641
	    H    -0.3552786491  -1.2200252999  -0.8774744487
	    H    -0.5606650751  -1.0858653709   0.8514732236
	    C     1.9393562569  -0.1346644912   0.1991550169
	    H     0.5759850640   1.0885714627  -0.9155606968
	    H     0.3627569678   1.1960472401   0.8099934564
	    H     2.1816222860  -0.8115406125  -0.6135854736
	    H     2.7195769888   0.6157881742   0.2459941167
	    H     1.9719657072  -0.7005295018   1.1239437758
			--------------------------
			 OPTKING Finished Execution 
			--------------------------

    Structure for next step:
    Molecular point group: c1
    Full point group: C1

    Geometry (in Angstrom), charge = 0, multiplicity = 1:

    H           -1.852983130945     0.799838991014    -0.895990692922
    N           -1.849699768446     0.156590773436    -0.133510241493
    C           -0.558216173440    -0.510504989598    -0.049263756230
    H           -2.588704141314    -0.495558308352    -0.286072245531
    C            0.570155210192     0.507482679489     0.020609591517
    H           -0.354624827994    -1.215954848614    -0.857259921315
    H           -0.560011253901    -1.081794919551     0.871687751052
    C            1.940010078001    -0.130594039889     0.219369544362
    H            0.576638885150     1.092641913995    -0.895346169395
    H            0.363410788968     1.200117691445     0.830207983830
    H            2.182276107168    -0.807470161166    -0.593370946154
    H            2.720230809902     0.619858625526     0.266208644105
    H            1.972619528354    -0.696459050443     1.144158303217

gradient() will perform analytic gradient computation.

*** tstart() called on cx1-28-12-4
*** at Sat Sep 10 15:45:48 2016


         ---------------------------------------------------------
                                   SCF
            by Justin Turney, Rob Parrish, and Andy Simmonett
                              RHF Reference
                        4 Threads,   2000 MiB Core
         ---------------------------------------------------------

  ==> Geometry <==

    Molecular point group: c1
    Full point group: C1

    Geometry (in Angstrom), charge = 0, multiplicity = 1:

       Center              X                  Y                   Z               Mass       
    ------------   -----------------  -----------------  -----------------  -----------------
           H         -1.852983130945     0.799838991014    -0.895990692922     1.007825032070
           N         -1.849699768446     0.156590773436    -0.133510241493    14.003074004780
           C         -0.558216173440    -0.510504989598    -0.049263756230    12.000000000000
           H         -2.588704141314    -0.495558308352    -0.286072245531     1.007825032070
           C          0.570155210192     0.507482679489     0.020609591517    12.000000000000
           H         -0.354624827994    -1.215954848614    -0.857259921315     1.007825032070
           H         -0.560011253901    -1.081794919551     0.871687751052     1.007825032070
           C          1.940010078001    -0.130594039889     0.219369544362    12.000000000000
           H          0.576638885150     1.092641913995    -0.895346169395     1.007825032070
           H          0.363410788968     1.200117691445     0.830207983830     1.007825032070
           H          2.182276107168    -0.807470161166    -0.593370946154     1.007825032070
           H          2.720230809902     0.619858625526     0.266208644105     1.007825032070
           H          1.972619528354    -0.696459050443     1.144158303217     1.007825032070

  Running in c1 symmetry.

  Rotational constants: A =      0.85577  B =      0.12538  C =      0.11712 [cm^-1]
  Rotational constants: A =  25655.40183  B =   3758.87444  C =   3511.19297 [MHz]
  Nuclear repulsion =  132.051111404696542

  Charge       = 0
  Multiplicity = 1
  Electrons    = 34
  Nalpha       = 17
  Nbeta        = 17

  ==> Algorithm <==

  SCF Algorithm Type is DF.
  DIIS enabled.
  MOM disabled.
  Fractional occupation disabled.
  Guess Type is READ.
  Energy threshold   = 1.00e-08
  Density threshold  = 1.00e-08
  Integral threshold = 0.00e+00

  ==> Primary Basis <==

  Basis Set: CC-PVTZ
    Number of shells: 94
    Number of basis function: 246
    Number of Cartesian functions: 275
    Spherical Harmonics?: true
    Max angular momentum: 3

  ==> Pre-Iterations <==

   -------------------------------------------------------
    Irrep   Nso     Nmo     Nalpha   Nbeta   Ndocc  Nsocc
   -------------------------------------------------------
     A        246     246       0       0       0       0
   -------------------------------------------------------
    Total     246     246      17      17      17       0
   -------------------------------------------------------

  ==> Integral Setup <==

  ==> DFJK: Density-Fitted J/K Matrices <==

    J tasked:                  Yes
    K tasked:                  Yes
    wK tasked:                  No
    OpenMP threads:              4
    Integrals threads:           4
    Memory (MB):              1430
    Algorithm:                Core
    Integral Cache:           NONE
    Schwarz Cutoff:          1E-12
    Fitting Condition:       1E-12

   => Auxiliary Basis Set <=

  Basis Set: 
    Number of shells: 190
    Number of basis function: 586
    Number of Cartesian functions: 699
    Spherical Harmonics?: true
    Max angular momentum: 4

  Minimum eigenvalue in the overlap matrix is 5.7981686745E-04.
  Using Symmetric Orthogonalization.
  SCF Guess: Reading in previously saved MOs, projecting if necessary.

  Using orbitals from previous SCF, no projection.
  Recomputing DOCC and SOCC from number of alpha and beta electrons from previous calculation.
              A 
    DOCC [    17 ]

  ==> Iterations <==

                           Total Energy        Delta E     RMS |[F,P]|

   @DF-RHF iter   0:  -173.33146147490362   -1.73331e+02   6.26306e-04 
   @DF-RHF iter   1:  -173.35114771508495   -1.96862e-02   1.27857e-04 
   @DF-RHF iter   2:  -173.35195196269711   -8.04248e-04   4.61734e-05 DIIS
   @DF-RHF iter   3:  -173.35205770007843   -1.05737e-04   2.02919e-05 DIIS
   @DF-RHF iter   4:  -173.35207696129015   -1.92612e-05   3.01050e-06 DIIS
   @DF-RHF iter   5:  -173.35207764475598   -6.83466e-07   1.19341e-06 DIIS
   @DF-RHF iter   6:  -173.35207772756212   -8.28061e-08   3.30833e-07 DIIS
   @DF-RHF iter   7:  -173.35207773520341   -7.64129e-09   8.75489e-08 DIIS
   @DF-RHF iter   8:  -173.35207773576514   -5.61727e-10   2.17058e-08 DIIS
   @DF-RHF iter   9:  -173.35207773580277   -3.76303e-11   6.27884e-09 DIIS

  ==> Post-Iterations <==

    Orbital Energies (a.u.)
    -----------------------

    Doubly Occupied:                                                      

       1A    -15.527017     2A    -11.238038     3A    -11.211968  
       4A    -11.207827     5A     -1.178537     6A     -1.037184  
       7A     -0.899773     8A     -0.801653     9A     -0.658418  
      10A     -0.638595    11A     -0.603242    12A     -0.564028  
      13A     -0.533944    14A     -0.493040    15A     -0.476432  
      16A     -0.469288    17A     -0.385938  

    Virtual:                                                              

      18A      0.142888    19A      0.155156    20A      0.175123  
      21A      0.190763    22A      0.211377    23A      0.227492  
      24A      0.241084    25A      0.250125    26A      0.261948  
      27A      0.306952    28A      0.341702    29A      0.363956  
      30A      0.406072    31A      0.418021    32A      0.452614  
      33A      0.460234    34A      0.498201    35A      0.511422  
      36A      0.529328    37A      0.572773    38A      0.585710  
      39A      0.609048    40A      0.623429    41A      0.624983  
      42A      0.646820    43A      0.658410    44A      0.667961  
      45A      0.679806    46A      0.688909    47A      0.694145  
      48A      0.715475    49A      0.730064    50A      0.741048  
      51A      0.765129    52A      0.826348    53A      0.852705  
      54A      0.886069    55A      0.914418    56A      0.941510  
      57A      0.972751    58A      0.984364    59A      1.014427  
      60A      1.076297    61A      1.092481    62A      1.122769  
      63A      1.138598    64A      1.168946    65A      1.192165  
      66A      1.228848    67A      1.238421    68A      1.258456  
      69A      1.278278    70A      1.299331    71A      1.311299  
      72A      1.334982    73A      1.346039    74A      1.377672  
      75A      1.394608    76A      1.406118    77A      1.416534  
      78A      1.432132    79A      1.463930    80A      1.488716  
      81A      1.498481    82A      1.525346    83A      1.530393  
      84A      1.545791    85A      1.579370    86A      1.603661  
      87A      1.618882    88A      1.638411    89A      1.678021  
      90A      1.714672    91A      1.749416    92A      1.763193  
      93A      1.814596    94A      1.829751    95A      1.834756  
      96A      1.867890    97A      1.917641    98A      1.956210  
      99A      2.009940   100A      2.061972   101A      2.117729  
     102A      2.505633   103A      2.591764   104A      2.601247  
     105A      2.653494   106A      2.675644   107A      2.733909  
     108A      2.749933   109A      2.770316   110A      2.803326  
     111A      2.820267   112A      2.840419   113A      2.891824  
     114A      2.921805   115A      2.955404   116A      2.994047  
     117A      3.033737   118A      3.046179   119A      3.093504  
     120A      3.121154   121A      3.139318   122A      3.150650  
     123A      3.179691   124A      3.190532   125A      3.219557  
     126A      3.243442   127A      3.281215   128A      3.327947  
     129A      3.342360   130A      3.365489   131A      3.385029  
     132A      3.398998   133A      3.402978   134A      3.418005  
     135A      3.435715   136A      3.444271   137A      3.460442  
     138A      3.479277   139A      3.511665   140A      3.542841  
     141A      3.566794   142A      3.591175   143A      3.610776  
     144A      3.650895   145A      3.667391   146A      3.671755  
     147A      3.725007   148A      3.735816   149A      3.760690  
     150A      3.772804   151A      3.803083   152A      3.803913  
     153A      3.822514   154A      3.848813   155A      3.865278  
     156A      3.895882   157A      3.906842   158A      3.935450  
     159A      3.970900   160A      4.009812   161A      4.028069  
     162A      4.052476   163A      4.072433   164A      4.109749  
     165A      4.124796   166A      4.141873   167A      4.145871  
     168A      4.152098   169A      4.167645   170A      4.194343  
     171A      4.228389   172A      4.238174   173A      4.253928  
     174A      4.291738   175A      4.309119   176A      4.329336  
     177A      4.347291   178A      4.355423   179A      4.394369  
     180A      4.417645   181A      4.425863   182A      4.442831  
     183A      4.457000   184A      4.476712   185A      4.519361  
     186A      4.532262   187A      4.574665   188A      4.596054  
     189A      4.610963   190A      4.617994   191A      4.652853  
     192A      4.671419   193A      4.711034   194A      4.744530  
     195A      4.766041   196A      4.773641   197A      4.816534  
     198A      4.871723   199A      4.911280   200A      4.942549  
     201A      5.025740   202A      5.074040   203A      5.089602  
     204A      5.135158   205A      5.184895   206A      5.235113  
     207A      5.253610   208A      5.259508   209A      5.289962  
     210A      5.317917   211A      5.361331   212A      5.368316  
     213A      5.405283   214A      5.451740   215A      5.506601  
     216A      5.558774   217A      5.574958   218A      5.627157  
     219A      5.647275   220A      5.721647   221A      5.736393  
     222A      5.749228   223A      5.766230   224A      5.787451  
     225A      5.852509   226A      5.877692   227A      5.898744  
     228A      5.972533   229A      6.009445   230A      6.018791  
     231A      6.039844   232A      6.153579   233A      6.260204  
     234A      6.298034   235A      6.317921   236A      6.332561  
     237A      6.372924   238A      6.430523   239A      6.484837  
     240A      6.602789   241A      6.721989   242A      7.361455  
     243A     12.998798   244A     13.446072   245A     14.015113  
     246A     14.246618  

    Final Occupation by Irrep:
              A 
    DOCC [    17 ]

  Energy converged.

  @DF-RHF Final Energy:  -173.35207773580277

   => Energetics <=

    Nuclear Repulsion Energy =            132.0511114046965417
    One-Electron Energy =                -494.9565345109859891
    Two-Electron Energy =                 189.5533453704866531
    DFT Exchange-Correlation Energy =       0.0000000000000000
    Empirical Dispersion Energy =           0.0000000000000000
    PCM Polarization Energy =               0.0000000000000000
    EFP Energy =                            0.0000000000000000
    Total Energy =                       -173.3520777358027942


  Saving occupied orbitals to File 180.

*** tstop() called on cx1-28-12-4 at Sat Sep 10 15:45:51 2016
Module time:
	user time   =       8.22 seconds =       0.14 minutes
	system time =       0.17 seconds =       0.00 minutes
	total time  =          3 seconds =       0.05 minutes
Total time:
	user time   =      35.95 seconds =       0.60 minutes
	system time =       0.90 seconds =       0.01 minutes
	total time  =         11 seconds =       0.18 minutes


Properties will be evaluated at   0.000000,   0.000000,   0.000000 Bohr

Properties computed using the SCF density matrix

  Nuclear Dipole Moment: (a.u.)
     X:     2.3105      Y:    -0.5487      Z:    -0.3894

  Electronic Dipole Moment: (a.u.)
     X:    -2.2542      Y:     0.3312      Z:    -0.0390

  Dipole Moment: (a.u.)
     X:     0.0562      Y:    -0.2175      Z:    -0.4284     Total:     0.4838

  Dipole Moment: (Debye)
     X:     0.1429      Y:    -0.5528      Z:    -1.0890     Total:     1.2296


*** tstart() called on cx1-28-12-4
*** at Sat Sep 10 15:45:51 2016


         ------------------------------------------------------------
                                   SCF GRAD                          
                          Rob Parrish, Justin Turney,                
                       Andy Simmonett, and Alex Sokolov              
         ------------------------------------------------------------

  ==> Geometry <==

    Molecular point group: c1
    Full point group: C1

    Geometry (in Angstrom), charge = 0, multiplicity = 1:

       Center              X                  Y                   Z               Mass       
    ------------   -----------------  -----------------  -----------------  -----------------
           H         -1.852983130945     0.799838991014    -0.895990692922     1.007825032070
           N         -1.849699768446     0.156590773436    -0.133510241493    14.003074004780
           C         -0.558216173440    -0.510504989598    -0.049263756230    12.000000000000
           H         -2.588704141314    -0.495558308352    -0.286072245531     1.007825032070
           C          0.570155210192     0.507482679489     0.020609591517    12.000000000000
           H         -0.354624827994    -1.215954848614    -0.857259921315     1.007825032070
           H         -0.560011253901    -1.081794919551     0.871687751052     1.007825032070
           C          1.940010078001    -0.130594039889     0.219369544362    12.000000000000
           H          0.576638885150     1.092641913995    -0.895346169395     1.007825032070
           H          0.363410788968     1.200117691445     0.830207983830     1.007825032070
           H          2.182276107168    -0.807470161166    -0.593370946154     1.007825032070
           H          2.720230809902     0.619858625526     0.266208644105     1.007825032070
           H          1.972619528354    -0.696459050443     1.144158303217     1.007825032070

  Nuclear repulsion =  132.051111404696542

  ==> Basis Set <==

  Basis Set: CC-PVTZ
    Number of shells: 94
    Number of basis function: 246
    Number of Cartesian functions: 275
    Spherical Harmonics?: true
    Max angular momentum: 3

  ==> DFJKGrad: Density-Fitted SCF Gradients <==

    Gradient:                    1
    J tasked:                  Yes
    K tasked:                  Yes
    wK tasked:                  No
    OpenMP threads:              4
    Integrals threads:           4
    Memory (MB):              1430
    Schwarz Cutoff:          0E+00
    Fitting Condition:       1E-12

   => Auxiliary Basis Set <=

  Basis Set: 
    Number of shells: 190
    Number of basis function: 586
    Number of Cartesian functions: 699
    Spherical Harmonics?: true
    Max angular momentum: 4


  -Total Gradient:
     Atom            X                  Y                   Z
    ------   -----------------  -----------------  -----------------
       1        0.002336634533    -0.000315623828     0.001560410126
       2       -0.004175462404     0.000217691646     0.003480322688
       3       -0.000369781062    -0.000340858290    -0.007106708881
       4        0.000271407139     0.000209927737    -0.000096549457
       5       -0.000232188151    -0.001242484488     0.000355332871
       6        0.002749377460    -0.001905369742     0.001050305807
       7       -0.001046770517     0.002738479765    -0.000027748463
       8        0.000326350516     0.000695510636    -0.000107139553
       9        0.000034949487    -0.000718639873     0.000370479703
      10        0.000207602630     0.000431318384     0.000488561476
      11       -0.000061647478     0.000112082510    -0.000190756661
      12        0.000295456754    -0.000239752841     0.000176832261
      13       -0.000335928905     0.000357718384     0.000046658084


*** tstop() called on cx1-28-12-4 at Sat Sep 10 15:45:54 2016
Module time:
	user time   =      12.64 seconds =       0.21 minutes
	system time =       0.30 seconds =       0.01 minutes
	total time  =          3 seconds =       0.05 minutes
Total time:
	user time   =      48.64 seconds =       0.81 minutes
	system time =       1.20 seconds =       0.02 minutes
	total time  =         14 seconds =       0.23 minutes

			-----------------------------------------
			 OPTKING 2.0: for geometry optimizations 
			  - R.A. King,  Bethel University        
			-----------------------------------------

	Previous internal coordinate definitions found.
	---Fragment 1 Geometry and Gradient---
	 H          -3.5016306463        1.5114766434       -1.6931770272
	 N          -3.4954259904        0.2959136767       -0.2522977924
	 C          -1.0548756907       -0.9647146198       -0.0930950076
	 H          -4.8919418662       -0.9364694857       -0.5405981983
	 C           1.0774372005        0.9590032814        0.0389464837
	 H          -0.6701438048       -2.2978216538       -1.6199864760
	 H          -1.0582679012       -2.0442961299        1.6472511229
	 C           3.6660877425       -0.2467869700        0.4145483607
	 H           1.0896895705        2.0647939788       -1.6919590543
	 H           0.6867468649        2.2678937641        1.5688657228
	 H           4.1239041889       -1.5258974651       -1.1213085834
	 H           5.1404912490        1.1713630434        0.5030614316
	 H           3.7277106730       -1.3161168681        2.1621458457
	             0.0023366345       -0.0003156238        0.0015604101
	            -0.0041754624        0.0002176916        0.0034803227
	            -0.0003697811       -0.0003408583       -0.0071067089
	             0.0002714071        0.0002099277       -0.0000965495
	            -0.0002321882       -0.0012424845        0.0003553329
	             0.0027493775       -0.0019053697        0.0010503058
	            -0.0010467705        0.0027384798       -0.0000277485
	             0.0003263505        0.0006955106       -0.0001071396
	             0.0000349495       -0.0007186399        0.0003704797
	             0.0002076026        0.0004313184        0.0004885615
	            -0.0000616475        0.0001120825       -0.0001907567
	             0.0002954568       -0.0002397528        0.0001768323
	            -0.0003359289        0.0003577184        0.0000466581

	---Fragment 1 Intrafragment Coordinates---
	 - Coordinate -           - BOHR/RAD -       - ANG/DEG -
	 R(1,2)           =         1.885143	       0.997575
	 R(2,3)           =         2.751511	       1.456037
	 R(2,4)           =         1.884713	       0.997347
	 R(3,5)           =         2.874871	       1.521316
	 R(3,6)           =         2.063151	       1.091772
	 R(3,7)           =         2.048002	       1.083756
	 R(5,8)           =         2.880298	       1.524188
	 R(5,9)           =         2.054010	       1.086935
	 R(5,10)          =         2.050972	       1.085328
	 R(8,11)          =         2.050506	       1.085081
	 R(8,12)          =         2.047645	       1.083567
	 R(8,13)          =         2.049722	       1.084666
	 B(1,2,3)         =         1.920447	     110.033526
	 B(1,2,4)         =         1.877875	     107.594286
	 B(2,3,5)         =         1.932603	     110.729999
	 B(2,3,6)         =         2.002723	     114.747603
	 B(2,3,7)         =         1.864200	     106.810799
	 B(3,2,4)         =         1.946039	     111.499801
	 B(3,5,8)         =         1.974107	     113.108015
	 B(3,5,9)         =         1.902824	     109.023803
	 B(3,5,10)        =         1.896537	     108.663594
	 B(5,3,6)         =         1.905036	     109.150520
	 B(5,3,7)         =         1.891183	     108.356784
	 B(5,8,11)        =         1.943498	     111.354236
	 B(5,8,12)        =         1.942110	     111.274730
	 B(5,8,13)        =         1.935424	     110.891636
	 B(6,3,7)         =         1.863559	     106.774086
	 B(8,5,9)         =         1.906998	     109.262954
	 B(8,5,10)        =         1.918874	     109.943386
	 B(9,5,10)        =         1.861029	     106.629088
	 B(11,8,12)       =         1.879310	     107.676532
	 B(11,8,13)       =         1.882272	     107.846238
	 B(12,8,13)       =         1.878437	     107.626502
	 D(1,2,3,5)       =         0.944280	      54.103262
	*D(1,2,3,6)       =        -1.221732	     -70.000073
	 D(1,2,3,7)       =         2.999966	     171.885363
	 D(2,3,5,8)       =         3.063520	     175.526754
	 D(2,3,5,9)       =        -1.094358	     -62.702105
	 D(2,3,5,10)      =         0.927555	      53.145004
	 D(3,5,8,11)      =         1.046096	      59.936914
	 D(3,5,8,12)      =        -3.140262	    -179.923752
	 D(3,5,8,13)      =        -1.049966	     -60.158594
	 D(4,2,3,5)       =         3.026519	     173.406747
	 D(4,2,3,6)       =         0.860507	      49.303413
	 D(4,2,3,7)       =        -1.200981	     -68.811152
	 D(6,3,5,8)       =        -0.998788	     -57.226346
	 D(6,3,5,9)       =         1.126519	      64.544795
	 D(6,3,5,10)      =        -3.134753	    -179.608096
	 D(7,3,5,8)       =         1.024397	      58.693608
	 D(7,3,5,9)       =        -3.133481	    -179.535251
	 D(7,3,5,10)      =        -1.111568	     -63.688141
	 D(9,5,8,11)      =        -1.076865	     -61.699832
	 D(9,5,8,12)      =         1.019962	      58.439501
	 D(9,5,8,13)      =         3.110258	     178.204659
	 D(10,5,8,11)     =        -3.113634	    -178.398079
	 D(10,5,8,12)     =        -1.016807	     -58.258745
	 D(10,5,8,13)     =         1.073489	      61.506413

	Current energy   :      -173.3520777358

	Energy change for the previous step:
		Projected    :        -0.0089354523
		Actual       :        -0.0017275724
	Energy ratio indicates iffy step: Trust radius decreased to 1.250e-01.


	Performing BFGS update.
	Previous computed or guess Hessian on step 1.
	Steps to be used in Hessian update: 1
	Taking RFO optimization step.
	Going to follow RFO solution 1.
	Using RFO vector 1.
	Norm of target step-size    0.10092
	Projected energy change by RFO approximation:         0.0003180213

	Back-transformation to cartesian coordinates...
	Could not converge backtransformation.
	Using first guess instead.

	Back-transformation to cartesian coordinates to adjust frozen coordinates...
	Successfully converged to displaced geometry.

	--- Internal Coordinate Step in ANG or DEG, aJ/ANG or AJ/DEG ---
	 ---------------------------------------------------------------------------
	   Coordinate                Previous        Force       Change         New 
	   ----------                --------       ------       ------       ------
	    1 R(1,2)          =      0.997575     0.011566     0.001354     0.998929
	    2 R(2,3)          =      1.456037    -0.009520    -0.000549     1.455488
	    3 R(2,4)          =      0.997347     0.002666     0.000421     0.997768
	    4 R(3,5)          =      1.521316     0.001466     0.000468     1.521785
	    5 R(3,6)          =      1.091772    -0.007963    -0.000858     1.090915
	    6 R(3,7)          =      1.083756     0.012073     0.001760     1.085516
	    7 R(5,8)          =      1.524188     0.001612     0.000475     1.524663
	    8 R(5,9)          =      1.086935     0.005758     0.001080     1.088015
	    9 R(5,10)         =      1.085328    -0.004945    -0.000624     1.084704
	   10 R(8,11)         =      1.085081    -0.000488     0.000061     1.085142
	   11 R(8,12)         =      1.083567    -0.000448     0.000146     1.083713
	   12 R(8,13)         =      1.084666     0.001293     0.000418     1.085084
	   13 B(1,2,3)        =    110.033526     0.000232     0.998338   111.031864
	   14 B(1,2,4)        =    107.594286    -0.000090     0.047994   107.642280
	   15 B(2,3,5)        =    110.729999     0.000031     0.285049   111.015048
	   16 B(2,3,6)        =    114.747603    -0.000254    -1.816088   112.931515
	   17 B(2,3,7)        =    106.810799     0.000144     1.022074   107.832873
	   18 B(3,2,4)        =    111.499801    -0.000043     0.047756   111.547556
	   19 B(3,5,8)        =    113.108015    -0.000074    -0.233747   112.874269
	   20 B(3,5,9)        =    109.023803     0.000035     0.148991   109.172794
	   21 B(3,5,10)       =    108.663594     0.000000    -0.086274   108.577320
	   22 B(5,3,6)        =    109.150520     0.000109     0.274004   109.424524
	   23 B(5,3,7)        =    108.356784     0.000001     0.814442   109.171225
	   24 B(5,8,11)       =    111.354236     0.000014     0.057250   111.411487
	   25 B(5,8,12)       =    111.274730    -0.000052    -0.226887   111.047843
	   26 B(5,8,13)       =    110.891636     0.000051     0.223814   111.115451
	   27 B(6,3,7)        =    106.774086    -0.000023    -0.485329   106.288756
	   28 B(8,5,9)        =    109.262954     0.000017     0.074873   109.337827
	   29 B(8,5,10)       =    109.943386     0.000043     0.175038   110.118424
	   30 B(9,5,10)       =    106.629088    -0.000020    -0.070641   106.558446
	   31 B(11,8,12)      =    107.676532     0.000011     0.004418   107.680950
	   32 B(11,8,13)      =    107.846238    -0.000032    -0.119617   107.726620
	   33 B(12,8,13)      =    107.626502     0.000006     0.057787   107.684288
	   34 D(1,2,3,5)      =     54.103262    -0.000005    -0.780299    53.322963
	   35 *D(1,2,3,6)     =    -70.000073     0.000000    -0.000000   -70.000073
	   36 D(1,2,3,7)      =    171.885363     0.000018     0.984232   172.869595
	   37 D(2,3,5,8)      =    175.526754     0.000034     2.466089   177.992843
	   38 D(2,3,5,9)      =    -62.702105     0.000033     2.511318   -60.190787
	   39 D(2,3,5,10)     =     53.145004     0.000033     2.460812    55.605816
	   40 D(3,5,8,11)     =     59.936914     0.000003    -0.254714    59.682200
	   41 D(3,5,8,12)     =   -179.923752     0.000000    -0.364063  -180.287815
	   42 D(3,5,8,13)     =    -60.158594     0.000002    -0.292806   -60.451401
	   43 D(4,2,3,5)      =    173.406747    -0.000003    -0.022193   173.384554
	   44 D(4,2,3,6)      =     49.303413     0.000003     0.758105    50.061518
	   45 D(4,2,3,7)      =    -68.811152     0.000021     1.742337   -67.068814
	   46 D(6,3,5,8)      =    -57.226346    -0.000018     0.533084   -56.693262
	   47 D(6,3,5,9)      =     64.544795    -0.000018     0.578313    65.123108
	   48 D(6,3,5,10)     =   -179.608096    -0.000019     0.527807  -179.080289
	   49 D(7,3,5,8)      =     58.693608    -0.000010     0.555785    59.249393
	   50 D(7,3,5,9)      =   -179.535251    -0.000011     0.601014  -178.934237
	   51 D(7,3,5,10)     =    -63.688141    -0.000012     0.550508   -63.137633
	   52 D(9,5,8,11)     =    -61.699832     0.000001    -0.341250   -62.041082
	   53 D(9,5,8,12)     =     58.439501    -0.000001    -0.450598    57.988903
	   54 D(9,5,8,13)     =    178.204659     0.000000    -0.379341   177.825317
	   55 D(10,5,8,11)    =   -178.398079    -0.000001    -0.400299  -178.798378
	   56 D(10,5,8,12)    =    -58.258745    -0.000004    -0.509648   -58.768393
	   57 D(10,5,8,13)    =     61.506413    -0.000002    -0.438391    61.068021
	 ---------------------------------------------------------------------------
	Successfully symmetrized geometry.

  ==> Convergence Check <==

  Measures of convergence in internal coordinates in au.
  Criteria marked as inactive (o), active & met (*), and active & unmet ( ).
  ---------------------------------------------------------------------------------------------
   Step     Total Energy     Delta E     MAX Force     RMS Force      MAX Disp      RMS Disp   
  ---------------------------------------------------------------------------------------------
    Convergence Criteria    1.00e-06 *    3.00e-04 *             o    1.20e-03 *             o
  ---------------------------------------------------------------------------------------------
      2    -173.35207774   -1.73e-03      3.34e-03      9.95e-04 o    4.38e-02      1.34e-02 o  ~
  ---------------------------------------------------------------------------------------------

	Writing optimization data to binary file.
	Structure for next step:
	Cartesian Geometry (in Angstrom)
	    H    -1.8672739359   0.7668397602  -0.9146836465
	    N    -1.8515913952   0.1378916259  -0.1387732349
	    C    -0.5542180057  -0.5107632568  -0.0182954820
	    H    -2.5827840314  -0.5274062740  -0.2739667776
	    C     0.5676923203   0.5165308447   0.0242777757
	    H    -0.3607745209  -1.2262859161  -0.8187340146
	    H    -0.5516724984  -1.0799151736   0.9060447055
	    C     1.9439571124  -0.1158173116   0.1992893484
	    H     0.5532806907   1.0996546362  -0.8941640888
	    H     0.3702367190   1.2105176936   0.8342011441
	    H     2.1720244128  -0.7991889140  -0.6122046210
	    H     2.7198903832   0.6404270188   0.2206503501
	    H     2.0023348608  -0.6742903761   1.1277863866
			--------------------------
			 OPTKING Finished Execution 
			--------------------------

    Structure for next step:
    Molecular point group: c1
    Full point group: C1

    Geometry (in Angstrom), charge = 0, multiplicity = 1:

    H           -1.867877935624     0.766568091783    -0.916234444682
    N           -1.852195394858     0.137619957507    -0.140324033040
    C           -0.554822005416    -0.511034925191    -0.019846280210
    H           -2.583388031106    -0.527677942413    -0.275517575751
    C            0.567088320610     0.516259176347     0.022726977563
    H           -0.361378520559    -1.226557584469    -0.820284812779
    H           -0.552276498113    -1.080186841973     0.904493907362
    C            1.943353112734    -0.116088979955     0.197738550256
    H            0.552676691029     1.099382967760    -0.895714887010
    H            0.369632719343     1.210246025191     0.832650345894
    H            2.171420413159    -0.799460582407    -0.613755419197
    H            2.719286383499     0.640155350430     0.219099551945
    H            2.001730861073    -0.674562044550     1.126235588414

gradient() will perform analytic gradient computation.

*** tstart() called on cx1-28-12-4
*** at Sat Sep 10 15:45:55 2016


         ---------------------------------------------------------
                                   SCF
            by Justin Turney, Rob Parrish, and Andy Simmonett
                              RHF Reference
                        4 Threads,   2000 MiB Core
         ---------------------------------------------------------

  ==> Geometry <==

    Molecular point group: c1
    Full point group: C1

    Geometry (in Angstrom), charge = 0, multiplicity = 1:

       Center              X                  Y                   Z               Mass       
    ------------   -----------------  -----------------  -----------------  -----------------
           H         -1.867877935624     0.766568091783    -0.916234444682     1.007825032070
           N         -1.852195394858     0.137619957507    -0.140324033040    14.003074004780
           C         -0.554822005416    -0.511034925191    -0.019846280210    12.000000000000
           H         -2.583388031106    -0.527677942413    -0.275517575751     1.007825032070
           C          0.567088320610     0.516259176347     0.022726977563    12.000000000000
           H         -0.361378520559    -1.226557584469    -0.820284812779     1.007825032070
           H         -0.552276498113    -1.080186841973     0.904493907362     1.007825032070
           C          1.943353112734    -0.116088979955     0.197738550256    12.000000000000
           H          0.552676691029     1.099382967760    -0.895714887010     1.007825032070
           H          0.369632719343     1.210246025191     0.832650345894     1.007825032070
           H          2.171420413159    -0.799460582407    -0.613755419197     1.007825032070
           H          2.719286383499     0.640155350430     0.219099551945     1.007825032070
           H          2.001730861073    -0.674562044550     1.126235588414     1.007825032070

  Running in c1 symmetry.

  Rotational constants: A =      0.85472  B =      0.12527  C =      0.11697 [cm^-1]
  Rotational constants: A =  25623.77878  B =   3755.42766  C =   3506.54867 [MHz]
  Nuclear repulsion =  131.981851383419581

  Charge       = 0
  Multiplicity = 1
  Electrons    = 34
  Nalpha       = 17
  Nbeta        = 17

  ==> Algorithm <==

  SCF Algorithm Type is DF.
  DIIS enabled.
  MOM disabled.
  Fractional occupation disabled.
  Guess Type is READ.
  Energy threshold   = 1.00e-08
  Density threshold  = 1.00e-08
  Integral threshold = 0.00e+00

  ==> Primary Basis <==

  Basis Set: CC-PVTZ
    Number of shells: 94
    Number of basis function: 246
    Number of Cartesian functions: 275
    Spherical Harmonics?: true
    Max angular momentum: 3

  ==> Pre-Iterations <==

   -------------------------------------------------------
    Irrep   Nso     Nmo     Nalpha   Nbeta   Ndocc  Nsocc
   -------------------------------------------------------
     A        246     246       0       0       0       0
   -------------------------------------------------------
    Total     246     246      17      17      17       0
   -------------------------------------------------------

  ==> Integral Setup <==

  ==> DFJK: Density-Fitted J/K Matrices <==

    J tasked:                  Yes
    K tasked:                  Yes
    wK tasked:                  No
    OpenMP threads:              4
    Integrals threads:           4
    Memory (MB):              1430
    Algorithm:                Core
    Integral Cache:           NONE
    Schwarz Cutoff:          1E-12
    Fitting Condition:       1E-12

   => Auxiliary Basis Set <=

  Basis Set: 
    Number of shells: 190
    Number of basis function: 586
    Number of Cartesian functions: 699
    Spherical Harmonics?: true
    Max angular momentum: 4

  Minimum eigenvalue in the overlap matrix is 5.8343049717E-04.
  Using Symmetric Orthogonalization.
  SCF Guess: Reading in previously saved MOs, projecting if necessary.

  Using orbitals from previous SCF, no projection.
  Recomputing DOCC and SOCC from number of alpha and beta electrons from previous calculation.
              A 
    DOCC [    17 ]

  ==> Iterations <==

                           Total Energy        Delta E     RMS |[F,P]|

   @DF-RHF iter   0:  -173.35055535003610   -1.73351e+02   2.07659e-04 
   @DF-RHF iter   1:  -173.35224419761025   -1.68885e-03   3.40732e-05 
   @DF-RHF iter   2:  -173.35230702019007   -6.28226e-05   1.14434e-05 DIIS
   @DF-RHF iter   3:  -173.35231659564042   -9.57545e-06   3.17888e-06 DIIS
   @DF-RHF iter   4:  -173.35231715677875   -5.61138e-07   9.76602e-07 DIIS
   @DF-RHF iter   5:  -173.35231722344778   -6.66690e-08   3.39728e-07 DIIS
   @DF-RHF iter   6:  -173.35231723188983   -8.44204e-09   9.08843e-08 DIIS
   @DF-RHF iter   7:  -173.35231723251675   -6.26926e-10   2.62913e-08 DIIS
   @DF-RHF iter   8:  -173.35231723256274   -4.59863e-11   6.49748e-09 DIIS

  ==> Post-Iterations <==

    Orbital Energies (a.u.)
    -----------------------

    Doubly Occupied:                                                      

       1A    -15.526062     2A    -11.238328     3A    -11.212567  
       4A    -11.208061     5A     -1.177361     6A     -1.036962  
       7A     -0.899441     8A     -0.802140     9A     -0.657766  
      10A     -0.636467    11A     -0.604202    12A     -0.563625  
      13A     -0.535323    14A     -0.493746    15A     -0.476594  
      16A     -0.470262    17A     -0.383228  

    Virtual:                                                              

      18A      0.142744    19A      0.155139    20A      0.174694  
      21A      0.190947    22A      0.211543    23A      0.227054  
      24A      0.240663    25A      0.250601    26A      0.261677  
      27A      0.307153    28A      0.342053    29A      0.363879  
      30A      0.405683    31A      0.418634    32A      0.452286  
      33A      0.458745    34A      0.496627    35A      0.515059  
      36A      0.533290    37A      0.572324    38A      0.585204  
      39A      0.607848    40A      0.623024    41A      0.628374  
      42A      0.647019    43A      0.657781    44A      0.668091  
      45A      0.679740    46A      0.687932    47A      0.693011  
      48A      0.714731    49A      0.730202    50A      0.741145  
      51A      0.765342    52A      0.828652    53A      0.850487  
      54A      0.886873    55A      0.915556    56A      0.939824  
      57A      0.968385    58A      0.983747    59A      1.013111  
      60A      1.076916    61A      1.094123    62A      1.126313  
      63A      1.133679    64A      1.169596    65A      1.193530  
      66A      1.229851    67A      1.238497    68A      1.259746  
      69A      1.279602    70A      1.298692    71A      1.309167  
      72A      1.335296    73A      1.344721    74A      1.377132  
      75A      1.393702    76A      1.406601    77A      1.414235  
      78A      1.433613    79A      1.459143    80A      1.487865  
      81A      1.496456    82A      1.522962    83A      1.533972  
      84A      1.543740    85A      1.579572    86A      1.603766  
      87A      1.618781    88A      1.640599    89A      1.678935  
      90A      1.712962    91A      1.750257    92A      1.766161  
      93A      1.813838    94A      1.831392    95A      1.840079  
      96A      1.865106    97A      1.909352    98A      1.957923  
      99A      2.010858   100A      2.065369   101A      2.118375  
     102A      2.505386   103A      2.592273   104A      2.600836  
     105A      2.651336   106A      2.675214   107A      2.734176  
     108A      2.753029   109A      2.769798   110A      2.802702  
     111A      2.816503   112A      2.837171   113A      2.889966  
     114A      2.921638   115A      2.955011   116A      2.993112  
     117A      3.033564   118A      3.048334   119A      3.097562  
     120A      3.120670   121A      3.138173   122A      3.150211  
     123A      3.178226   124A      3.192605   125A      3.213629  
     126A      3.242576   127A      3.289502   128A      3.327588  
     129A      3.343756   130A      3.363871   131A      3.382580  
     132A      3.398695   133A      3.401727   134A      3.414867  
     135A      3.435047   136A      3.442204   137A      3.459372  
     138A      3.481797   139A      3.511068   140A      3.543156  
     141A      3.564246   142A      3.592148   143A      3.614037  
     144A      3.647876   145A      3.665684   146A      3.671156  
     147A      3.718867   148A      3.739749   149A      3.755548  
     150A      3.773603   151A      3.801925   152A      3.808524  
     153A      3.824869   154A      3.847143   155A      3.868214  
     156A      3.895686   157A      3.903433   158A      3.935204  
     159A      3.966577   160A      4.005213   161A      4.023996  
     162A      4.054187   163A      4.071991   164A      4.113676  
     165A      4.125941   166A      4.139138   167A      4.142983  
     168A      4.150676   169A      4.169685   170A      4.194035  
     171A      4.224097   172A      4.242183   173A      4.259243  
     174A      4.293103   175A      4.307873   176A      4.328543  
     177A      4.344220   178A      4.355490   179A      4.390570  
     180A      4.417233   181A      4.426095   182A      4.441611  
     183A      4.455954   184A      4.474273   185A      4.518138  
     186A      4.533995   187A      4.576218   188A      4.594434  
     189A      4.610338   190A      4.619815   191A      4.650624  
     192A      4.669312   193A      4.709636   194A      4.746434  
     195A      4.762458   196A      4.770817   197A      4.810297  
     198A      4.868692   199A      4.910124   200A      4.935623  
     201A      5.020550   202A      5.076379   203A      5.087811  
     204A      5.131732   205A      5.187015   206A      5.235861  
     207A      5.250357   208A      5.254344   209A      5.289356  
     210A      5.319730   211A      5.359110   212A      5.364808  
     213A      5.409357   214A      5.451686   215A      5.505436  
     216A      5.566728   217A      5.586583   218A      5.630693  
     219A      5.654513   220A      5.703649   221A      5.731887  
     222A      5.747002   223A      5.766900   224A      5.785317  
     225A      5.846402   226A      5.874654   227A      5.894543  
     228A      5.962796   229A      6.007525   230A      6.017068  
     231A      6.035822   232A      6.150060   233A      6.244700  
     234A      6.305651   235A      6.319670   236A      6.332575  
     237A      6.372625   238A      6.427759   239A      6.480919  
     240A      6.606069   241A      6.718856   242A      7.358160  
     243A     12.975246   244A     13.436055   245A     13.998263  
     246A     14.235912  

    Final Occupation by Irrep:
              A 
    DOCC [    17 ]

  Energy converged.

  @DF-RHF Final Energy:  -173.35231723256274

   => Energetics <=

    Nuclear Repulsion Energy =            131.9818513834195812
    One-Electron Energy =                -494.8240710427566569
    Two-Electron Energy =                 189.4899024267741368
    DFT Exchange-Correlation Energy =       0.0000000000000000
    Empirical Dispersion Energy =           0.0000000000000000
    PCM Polarization Energy =               0.0000000000000000
    EFP Energy =                            0.0000000000000000
    Total Energy =                       -173.3523172325629105


  Saving occupied orbitals to File 180.

*** tstop() called on cx1-28-12-4 at Sat Sep 10 15:45:58 2016
Module time:
	user time   =       9.75 seconds =       0.16 minutes
	system time =       0.24 seconds =       0.00 minutes
	total time  =          3 seconds =       0.05 minutes
Total time:
	user time   =      59.53 seconds =       0.99 minutes
	system time =       1.47 seconds =       0.02 minutes
	total time  =         18 seconds =       0.30 minutes


Properties will be evaluated at   0.000000,   0.000000,   0.000000 Bohr

Properties computed using the SCF density matrix

  Nuclear Dipole Moment: (a.u.)
     X:     2.3020      Y:    -0.5555      Z:    -0.4112

  Electronic Dipole Moment: (a.u.)
     X:    -2.2391      Y:     0.3294      Z:    -0.0066

  Dipole Moment: (a.u.)
     X:     0.0629      Y:    -0.2261      Z:    -0.4178     Total:     0.4792

  Dipole Moment: (Debye)
     X:     0.1599      Y:    -0.5747      Z:    -1.0619     Total:     1.2180


*** tstart() called on cx1-28-12-4
*** at Sat Sep 10 15:45:58 2016


         ------------------------------------------------------------
                                   SCF GRAD                          
                          Rob Parrish, Justin Turney,                
                       Andy Simmonett, and Alex Sokolov              
         ------------------------------------------------------------

  ==> Geometry <==

    Molecular point group: c1
    Full point group: C1

    Geometry (in Angstrom), charge = 0, multiplicity = 1:

       Center              X                  Y                   Z               Mass       
    ------------   -----------------  -----------------  -----------------  -----------------
           H         -1.867877935624     0.766568091783    -0.916234444682     1.007825032070
           N         -1.852195394858     0.137619957507    -0.140324033040    14.003074004780
           C         -0.554822005416    -0.511034925191    -0.019846280210    12.000000000000
           H         -2.583388031106    -0.527677942413    -0.275517575751     1.007825032070
           C          0.567088320610     0.516259176347     0.022726977563    12.000000000000
           H         -0.361378520559    -1.226557584469    -0.820284812779     1.007825032070
           H         -0.552276498113    -1.080186841973     0.904493907362     1.007825032070
           C          1.943353112734    -0.116088979955     0.197738550256    12.000000000000
           H          0.552676691029     1.099382967760    -0.895714887010     1.007825032070
           H          0.369632719343     1.210246025191     0.832650345894     1.007825032070
           H          2.171420413159    -0.799460582407    -0.613755419197     1.007825032070
           H          2.719286383499     0.640155350430     0.219099551945     1.007825032070
           H          2.001730861073    -0.674562044550     1.126235588414     1.007825032070

  Nuclear repulsion =  131.981851383419581

  ==> Basis Set <==

  Basis Set: CC-PVTZ
    Number of shells: 94
    Number of basis function: 246
    Number of Cartesian functions: 275
    Spherical Harmonics?: true
    Max angular momentum: 3

  ==> DFJKGrad: Density-Fitted SCF Gradients <==

    Gradient:                    1
    J tasked:                  Yes
    K tasked:                  Yes
    wK tasked:                  No
    OpenMP threads:              4
    Integrals threads:           4
    Memory (MB):              1430
    Schwarz Cutoff:          0E+00
    Fitting Condition:       1E-12

   => Auxiliary Basis Set <=

  Basis Set: 
    Number of shells: 190
    Number of basis function: 586
    Number of Cartesian functions: 699
    Spherical Harmonics?: true
    Max angular momentum: 4


  -Total Gradient:
     Atom            X                  Y                   Z
    ------   -----------------  -----------------  -----------------
       1        0.000400988717     0.001444918382     0.000456618224
       2       -0.001511897914    -0.001380794775    -0.000378738533
       3        0.001498730801     0.000848908746    -0.000417664749
       4       -0.000310297815    -0.000201844233    -0.000182060921
       5        0.000435526776     0.000384379323    -0.000029370856
       6       -0.000522714620    -0.001050239451     0.000854365128
       7       -0.000157714665    -0.000177478657    -0.000038826846
       8       -0.000064421752    -0.000059237189    -0.000223792863
       9        0.000171038431     0.000254080591    -0.000195007101
      10       -0.000101696015     0.000007673044     0.000090554326
      11        0.000147070414    -0.000124926805    -0.000082833490
      12        0.000044085433     0.000091046928    -0.000025649632
      13       -0.000028697791    -0.000036485904     0.000172407312


*** tstop() called on cx1-28-12-4 at Sat Sep 10 15:46:01 2016
Module time:
	user time   =      12.53 seconds =       0.21 minutes
	system time =       0.29 seconds =       0.00 minutes
	total time  =          3 seconds =       0.05 minutes
Total time:
	user time   =      72.11 seconds =       1.20 minutes
	system time =       1.76 seconds =       0.03 minutes
	total time  =         21 seconds =       0.35 minutes

			-----------------------------------------
			 OPTKING 2.0: for geometry optimizations 
			  - R.A. King,  Bethel University        
			-----------------------------------------

	Previous internal coordinate definitions found.
[...]
           C         -0.554161266505    -0.511500928809    -0.019628017423    12.000000000000
           H         -2.582051548622    -0.530593471702    -0.269765510036     1.007825032070
           C          0.565484712215     0.516431923973     0.021232840253    12.000000000000
           H         -0.360462678167    -1.228651863856    -0.818666086008     1.007825032070
           H         -0.549132375808    -1.077992555746     0.906321433355     1.007825032070
           C          1.942682036153    -0.112781911447     0.198492556620    12.000000000000
           H          0.549762428362     1.096334614687    -0.898736423364     1.007825032070
           H          0.366823188493     1.212591275586     0.828782182405     1.007825032070
           H          2.172438865589    -0.794773023638    -0.613369427241     1.007825032070
           H          2.717359040088     0.644465471884     0.221728365868     1.007825032070
           H          2.000719864874    -0.672326497123     1.126049524955     1.007825032070

  Nuclear repulsion =  132.058495128236501

  ==> Basis Set <==

  Basis Set: CC-PVTZ
    Number of shells: 94
    Number of basis function: 246
    Number of Cartesian functions: 275
    Spherical Harmonics?: true
    Max angular momentum: 3

  ==> DFJKGrad: Density-Fitted SCF Gradients <==

    Gradient:                    1
    J tasked:                  Yes
    K tasked:                  Yes
    wK tasked:                  No
    OpenMP threads:              4
    Integrals threads:           4
    Memory (MB):              1430
    Schwarz Cutoff:          0E+00
    Fitting Condition:       1E-12

   => Auxiliary Basis Set <=

  Basis Set: 
    Number of shells: 190
    Number of basis function: 586
    Number of Cartesian functions: 699
    Spherical Harmonics?: true
    Max angular momentum: 4


  -Total Gradient:
     Atom            X                  Y                   Z
    ------   -----------------  -----------------  -----------------
       1        0.000501590401     0.001145379616     0.000937991630
       2       -0.000843521473    -0.001734244160    -0.000924567170
       3        0.000983417956     0.001669216639    -0.000819155126
       4        0.000002900141    -0.000001461459    -0.000014273664
       5       -0.000041614488    -0.000047782941     0.000009236878
       6       -0.000614556636    -0.001029603859     0.000811009603
       7        0.000006067743     0.000026360030    -0.000002014945
       8        0.000025085350     0.000014367003     0.000001867700
       9       -0.000007681241    -0.000027681605     0.000020832635
      10       -0.000004289805    -0.000026620623    -0.000011155857
      11       -0.000012526687     0.000008753408     0.000010842475
      12        0.000013292476    -0.000010817217    -0.000000807582
      13       -0.000008163736     0.000014135167    -0.000019806577


*** tstop() called on cx1-28-12-4 at Sat Sep 10 15:46:13 2016
Module time:
	user time   =      12.02 seconds =       0.20 minutes
	system time =       0.30 seconds =       0.01 minutes
	total time  =          3 seconds =       0.05 minutes
Total time:
	user time   =     113.60 seconds =       1.89 minutes
	system time =       2.70 seconds =       0.05 minutes
	total time  =         33 seconds =       0.55 minutes

			-----------------------------------------
			 OPTKING 2.0: for geometry optimizations 
			  - R.A. King,  Bethel University        
			-----------------------------------------

	Previous internal coordinate definitions found.
	---Fragment 1 Geometry and Gradient---
	 H          -3.5309577541        1.4397983759       -1.7323340702
	 N          -3.4971378349        0.2547679327       -0.2649626790
	 C          -1.0472130271       -0.9665966722       -0.0370915775
	 H          -4.8793702879       -1.0026763494       -0.5097829341
	 C           1.0686112384        0.9759149026        0.0401242531
	 H          -0.6811757429       -2.3218155353       -1.5470546968
	 H          -1.0377098010       -2.0371107036        1.7126992974
	 C           3.6711370116       -0.2131269254        0.3750965714
	 H           1.0389004278        2.0717721718       -1.6983657058
	 H           0.6931953654        2.2914654220        1.5661713486
	 H           4.1053144964       -1.5019033525       -1.1591002358
	 H           5.1350643905        1.2178632440        0.4190058874
	 H           3.7808126132       -1.2705129514        2.1279252142
	             0.0005015904        0.0011453796        0.0009379916
	            -0.0008435215       -0.0017342442       -0.0009245672
	             0.0009834180        0.0016692166       -0.0008191551
	             0.0000029001       -0.0000014615       -0.0000142737
	            -0.0000416145       -0.0000477829        0.0000092369
	            -0.0006145566       -0.0010296039        0.0008110096
	             0.0000060677        0.0000263600       -0.0000020149
	             0.0000250853        0.0000143670        0.0000018677
	            -0.0000076812       -0.0000276816        0.0000208326
	            -0.0000042898       -0.0000266206       -0.0000111559
	            -0.0000125267        0.0000087534        0.0000108425
	             0.0000132925       -0.0000108172       -0.0000008076
	            -0.0000081637        0.0000141352       -0.0000198066

	---Fragment 1 Intrafragment Coordinates---
	 - Coordinate -           - BOHR/RAD -       - ANG/DEG -
	 R(1,2)           =         1.886430	       0.998256
	 R(2,3)           =         2.746960	       1.453629
	 R(2,4)           =         1.884587	       0.997281
	 R(3,5)           =         2.873330	       1.520501
	 R(3,6)           =         2.061696	       1.091002
	 R(3,7)           =         2.051307	       1.085505
	 R(5,8)           =         2.880828	       1.524468
	 R(5,9)           =         2.055270	       1.087602
	 R(5,10)          =         2.049495	       1.084546
	 R(8,11)          =         2.050174	       1.084906
	 R(8,12)          =         2.047619	       1.083553
	 R(8,13)          =         2.050001	       1.084814
	 B(1,2,3)         =         1.938874	     111.089300
	 B(1,2,4)         =         1.880676	     107.754812
	 B(2,3,5)         =         1.937332	     111.000936
	 B(2,3,6)         =         1.971270	     112.945478
	 B(2,3,7)         =         1.882760	     107.874212
	 B(3,2,4)         =         1.947915	     111.607336
	 B(3,5,8)         =         1.970690	     112.912209
	 B(3,5,9)         =         1.904018	     109.092184
	 B(3,5,10)        =         1.895550	     108.606994
	 B(5,3,6)         =         1.910634	     109.471287
	 B(5,3,7)         =         1.903368	     109.054932
	 B(5,8,11)        =         1.943100	     111.331446
	 B(5,8,12)        =         1.938979	     111.095286
	 B(5,8,13)        =         1.939755	     111.139796
	 B(6,3,7)         =         1.855500	     106.312323
	 B(8,5,9)         =         1.908675	     109.359008
	 B(8,5,10)        =         1.921795	     110.110754
	 B(9,5,10)        =         1.859732	     106.554769
	 B(11,8,12)       =         1.879636	     107.695187
	 B(11,8,13)       =         1.879975	     107.714645
	 B(12,8,13)       =         1.879562	     107.690988
	 D(1,2,3,5)       =         0.931726	      53.383959
	*D(1,2,3,6)       =        -1.221732	     -70.000073
	 D(1,2,3,7)       =         3.016034	     172.806011
	 D(2,3,5,8)       =         3.105068	     177.907320
	 D(2,3,5,9)       =        -1.052107	     -60.281266
	 D(2,3,5,10)      =         0.968371	      55.483599
	 D(3,5,8,11)      =         1.044824	      59.864026
	 D(3,5,8,12)      =         3.139678	     179.890326
	 D(3,5,8,13)      =        -1.050984	     -60.216947
	 D(4,2,3,5)       =         3.031078	     173.667952
	 D(4,2,3,6)       =         0.877620	      50.283920
	 D(4,2,3,7)       =        -1.167800	     -66.909997
	 D(6,3,5,8)       =        -0.990249	     -56.737110
	 D(6,3,5,9)       =         1.135761	      65.074304
	 D(6,3,5,10)      =        -3.126946	    -179.160831
	 D(7,3,5,8)       =         1.033140	      59.194565
	 D(7,3,5,9)       =        -3.124035	    -178.994021
	 D(7,3,5,10)      =        -1.103557	     -63.229156
	 D(9,5,8,11)      =        -1.078560	     -61.796937
	 D(9,5,8,12)      =         1.016294	      58.229363
	 D(9,5,8,13)      =         3.108817	     178.122090
	 D(10,5,8,11)     =        -3.116421	    -178.557783
	 D(10,5,8,12)     =        -1.021567	     -58.531483
	 D(10,5,8,13)     =         1.070956	      61.361244

	Current energy   :      -173.3523228183

	Energy change for the previous step:
		Projected    :        -0.0000048640
		Actual       :        -0.0000005687
	Energy ratio indicates iffy step: Trust radius decreased to 7.812e-03.


	Performing BFGS update.
	Previous computed or guess Hessian on step 1.
	Steps to be used in Hessian update: 4 3
	Taking RFO optimization step.
	Going to follow RFO solution 1.
	Using RFO vector 1.
	Norm of target step-size    0.00322
	Projected energy change by RFO approximation:         0.0000001569

	Back-transformation to cartesian coordinates...
	Could not converge backtransformation.
	Using first guess instead.

	Back-transformation to cartesian coordinates to adjust frozen coordinates...
	Successfully converged to displaced geometry.

	--- Internal Coordinate Step in ANG or DEG, aJ/ANG or AJ/DEG ---
	 ---------------------------------------------------------------------------
	   Coordinate                Previous        Force       Change         New 
	   ----------                --------       ------       ------       ------
	    1 R(1,2)          =      0.998256     0.000157     0.000004     0.998260
	    2 R(2,3)          =      1.453629    -0.000329    -0.000088     1.453540
	    3 R(2,4)          =      0.997281    -0.000006    -0.000012     0.997269
	    4 R(3,5)          =      1.520501     0.000637     0.000118     1.520619
	    5 R(3,6)          =      1.091002     0.000217     0.000042     1.091044
	    6 R(3,7)          =      1.085505     0.000127     0.000030     1.085535
	    7 R(5,8)          =      1.524468    -0.000034    -0.000006     1.524462
	    8 R(5,9)          =      1.087602     0.000266     0.000042     1.087644
	    9 R(5,10)         =      1.084546     0.000203     0.000033     1.084579
	   10 R(8,11)         =      1.084906     0.000134     0.000022     1.084928
	   11 R(8,12)         =      1.083553    -0.000016    -0.000005     1.083548
	   12 R(8,13)         =      1.084814     0.000203     0.000030     1.084844
	   13 B(1,2,3)        =    111.089300     0.000001     0.014311   111.103611
	   14 B(1,2,4)        =    107.754812    -0.000000     0.011205   107.766016
	   15 B(2,3,5)        =    111.000936    -0.000002    -0.001721   110.999214
	   16 B(2,3,6)        =    112.945478     0.000002     0.007733   112.953210
	   17 B(2,3,7)        =    107.874212     0.000000     0.001963   107.876175
	   18 B(3,2,4)        =    111.607336     0.000000     0.011158   111.618495
	   19 B(3,5,8)        =    112.912209    -0.000003    -0.005724   112.906485
	   20 B(3,5,9)        =    109.092184     0.000002     0.011179   109.103363
	   21 B(3,5,10)       =    108.606994     0.000001     0.002865   108.609859
	   22 B(5,3,6)        =    109.471287     0.000000    -0.002316   109.468972
	   23 B(5,3,7)        =    109.054932     0.000001     0.005580   109.060512
	   24 B(5,8,11)       =    111.331446     0.000001     0.005693   111.337139
	   25 B(5,8,12)       =    111.095286    -0.000002    -0.010264   111.085022
	   26 B(5,8,13)       =    111.139796     0.000001     0.004141   111.143938
	   27 B(6,3,7)        =    106.312323    -0.000001    -0.011481   106.300842
	   28 B(8,5,9)        =    109.359008     0.000001     0.000622   109.359631
	   29 B(8,5,10)       =    110.110754     0.000000    -0.003333   110.107421
	   30 B(9,5,10)       =    106.554769    -0.000001    -0.005483   106.549286
	   31 B(11,8,12)      =    107.695187     0.000000     0.000114   107.695302
	   32 B(11,8,13)      =    107.714645    -0.000001     0.001213   107.715857
	   33 B(12,8,13)      =    107.690988     0.000000    -0.000889   107.690099
	   34 D(1,2,3,5)      =     53.383959    -0.000000     0.001363    53.385322
	   35 *D(1,2,3,6)     =    -70.000073    -0.000000     0.000000   -70.000073
	   36 D(1,2,3,7)      =    172.806011     0.000000     0.008390   172.814400
	   37 D(2,3,5,8)      =    177.907320    -0.000000    -0.048621   177.858699
	   38 D(2,3,5,9)      =    -60.281266    -0.000000    -0.043700   -60.324966
	   39 D(2,3,5,10)     =     55.483599    -0.000000    -0.042602    55.440998
	   40 D(3,5,8,11)     =     59.864026     0.000000     0.042668    59.906694
	   41 D(3,5,8,12)     =    179.890326     0.000000     0.039716   179.930041
	   42 D(3,5,8,13)     =    -60.216947    -0.000000     0.034502   -60.182445
	   43 D(4,2,3,5)      =    173.667952     0.000000     0.032973   173.700925
	   44 D(4,2,3,6)      =     50.283920     0.000000     0.031611    50.315531
	   45 D(4,2,3,7)      =    -66.909997     0.000000     0.040000   -66.869996
	   46 D(6,3,5,8)      =    -56.737110    -0.000000    -0.041588   -56.778698
	   47 D(6,3,5,9)      =     65.074304    -0.000000    -0.036666    65.037638
	   48 D(6,3,5,10)     =   -179.160831     0.000000    -0.035568  -179.196399
	   49 D(7,3,5,8)      =     59.194565    -0.000000    -0.053494    59.141071
	   50 D(7,3,5,9)      =   -178.994021    -0.000000    -0.048572  -179.042593
	   51 D(7,3,5,10)     =    -63.229156     0.000000    -0.047474   -63.276630
	   52 D(9,5,8,11)     =    -61.796937     0.000000     0.031797   -61.765140
	   53 D(9,5,8,12)     =     58.229363    -0.000000     0.028845    58.258208
	   54 D(9,5,8,13)     =    178.122090    -0.000000     0.023631   178.145721
	   55 D(10,5,8,11)    =   -178.557783     0.000000     0.040003  -178.517780
	   56 D(10,5,8,12)    =    -58.531483     0.000000     0.037050   -58.494433
	   57 D(10,5,8,13)    =     61.361244    -0.000000     0.031837    61.393080
	 ---------------------------------------------------------------------------
	Successfully symmetrized geometry.

  ==> Convergence Check <==

  Measures of convergence in internal coordinates in au.
  Criteria marked as inactive (o), active & met (*), and active & unmet ( ).
  ---------------------------------------------------------------------------------------------
   Step     Total Energy     Delta E     MAX Force     RMS Force      MAX Disp      RMS Disp   
  ---------------------------------------------------------------------------------------------
    Convergence Criteria    1.00e-06 *    3.00e-04 *             o    1.20e-03 *             o
  ---------------------------------------------------------------------------------------------
      5    -173.35232282   -5.69e-07 *    7.73e-05 *    1.76e-05 o    9.34e-04 *    4.26e-04 o  ~
  ---------------------------------------------------------------------------------------------


  **** Optimization is complete! (in 5 steps) ****

  ==> Optimization Summary <==

  Measures of convergence in internal coordinates in au.
  --------------------------------------------------------------------------------------------------------------- ~
   Step         Total Energy             Delta E       MAX Force       RMS Force        MAX Disp        RMS Disp  ~
  --------------------------------------------------------------------------------------------------------------- ~
      1    -173.350350163451   -173.350350163451      0.00927949      0.00275504      0.12077270      0.03857809  ~
      2    -173.352077735803     -0.001727572352      0.00333972      0.00099516      0.04383077      0.01340148  ~
      3    -173.352317232563     -0.000239496760      0.00121407      0.00023200      0.00781776      0.00336511  ~
      4    -173.352322249652     -0.000005017090      0.00011420      0.00004489      0.00363690      0.00165106  ~
      5    -173.352322818328     -0.000000568676      0.00007728      0.00001761      0.00093364      0.00042646  ~
  --------------------------------------------------------------------------------------------------------------- ~

	Writing optimization data to binary file.
	Final energy is   -173.3523228183282
	Final (previous) structure:
	Cartesian Geometry (in Angstrom)
	    H    -1.8685023680   0.7619084855  -0.9167117076
	    N    -1.8506056375   0.1348173835  -0.1402122109
	    C    -0.5541612665  -0.5115009288  -0.0196280174
	    H    -2.5820515486  -0.5305934717  -0.2697655100
	    C     0.5654847122   0.5164319240   0.0212328403
	    H    -0.3604626782  -1.2286518639  -0.8186660860
	    H    -0.5491323758  -1.0779925557   0.9063214334
	    C     1.9426820362  -0.1127819114   0.1984925566
	    H     0.5497624284   1.0963346147  -0.8987364234
	    H     0.3668231885   1.2125912756   0.8287821824
	    H     2.1724388656  -0.7947730236  -0.6133694272
	    H     2.7173590401   0.6444654719   0.2217283659
	    H     2.0007198649  -0.6723264971   1.1260495250
	Saving final (previous) structure.
			--------------------------
			 OPTKING Finished Execution 
			--------------------------

    Final optimized geometry and variables:
    Molecular point group: c1
    Full point group: C1

    Geometry (in Angstrom), charge = 0, multiplicity = 1:

    H           -1.868502367957     0.761908485475    -0.916711707602
    N           -1.850605637531     0.134817383456    -0.140212210853
    C           -0.554161266505    -0.511500928809    -0.019628017423
    H           -2.582051548622    -0.530593471702    -0.269765510036
    C            0.565484712215     0.516431923973     0.021232840253
    H           -0.360462678167    -1.228651863856    -0.818666086008
    H           -0.549132375808    -1.077992555746     0.906321433355
    C            1.942682036153    -0.112781911447     0.198492556620
    H            0.549762428362     1.096334614687    -0.898736423364
    H            0.366823188493     1.212591275586     0.828782182405
    H            2.172438865589    -0.794773023638    -0.613369427241
    H            2.717359040088     0.644465471884     0.221728365868
    H            2.000719864874    -0.672326497123     1.126049524955

	Cleaning optimization helper files.


Properties will be evaluated at   0.000000,   0.000000,   0.000000 Bohr

Properties computed using the  density matrix

  Nuclear Dipole Moment: (a.u.)
     X:     2.2993      Y:    -0.5526      Z:    -0.4068

  Electronic Dipole Moment: (a.u.)
     X:    -2.2398      Y:     0.3267      Z:    -0.0089

  Dipole Moment: (a.u.)
     X:     0.0595      Y:    -0.2259      Z:    -0.4157     Total:     0.4769

  Dipole Moment: (Debye)
     X:     0.1512      Y:    -0.5743      Z:    -1.0567     Total:     1.2121

  Quadrupole Moment: (Debye Ang)
    XX:   -27.5783     YY:   -27.2744     ZZ:   -26.9876
    XY:     1.9786     XZ:     2.5608     YZ:    -1.0961

  Traceless Quadrupole Moment: (Debye Ang)
    XX:    -0.2981     YY:     0.0057     ZZ:     0.2925
    XY:     1.9786     XZ:     2.5608     YZ:    -1.0961

  Mulliken Charges: (a.u.)
   Center  Symbol    Alpha    Beta     Spin     Total
       1     H     0.43052  0.43052  0.00000  0.13895
       2     N     3.69098  3.69098  0.00000 -0.38195
       3     C     3.01795  3.01795  0.00000 -0.03589
       4     H     0.42981  0.42981  0.00000  0.14038
       5     C     3.08071  3.08071  0.00000 -0.16142
       6     H     0.47061  0.47061  0.00000  0.05878
       7     H     0.45895  0.45895  0.00000  0.08209
       8     C     3.15228  3.15228  0.00000 -0.30457
       9     H     0.46064  0.46064  0.00000  0.07871
      10     H     0.44861  0.44861  0.00000  0.10277
      11     H     0.45664  0.45664  0.00000  0.08672
      12     H     0.44779  0.44779  0.00000  0.10442
      13     H     0.45449  0.45449  0.00000  0.09101

   Total alpha = 17.00000, Total beta = 17.00000, Total charge = -0.00000


*** Psi4 exiting successfully. Buy a developer a beer!
