    -----------------------------------------------------------------------
          Psi4: An Open-Source Ab Initio Electronic Structure Package
                              Psi4 (no tag) Driver

                          Git: Rev {detached?}  

    J. M. Turney, A. C. Simmonett, R. M. Parrish, E. G. Hohenstein,
    F. A. Evangelista, J. T. Fermann, B. J. Mintz, L. A. Burns, J. J. Wilke,
    M. L. Abrams, N. J. Russ, M. L. Leininger, C. L. Janssen, E. T. Seidl,
    W. D. Allen, H. F. Schaefer, R. A. King, E. F. Valeev, C. D. Sherrill,
    and T. D. Crawford, WIREs Comput. Mol. Sci. 2, 556-565 (2012)
    (doi: 10.1002/wcms.93)

                         Additional Contributions by
    A. E. DePrince, M. Saitow, U. Bozkaya, A. Yu. Sokolov
    -----------------------------------------------------------------------


    Psi4 started on: Fri Sep  2 12:32:45 2016

    Process ID:   5393
    PSI4DATADIR: /export131/home/mjharvey/miniconda3/share
    Memory level set to 256.000 MB

  ==> Input File <==

--------------------------------------------------------------------------
set {
	reference rhf
	basis 6-31G*
}


set_num_threads( 4 )
memory 2 gb

molecule MOL {
0 1

H	 -3.161837	 0.500524	 -0.000234
C	 -2.367097	 -0.232926	 -0.000000
O	 -1.158440	 0.455814	 -0.000122
H	 -2.468853	 -0.861886	 -0.882833
H	 -2.468942	 -0.861421	 0.883154
C	 -0.029776	 -0.365156	 0.000148
C	 1.212217	 0.508981	 0.000007
H	 -0.036772	 -1.013236	 -0.877259
H	 -0.036869	 -1.012778	 0.877897
C	 2.283432	 0.002513	 0.964822
H	 1.606087	 0.547263	 -1.010964
H	 0.920564	 1.521617	 0.261170
H	 2.607246	 -1.001761	 0.705976
H	 3.157519	 0.644707	 0.944684
H	 1.916609	 -0.021174	 1.987213

	symmetry c1
}
set optking {
	frozen_dihedral = ("
		11 7 6 8
	")
}

ee = optimize('scf')
oeprop('DIPOLE', 'QUADRUPOLE', 'MULLIKEN_CHARGES')
f=open( 'psi4out.xyz', 'w' )
f.write( "15  " )
f.write( str(ee) + "\n" )
f.write( MOL.save_string_xyz() )
f.close()
--------------------------------------------------------------------------

  Memory set to   2.000 GiB by Python script.
gradient() will perform analytic gradient computation.

*** tstart() called on cx1-1-2-3.cx1.hpc.ic.ac.uk
*** at Fri Sep  2 12:32:46 2016


         ---------------------------------------------------------
                                   SCF
            by Justin Turney, Rob Parrish, and Andy Simmonett
                              RHF Reference
                        4 Threads,   2000 MiB Core
         ---------------------------------------------------------

  ==> Geometry <==

    Molecular point group: c1
    Full point group: C1

    Geometry (in Angstrom), charge = 0, multiplicity = 1:

       Center              X                  Y                   Z               Mass       
    ------------   -----------------  -----------------  -----------------  -----------------
           H         -3.117378755305     0.437325505895    -0.195840352396     1.007825032070
           C         -2.322638755305    -0.296124494105    -0.195606352396    12.000000000000
           O         -1.113981755305     0.392615505895    -0.195728352396    15.994914619560
           H         -2.424394755305    -0.925084494105    -1.078439352396     1.007825032070
           H         -2.424483755305    -0.924619494105     0.687547647604     1.007825032070
           C          0.014682244695    -0.428354494105    -0.195458352396    12.000000000000
           C          1.256675244695     0.445782505895    -0.195599352396    12.000000000000
           H          0.007686244695    -1.076434494105    -1.072865352396     1.007825032070
           H          0.007589244695    -1.075976494105     0.682290647604     1.007825032070
           C          2.327890244695    -0.060685494105     0.769215647604    12.000000000000
           H          1.650545244695     0.484064505895    -1.206570352396     1.007825032070
           H          0.965022244695     1.458418505895     0.065563647604     1.007825032070
           H          2.651704244695    -1.064959494105     0.510369647604     1.007825032070
           H          3.201977244695     0.581508505895     0.749077647604     1.007825032070
           H          1.961067244695    -0.084372494105     1.791606647604     1.007825032070

  Running in c1 symmetry.

  Rotational constants: A =      0.60438  B =      0.07266  C =      0.07057 [cm^-1]
  Rotational constants: A =  18118.82337  B =   2178.18174  C =   2115.54141 [MHz]
  Nuclear repulsion =  190.246295073457787

  Charge       = 0
  Multiplicity = 1
  Electrons    = 42
  Nalpha       = 21
  Nbeta        = 21

  ==> Algorithm <==

  SCF Algorithm Type is DF.
  DIIS enabled.
  MOM disabled.
  Fractional occupation disabled.
  Guess Type is CORE.
  Energy threshold   = 1.00e-08
  Density threshold  = 1.00e-08
  Integral threshold = 0.00e+00

  ==> Primary Basis <==

  Basis Set: 6-31G*
    Number of shells: 50
    Number of basis function: 95
    Number of Cartesian functions: 95
    Spherical Harmonics?: false
    Max angular momentum: 2

  ==> Pre-Iterations <==

   -------------------------------------------------------
    Irrep   Nso     Nmo     Nalpha   Nbeta   Ndocc  Nsocc
   -------------------------------------------------------
     A         95      95       0       0       0       0
   -------------------------------------------------------
    Total      95      95      21      21      21       0
   -------------------------------------------------------

 OEINTS: Overlap, kinetic, potential, dipole, and quadrupole integrals
         stored in file 35.

  ==> Integral Setup <==

  ==> DFJK: Density-Fitted J/K Matrices <==

    J tasked:                  Yes
    K tasked:                  Yes
    wK tasked:                  No
    OpenMP threads:              4
    Integrals threads:           4
    Memory (MB):              1430
    Algorithm:                Core
    Integral Cache:           NONE
    Schwarz Cutoff:          1E-12
    Fitting Condition:       1E-12

   => Auxiliary Basis Set <=

  Basis Set: 
    Number of shells: 210
    Number of basis function: 655
    Number of Cartesian functions: 655
    Spherical Harmonics?: false
    Max angular momentum: 3

  Minimum eigenvalue in the overlap matrix is 4.1745313849E-03.
  Using Symmetric Orthogonalization.
  SCF Guess: Core (One-Electron) Hamiltonian.

  ==> Iterations <==

                           Total Energy        Delta E     RMS |[F,P]|

   @DF-RHF iter   1:  -181.93527293710517   -1.81935e+02   8.12511e-02 
   @DF-RHF iter   2:  -145.30514200319257    3.66301e+01   7.11566e-02 DIIS
   @DF-RHF iter   3:  -194.94402063008849   -4.96389e+01   5.55734e-02 DIIS
   @DF-RHF iter   4:  -208.81863755608694   -1.38746e+01   5.75832e-02 DIIS
   @DF-RHF iter   5:  -231.77923900117273   -2.29606e+01   8.69645e-03 DIIS
   @DF-RHF iter   6:  -232.07465736596205   -2.95418e-01   3.22716e-03 DIIS
   @DF-RHF iter   7:  -232.12462160631392   -4.99642e-02   1.38463e-03 DIIS
   @DF-RHF iter   8:  -232.13341863247396   -8.79703e-03   3.11341e-04 DIIS
   @DF-RHF iter   9:  -232.13414604781210   -7.27415e-04   1.16200e-04 DIIS
   @DF-RHF iter  10:  -232.13424532922781   -9.92814e-05   2.74189e-05 DIIS
   @DF-RHF iter  11:  -232.13425208212217   -6.75289e-06   5.81899e-06 DIIS
   @DF-RHF iter  12:  -232.13425236393905   -2.81817e-07   1.59841e-06 DIIS
   @DF-RHF iter  13:  -232.13425238470020   -2.07611e-08   3.45212e-07 DIIS
   @DF-RHF iter  14:  -232.13425238594803   -1.24783e-09   7.79372e-08 DIIS
   @DF-RHF iter  15:  -232.13425238601101   -6.29825e-11   1.56487e-08 DIIS
   @DF-RHF iter  16:  -232.13425238601363   -2.61480e-12   4.19419e-09 DIIS

  ==> Post-Iterations <==

    Orbital Energies (a.u.)
    -----------------------

    Doubly Occupied:                                                      

       1A    -20.553412     2A    -11.265081     3A    -11.263491  
       4A    -11.212480     5A    -11.211377     6A     -1.378346  
       7A     -1.056540     8A     -0.954294     9A     -0.878234  
      10A     -0.808451    11A     -0.672352    12A     -0.656694  
      13A     -0.631343    14A     -0.599080    15A     -0.569848  
      16A     -0.543741    17A     -0.496095    18A     -0.488773  
      19A     -0.478414    20A     -0.461958    21A     -0.411553  

    Virtual:                                                              

      22A      0.235456    23A      0.248863    24A      0.287246  
      25A      0.299892    26A      0.312802    27A      0.323955  
      28A      0.327526    29A      0.330052    30A      0.344098  
      31A      0.352957    32A      0.370073    33A      0.432021  
      34A      0.447433    35A      0.481272    36A      0.715266  
      37A      0.730189    38A      0.756443    39A      0.774846  
      40A      0.794195    41A      0.797751    42A      0.833576  
      43A      0.879195    44A      0.921984    45A      0.977343  
      46A      1.036053    47A      1.049159    48A      1.110813  
      49A      1.129108    50A      1.151995    51A      1.154255  
      52A      1.168489    53A      1.178082    54A      1.184751  
      55A      1.212801    56A      1.223128    57A      1.243070  
      58A      1.257848    59A      1.320028    60A      1.401602  
      61A      1.420285    62A      1.513197    63A      1.646305  
      64A      1.672655    65A      1.728490    66A      1.783225  
      67A      1.817551    68A      1.942297    69A      2.029960  
      70A      2.094753    71A      2.178624    72A      2.242191  
      73A      2.306911    74A      2.344007    75A      2.369969  
      76A      2.407521    77A      2.442674    78A      2.476082  
      79A      2.547974    80A      2.581717    81A      2.629838  
      82A      2.670563    83A      2.726307    84A      2.759820  
      85A      2.860938    86A      2.875700    87A      2.962476  
      88A      3.045819    89A      3.207928    90A      3.340910  
      91A      4.380180    92A      4.586858    93A      4.666834  
      94A      4.745355    95A      4.947558  

    Final Occupation by Irrep:
              A 
    DOCC [    21 ]

  Energy converged.

  @DF-RHF Final Energy:  -232.13425238601363

   => Energetics <=

    Nuclear Repulsion Energy =            190.2462950734577873
    One-Electron Energy =                -691.5779836042403304
    Two-Electron Energy =                 269.1974361447689716
    DFT Exchange-Correlation Energy =       0.0000000000000000
    Empirical Dispersion Energy =           0.0000000000000000
    PCM Polarization Energy =               0.0000000000000000
    EFP Energy =                            0.0000000000000000
    Total Energy =                       -232.1342523860135998

    Alert: EFP and PCM quantities not currently incorporated into SCF psivars.

Properties will be evaluated at   0.000000,   0.000000,   0.000000 Bohr
  ==> Properties <==


Properties computed using the SCF density matrix

  Nuclear Dipole Moment: (a.u.)
     X:     2.3189      Y:    -2.0513      Z:     0.8735

  Electronic Dipole Moment: (a.u.)
     X:    -2.3422      Y:     1.5551      Z:    -0.8794

  Dipole Moment: (a.u.)
     X:    -0.0233      Y:    -0.4962      Z:    -0.0060     Total:     0.4968

  Dipole Moment: (Debye)
     X:    -0.0591      Y:    -1.2613      Z:    -0.0151     Total:     1.2627


  Saving occupied orbitals to File 180.

*** tstop() called on cx1-1-2-3.cx1.hpc.ic.ac.uk at Fri Sep  2 12:32:49 2016
Module time:
	user time   =       8.92 seconds =       0.15 minutes
	system time =       0.13 seconds =       0.00 minutes
	total time  =          3 seconds =       0.05 minutes
Total time:
	user time   =       8.92 seconds =       0.15 minutes
	system time =       0.13 seconds =       0.00 minutes
	total time  =          3 seconds =       0.05 minutes

*** tstart() called on cx1-1-2-3.cx1.hpc.ic.ac.uk
*** at Fri Sep  2 12:32:49 2016


         ------------------------------------------------------------
                                   SCF GRAD                          
                          Rob Parrish, Justin Turney,                
                       Andy Simmonett, and Alex Sokolov              
         ------------------------------------------------------------

  ==> Geometry <==

    Molecular point group: c1
    Full point group: C1

    Geometry (in Angstrom), charge = 0, multiplicity = 1:

       Center              X                  Y                   Z               Mass       
    ------------   -----------------  -----------------  -----------------  -----------------
           H         -3.117378755305     0.437325505895    -0.195840352396     1.007825032070
           C         -2.322638755305    -0.296124494105    -0.195606352396    12.000000000000
           O         -1.113981755305     0.392615505895    -0.195728352396    15.994914619560
           H         -2.424394755305    -0.925084494105    -1.078439352396     1.007825032070
           H         -2.424483755305    -0.924619494105     0.687547647604     1.007825032070
           C          0.014682244695    -0.428354494105    -0.195458352396    12.000000000000
           C          1.256675244695     0.445782505895    -0.195599352396    12.000000000000
           H          0.007686244695    -1.076434494105    -1.072865352396     1.007825032070
           H          0.007589244695    -1.075976494105     0.682290647604     1.007825032070
           C          2.327890244695    -0.060685494105     0.769215647604    12.000000000000
           H          1.650545244695     0.484064505895    -1.206570352396     1.007825032070
           H          0.965022244695     1.458418505895     0.065563647604     1.007825032070
           H          2.651704244695    -1.064959494105     0.510369647604     1.007825032070
           H          3.201977244695     0.581508505895     0.749077647604     1.007825032070
           H          1.961067244695    -0.084372494105     1.791606647604     1.007825032070

  Nuclear repulsion =  190.246295073457759

  ==> Basis Set <==

  Basis Set: 6-31G*
    Number of shells: 50
    Number of basis function: 95
    Number of Cartesian functions: 95
    Spherical Harmonics?: false
    Max angular momentum: 2

  ==> DFJKGrad: Density-Fitted SCF Gradients <==

    Gradient:                    1
    J tasked:                  Yes
    K tasked:                  Yes
    wK tasked:                  No
    OpenMP threads:              4
    Integrals threads:           4
    Memory (MB):              1430
    Schwarz Cutoff:          0E+00
    Fitting Condition:       1E-12

   => Auxiliary Basis Set <=

  Basis Set: 
    Number of shells: 210
    Number of basis function: 655
    Number of Cartesian functions: 655
    Spherical Harmonics?: false
    Max angular momentum: 3


  -Total Gradient:
     Atom            X                  Y                   Z
    ------   -----------------  -----------------  -----------------
       1        0.000074617287    -0.000003227807    -0.000004621005
       2       -0.000064358860    -0.000090612051     0.000430203464
       3        0.002777791592     0.000858241293     0.001012293595
       4        0.000066623157     0.000047246006    -0.000007255463
       5       -0.000105828894     0.000045507461    -0.000034405034
       6        0.003732490416     0.002544383964    -0.000943914873
       7       -0.004713627179    -0.002219102511     0.000642140189
       8        0.001336677049     0.000795018049    -0.001570559739
       9        0.002238728073    -0.000481047016     0.000042902685
      10       -0.002812817726    -0.001240484662     0.001525185389
      11       -0.002640065803    -0.002596206018    -0.000813033873
      12        0.000165940002     0.001973070671    -0.000990316665
      13       -0.000079624637     0.000328914829    -0.000121138625
      14       -0.000787107457     0.000286101646     0.000093461021
      15        0.000810562985    -0.000247803855     0.000739058935


*** tstop() called on cx1-1-2-3.cx1.hpc.ic.ac.uk at Fri Sep  2 12:32:53 2016
Module time:
	user time   =      13.43 seconds =       0.22 minutes
	system time =       0.18 seconds =       0.00 minutes
	total time  =          4 seconds =       0.07 minutes
Total time:
	user time   =      22.38 seconds =       0.37 minutes
	system time =       0.31 seconds =       0.01 minutes
	total time  =          7 seconds =       0.12 minutes
CURRENT ENERGY: -232.1342523860

			-----------------------------------------
			 OPTKING 2.0: for geometry optimizations 
			  - R.A. King,  Bethel University        
			-----------------------------------------

	Internal coordinates to be generated automatically.
	Detected frag with atoms:  1 2 3 4 5 6 7 8 9 10 11 12 13 14 15
	---Fragment 1 Bond Connectivity---
	 1 : 2
	 2 : 1 3 4 5
	 3 : 2 6
	 4 : 2
	 5 : 2
	 6 : 3 7 8 9
	 7 : 6 10 11 12
	 8 : 6
	 9 : 6
	 10 : 7 13 14 15
	 11 : 7
	 12 : 7
	 13 : 10
	 14 : 10
	 15 : 10

	Assuming in current code that numbering for constraints corresponds to unified fragment.
	Frozen dihedral atom list: 
	    11     7     6     8
	---Fragment 1 Geometry and Gradient---
	 H          -5.8909921000        0.8264254371       -0.3700846318
	 C          -4.3891511532       -0.5595941951       -0.3696424359
	 O          -2.1051204346        0.7419357817       -0.3698729825
	 H          -4.5814421255       -1.7481563436       -2.0379550270
	 H          -4.5816103112       -1.7472776210        1.2992767573
	 C           0.0277454215       -0.8094726816       -0.3693627564
	 C           2.3747720505        0.8424068510       -0.3696292078
	 H           0.0145248975       -2.0341663938       -2.0274216935
	 H           0.0143415940       -2.0333008993        1.2893424670
	 C           4.3990750299       -0.1146789641        1.4536069111
	 H           3.1190784824        0.9147493468       -2.2800875261
	 H           1.8236277546        2.7560115633        0.1238973382
	 H           5.0109948079       -2.0124817865        0.9644588605
	 H           6.0508600762        1.0988918201        1.4155516062
	 H           3.7058800206       -0.1594409070        3.3856459018
	             0.0000746173       -0.0000032278       -0.0000046210
	            -0.0000643589       -0.0000906121        0.0004302035
	             0.0027777916        0.0008582413        0.0010122936
	             0.0000666232        0.0000472460       -0.0000072555
	            -0.0001058289        0.0000455075       -0.0000344050
	             0.0037324904        0.0025443840       -0.0009439149
	            -0.0047136272       -0.0022191025        0.0006421402
	             0.0013366770        0.0007950180       -0.0015705597
	             0.0022387281       -0.0004810470        0.0000429027
	            -0.0028128177       -0.0012404847        0.0015251854
	            -0.0026400658       -0.0025962060       -0.0008130339
	             0.0001659400        0.0019730707       -0.0009903167
	            -0.0000796246        0.0003289148       -0.0001211386
	            -0.0007871075        0.0002861016        0.0000934610
	             0.0008105630       -0.0002478039        0.0007390589

	Previous optimization step data not found.  Starting new optimization.

	---Fragment 1 Intrafragment Coordinates---
	 - Coordinate -           - BOHR/RAD -       - ANG/DEG -
	 R(1,2)           =         2.043667	       1.081462
	 R(2,3)           =         2.628836	       1.391120
	 R(2,4)           =         2.057407	       1.088733
	 R(2,5)           =         2.057407	       1.088733
	 R(3,6)           =         2.637420	       1.395663
	 R(6,7)           =         2.870059	       1.518770
	 R(6,8)           =         2.061361	       1.090825
	 R(6,9)           =         2.061368	       1.090829
	 R(7,10)          =         2.887561	       1.528031
	 R(7,11)          =         2.051603	       1.085662
	 R(7,12)          =         2.051636	       1.085679
	 R(10,13)         =         2.053136	       1.086473
	 R(10,14)         =         2.050023	       1.084826
	 R(10,15)         =         2.053119	       1.086464
	 B(1,2,3)         =         1.878332	     107.620507
	 B(1,2,4)         =         1.899628	     108.840686
	 B(1,2,5)         =         1.899630	     108.840758
	 B(2,3,6)         =         1.994778	     114.292345
	 B(3,2,4)         =         1.946740	     111.539974
	 B(3,2,5)         =         1.946742	     111.540083
	 B(3,6,7)         =         1.899441	     108.829955
	 B(3,6,8)         =         1.922115	     110.129075
	 B(3,6,9)         =         1.922106	     110.128538
	 B(4,2,5)         =         1.891817	     108.393111
	 B(6,7,10)        =         1.963252	     112.486077
	 B(6,7,11)        =         1.893424	     108.485189
	 B(6,7,12)        =         1.893498	     108.489452
	 B(7,6,8)         =         1.925293	     110.311185
	 B(7,6,9)         =         1.925271	     110.309917
	 B(7,10,13)       =         1.944305	     111.400488
	 B(7,10,14)       =         1.935770	     110.911437
	 B(7,10,15)       =         1.944114	     111.389554
	 B(8,6,9)         =         1.869690	     107.125339
	 B(10,7,11)       =         1.923382	     110.201667
	 B(10,7,12)       =         1.923664	     110.217805
	 B(11,7,12)       =         1.863533	     106.772570
	 B(13,10,14)      =         1.878242	     107.615361
	 B(13,10,15)      =         1.880388	     107.738285
	 B(14,10,15)      =         1.878024	     107.602827
	 D(1,2,3,6)       =         3.141593	     180.000000
	 D(2,3,6,7)       =        -3.141573	    -179.998884
	 D(2,3,6,8)       =         1.029115	      58.963969
	 D(2,3,6,9)       =        -1.029109	     -58.963631
	 D(3,6,7,10)      =         2.389414	     136.903344
	 D(3,6,7,11)      =        -1.761481	    -100.925405
	 D(3,6,7,12)      =         0.256715	      14.708691
	 D(4,2,3,6)       =        -1.059114	     -60.682734
	 D(5,2,3,6)       =         1.059117	      60.682930
	 D(6,7,10,13)     =         1.050306	      60.178114
	 D(6,7,10,14)     =        -3.141140	    -179.974055
	 D(6,7,10,15)     =        -1.049804	     -60.149332
	 D(8,6,7,10)      =        -1.783224	    -102.171225
	*D(8,6,7,11)      =         0.349066	      20.000026
	 D(8,6,7,12)      =         2.367262	     135.634122
	 D(9,6,7,10)      =         0.278892	      15.979361
	 D(9,6,7,11)      =         2.411183	     138.150612
	 D(9,6,7,12)      =        -1.853807	    -106.215292
	 D(11,7,10,13)    =        -1.064944	     -61.016810
	 D(11,7,10,14)    =         1.026795	      58.831021
	 D(11,7,10,15)    =         3.118131	     178.655744
	 D(12,7,10,13)    =        -3.117334	    -178.610102
	 D(12,7,10,14)    =        -1.025595	     -58.762271
	 D(12,7,10,15)    =         1.065741	      61.062452

	Current energy   :      -232.1342523860

	Generating empirical Hessian (Schlegel '84) for each fragment.
	Taking RFO optimization step.
	Going to follow RFO solution 1.
	Using RFO vector 1.
	Norm of target step-size    0.20628
	Projected energy change by RFO approximation:        -0.0022421950

	Back-transformation to cartesian coordinates...
	Successfully converged to displaced geometry.

	Back-transformation to cartesian coordinates to adjust frozen coordinates...
	Successfully converged to displaced geometry.

	--- Internal Coordinate Step in ANG or DEG, aJ/ANG or AJ/DEG ---
	 ---------------------------------------------------------------------------
	   Coordinate                Previous        Force       Change         New 
	   ----------                --------       ------       ------       ------
	    1 R(1,2)          =      1.081462     0.000470     0.000084     1.081546
	    2 R(2,3)          =      1.391120    -0.000212    -0.000029     1.391091
	    3 R(2,4)          =      1.088733     0.000228     0.000042     1.088775
	    4 R(2,5)          =      1.088733     0.000365     0.000067     1.088800
	    5 R(3,6)          =      1.395663     0.014163     0.001957     1.397620
	    6 R(6,7)          =      1.518770     0.085375     0.017913     1.536683
	    7 R(6,8)          =      1.090825    -0.006446    -0.001188     1.089637
	    8 R(6,9)          =      1.090829    -0.002517    -0.000464     1.090365
	    9 R(7,10)         =      1.528031     0.002551     0.000551     1.528582
	   10 R(7,11)         =      1.085662     0.002408     0.000436     1.086098
	   11 R(7,12)         =      1.085679    -0.012832    -0.002325     1.083354
	   12 R(10,13)        =      1.086473     0.002463     0.000447     1.086920
	   13 R(10,14)        =      1.084826     0.003844     0.000695     1.085520
	   14 R(10,15)        =      1.086464    -0.003520    -0.000639     1.085824
	   15 B(1,2,3)        =    107.620507     0.000008     0.042056   107.662563
	   16 B(1,2,4)        =    108.840686    -0.000003     0.000350   108.841036
	   17 B(1,2,5)        =    108.840758     0.000003     0.013301   108.854059
	   18 B(2,3,6)        =    114.292345    -0.000015    -0.045135   114.247210
	   19 B(3,2,4)        =    111.539974     0.000009     0.043161   111.583135
	   20 B(3,2,5)        =    111.540083    -0.000014    -0.073857   111.466226
	   21 B(3,6,7)        =    108.829955     0.000229     0.554034   109.383989
	   22 B(3,6,8)        =    110.129075    -0.000185    -2.002939   108.126135
	   23 B(3,6,9)        =    110.128538    -0.000143    -0.640238   109.488300
	   24 B(4,2,5)        =    108.393111    -0.000002    -0.023575   108.369536
	   25 B(6,7,10)       =    112.486077     0.000235     0.678152   113.164229
	   26 B(6,7,11)       =    108.485189     0.000160     1.675679   110.160868
	   27 B(6,7,12)       =    108.489452    -0.000161    -0.410583   108.078869
	   28 B(7,6,8)        =    110.311185     0.000061     0.500169   110.811354
	   29 B(7,6,9)        =    110.309917     0.000075     1.191906   111.501823
	   30 B(7,10,13)      =    111.400488     0.000021     0.060552   111.461039
	   31 B(7,10,14)      =    110.911437     0.000071     0.422448   111.333885
	   32 B(7,10,15)      =    111.389554    -0.000124    -0.633656   110.755898
	   33 B(8,6,9)        =    107.125339    -0.000046     0.324458   107.449797
	   34 B(10,7,11)      =    110.201667    -0.000263    -2.139706   108.061961
	   35 B(10,7,12)      =    110.217805    -0.000011    -0.299202   109.918604
	   36 B(11,7,12)      =    106.772570     0.000033     0.528348   107.300918
	   37 B(13,10,14)     =    107.615361    -0.000035    -0.065509   107.549853
	   38 B(13,10,15)     =    107.738285     0.000032    -0.015977   107.722309
	   39 B(14,10,15)     =    107.602827     0.000037     0.242932   107.845759
	   40 D(1,2,3,6)      =    180.000000    -0.000001    -0.301431   179.698569
	   41 D(2,3,6,7)      =   -179.998884    -0.000007    -2.546314  -182.545198
	   42 D(2,3,6,8)      =     58.963969    -0.000032    -2.272060    56.691908
	   43 D(2,3,6,9)      =    -58.963631     0.000027    -1.123512   -60.087142
	   44 D(3,6,7,10)     =    136.903344     0.000025     2.895460   139.798804
	   45 D(3,6,7,11)     =   -100.925405     0.000010     1.810923   -99.114482
	   46 D(3,6,7,12)     =     14.708691     0.000019     3.120088    17.828779
	   47 D(4,2,3,6)      =    -60.682734     0.000000    -0.249259   -60.931993
	   48 D(5,2,3,6)      =     60.682930    -0.000001    -0.301124    60.381806
	   49 D(6,7,10,13)    =     60.178114     0.000012    -2.435212    57.742902
	   50 D(6,7,10,14)    =   -179.974055     0.000016    -2.192004  -182.166059
	   51 D(6,7,10,15)    =    -60.149332     0.000019    -2.026496   -62.175829
	   52 D(8,6,7,10)     =   -102.171225     0.000015     1.084537  -101.086688
	   53 *D(8,6,7,11)    =     20.000026     0.000000    -0.000000    20.000026
	   54 D(8,6,7,12)     =    135.634122     0.000009     1.309165   136.943287
	   55 D(9,6,7,10)     =     15.979361     0.000022     2.572860    18.552221
	   56 D(9,6,7,11)     =    138.150612     0.000006     1.488323   139.638935
	   57 D(9,6,7,12)     =   -106.215292     0.000015     2.797488  -103.417804
	   58 D(11,7,10,13)   =    -61.016810    -0.000029    -3.505759   -64.522569
	   59 D(11,7,10,14)   =     58.831021    -0.000025    -3.262550    55.568471
	   60 D(11,7,10,15)   =    178.655744    -0.000022    -3.097043   175.558701
	   61 D(12,7,10,13)   =   -178.610102    -0.000000    -2.712628  -181.322730
	   62 D(12,7,10,14)   =    -58.762271     0.000004    -2.469419   -61.231690
	   63 D(12,7,10,15)   =     61.062452     0.000007    -2.303912    58.758540
	 ---------------------------------------------------------------------------

  ==> Convergence Check <==

  Measures of convergence in internal coordinates in au.
  Criteria marked as inactive (o), active & met (*), and active & unmet ( ).
  --------------------------------------------------------------------------------------------- ~
   Step     Total Energy     Delta E     MAX Force     RMS Force      MAX Disp      RMS Disp    ~
  --------------------------------------------------------------------------------------------- ~
    Convergence Criteria    1.00e-06 *    3.00e-04 *             o    1.20e-03 *             o  ~
  --------------------------------------------------------------------------------------------- ~
      1    -232.13425239   -2.32e+02      1.04e-02      1.74e-03 o    6.12e-02      2.60e-02 o  ~
  ---------------------------------------------------------------------------------------------

	Writing optimization data to binary file.
	Structure for next step:
	Cartesian Geometry (in Angstrom)
	    H    -3.1392068076   0.4223153295  -0.2350171257
	    C    -2.3393787963  -0.3056030042  -0.2226708308
	    O    -1.1357103049   0.3905525332  -0.1816302697
	    H    -2.4136880417  -0.9248189847  -1.1151279563
	    H    -2.4594919204  -0.9455698617   0.6499689658
	    C    -0.0013505162  -0.4254405199  -0.1547003304
	    C     1.2593744336   0.4529432155  -0.1749255348
	    H    -0.0324785555  -1.0781198337  -1.0266807637
	    H    -0.0314196855  -1.0610650153   0.7307222909
	    C     2.3631939964  -0.0580968860   0.7508090820
	    H     1.6623771745   0.5062038354  -1.1820805581
	    H     0.9735301377   1.4579494631   0.1112757000
	    H     2.6533970813  -1.0750884308   0.4999983608
	    H     3.2520454777   0.5615676856   0.6851330431
	    H     2.0307681989  -0.0546261010   1.7844897112
			--------------------------
			 OPTKING Finished Execution 
			--------------------------

    Structure for next step:
    Molecular point group: c1
    Full point group: C1

    Geometry (in Angstrom), charge = 0, multiplicity = 1:

    H           -3.135586405328     0.422260087495    -0.240238069070
    C           -2.335758455125    -0.305658190559    -0.227891775088
    O           -1.132090055638     0.390497293671    -0.186851217139
    H           -2.410067694900    -0.924874123802    -1.120348832399
    H           -2.455871570053    -0.945624999201     0.644747954881
    C            0.002269646373    -0.425495697148    -0.159921279879
    C            1.262994499979     0.452887971230    -0.180146482761
    H           -0.028858390494    -1.078174961070    -1.031901646565
    H           -0.027799520628    -1.061120143966     0.725501273822
    C            2.366813978480    -0.058152091245     0.745588063389
    H            1.665997210070     0.506148587052    -1.187301429168
    H            0.977150225904     1.457894142027     0.106054730185
    H            2.657017041193    -1.075143558378     0.494777361361
    H            3.255665391889     0.561512432981     0.679912029508
    H            2.034388206316    -0.054681306538     1.779268613651

gradient() will perform analytic gradient computation.

*** tstart() called on cx1-1-2-3.cx1.hpc.ic.ac.uk
*** at Fri Sep  2 12:32:54 2016


         ---------------------------------------------------------
                                   SCF
            by Justin Turney, Rob Parrish, and Andy Simmonett
                              RHF Reference
                        4 Threads,   2000 MiB Core
         ---------------------------------------------------------

  ==> Geometry <==

    Molecular point group: c1
    Full point group: C1

    Geometry (in Angstrom), charge = 0, multiplicity = 1:

       Center              X                  Y                   Z               Mass       
    ------------   -----------------  -----------------  -----------------  -----------------
           H         -3.135586405328     0.422260087495    -0.240238069070     1.007825032070
           C         -2.335758455125    -0.305658190559    -0.227891775088    12.000000000000
           O         -1.132090055638     0.390497293671    -0.186851217139    15.994914619560
           H         -2.410067694900    -0.924874123802    -1.120348832399     1.007825032070
           H         -2.455871570053    -0.945624999201     0.644747954881     1.007825032070
           C          0.002269646373    -0.425495697148    -0.159921279879    12.000000000000
           C          1.262994499979     0.452887971230    -0.180146482761    12.000000000000
           H         -0.028858390494    -1.078174961070    -1.031901646565     1.007825032070
           H         -0.027799520628    -1.061120143966     0.725501273822     1.007825032070
           C          2.366813978480    -0.058152091245     0.745588063389    12.000000000000
           H          1.665997210070     0.506148587052    -1.187301429168     1.007825032070
           H          0.977150225904     1.457894142027     0.106054730185     1.007825032070
           H          2.657017041193    -1.075143558378     0.494777361361     1.007825032070
           H          3.255665391889     0.561512432981     0.679912029508     1.007825032070
           H          2.034388206316    -0.054681306538     1.779268613651     1.007825032070

  Running in c1 symmetry.

  Rotational constants: A =      0.62365  B =      0.07134  C =      0.06918 [cm^-1]
  Rotational constants: A =  18696.62286  B =   2138.73878  C =   2073.96561 [MHz]
  Nuclear repulsion =  189.516509428489229

  Charge       = 0
  Multiplicity = 1
  Electrons    = 42
  Nalpha       = 21
  Nbeta        = 21

  ==> Algorithm <==

  SCF Algorithm Type is DF.
  DIIS enabled.
  MOM disabled.
  Fractional occupation disabled.
  Guess Type is READ.
  Energy threshold   = 1.00e-08
  Density threshold  = 1.00e-08
  Integral threshold = 0.00e+00

  ==> Primary Basis <==

  Basis Set: 6-31G*
    Number of shells: 50
    Number of basis function: 95
    Number of Cartesian functions: 95
    Spherical Harmonics?: false
    Max angular momentum: 2

  ==> Pre-Iterations <==

   -------------------------------------------------------
    Irrep   Nso     Nmo     Nalpha   Nbeta   Ndocc  Nsocc
   -------------------------------------------------------
     A         95      95       0       0       0       0
   -------------------------------------------------------
    Total      95      95      21      21      21       0
   -------------------------------------------------------

 OEINTS: Overlap, kinetic, potential, dipole, and quadrupole integrals
         stored in file 35.

  ==> Integral Setup <==

  ==> DFJK: Density-Fitted J/K Matrices <==

    J tasked:                  Yes
    K tasked:                  Yes
    wK tasked:                  No
    OpenMP threads:              4
    Integrals threads:           4
    Memory (MB):              1430
    Algorithm:                Core
    Integral Cache:           NONE
    Schwarz Cutoff:          1E-12
    Fitting Condition:       1E-12

   => Auxiliary Basis Set <=

  Basis Set: 
    Number of shells: 210
    Number of basis function: 655
    Number of Cartesian functions: 655
    Spherical Harmonics?: false
    Max angular momentum: 3

  Minimum eigenvalue in the overlap matrix is 4.2881978137E-03.
  Using Symmetric Orthogonalization.
  SCF Guess: Reading in previously saved MOs, projecting if necessary.

  Using orbitals from previous SCF, no projection.
  Recomputing DOCC and SOCC from number of alpha and beta electrons from previous calculation.
              A 
    DOCC [    21 ]

  ==> Iterations <==

                           Total Energy        Delta E     RMS |[F,P]|

   @DF-RHF iter   0:  -232.12896759636024   -2.32129e+02   8.65196e-04 
   @DF-RHF iter   1:  -232.13443416182329   -5.46657e-03   1.34700e-04 
   @DF-RHF iter   2:  -232.13458919446177   -1.55033e-04   4.80514e-05 DIIS
   @DF-RHF iter   3:  -232.13461143635087   -2.22419e-05   2.09773e-05 DIIS
   @DF-RHF iter   4:  -232.13461351903553   -2.08268e-06   3.45939e-06 DIIS
   @DF-RHF iter   5:  -232.13461363954005   -1.20505e-07   1.11066e-06 DIIS
   @DF-RHF iter   6:  -232.13461365288495   -1.33449e-08   3.54728e-07 DIIS
   @DF-RHF iter   7:  -232.13461365412840   -1.24345e-09   9.74908e-08 DIIS
   @DF-RHF iter   8:  -232.13461365424249   -1.14085e-10   1.91446e-08 DIIS
   @DF-RHF iter   9:  -232.13461365424652   -4.03588e-12   5.55249e-09 DIIS

  ==> Post-Iterations <==

    Orbital Energies (a.u.)
    -----------------------

    Doubly Occupied:                                                      

       1A    -20.552405     2A    -11.267230     3A    -11.263660  
       4A    -11.214985     5A    -11.211650     6A     -1.377258  
       7A     -1.053398     8A     -0.954641     9A     -0.877081  
      10A     -0.809227    11A     -0.671672    12A     -0.654183  
      13A     -0.631705    14A     -0.599905    15A     -0.569080  
      16A     -0.544865    17A     -0.495826    18A     -0.489173  
      19A     -0.479026    20A     -0.460555    21A     -0.411422  

    Virtual:                                                              

      22A      0.235249    23A      0.247577    24A      0.288569  
      25A      0.300692    26A      0.311926    27A      0.323836  
      28A      0.327995    29A      0.329471    30A      0.341961  
      31A      0.354876    32A      0.369399    33A      0.427913  
      34A      0.444963    35A      0.476756    36A      0.719648  
      37A      0.726519    38A      0.756504    39A      0.775854  
      40A      0.788105    41A      0.795424    42A      0.834327  
      43A      0.876536    44A      0.918562    45A      0.970594  
      46A      1.036851    47A      1.052765    48A      1.113851  
      49A      1.125991    50A      1.151315    51A      1.156273  
      52A      1.169245    53A      1.179887    54A      1.182940  
      55A      1.212857    56A      1.223017    57A      1.242168  
      58A      1.257792    59A      1.320893    60A      1.406007  
      61A      1.427796    62A      1.513485    63A      1.643695  
      64A      1.673880    65A      1.733821    66A      1.783048  
      67A      1.808071    68A      1.921357    69A      2.029564  
      70A      2.088886    71A      2.171511    72A      2.249666  
      73A      2.296872    74A      2.336495    75A      2.367326  
      76A      2.412405    77A      2.442248    78A      2.474544  
      79A      2.547055    80A      2.583221    81A      2.628304  
      82A      2.672660    83A      2.706590    84A      2.767256  
      85A      2.857210    86A      2.866471    87A      2.959916  
      88A      3.043442    89A      3.202661    90A      3.337519  
      91A      4.380306    92A      4.581304    93A      4.666787  
      94A      4.742619    95A      4.942537  

    Final Occupation by Irrep:
              A 
    DOCC [    21 ]

  Energy converged.

  @DF-RHF Final Energy:  -232.13461365424652

   => Energetics <=

    Nuclear Repulsion Energy =            189.5165094284892291
    One-Electron Energy =                -690.1243525416507509
    Two-Electron Energy =                 268.4732294589148864
    DFT Exchange-Correlation Energy =       0.0000000000000000
    Empirical Dispersion Energy =           0.0000000000000000
    PCM Polarization Energy =               0.0000000000000000
    EFP Energy =                            0.0000000000000000
    Total Energy =                       -232.1346136542466070

    Alert: EFP and PCM quantities not currently incorporated into SCF psivars.

Properties will be evaluated at   0.000000,   0.000000,   0.000000 Bohr
  ==> Properties <==


Properties computed using the SCF density matrix

  Nuclear Dipole Moment: (a.u.)
     X:     2.3683      Y:    -2.0529      Z:     0.7964

  Electronic Dipole Moment: (a.u.)
     X:    -2.3793      Y:     1.5549      Z:    -0.8087

  Dipole Moment: (a.u.)
     X:    -0.0110      Y:    -0.4980      Z:    -0.0123     Total:     0.4983

  Dipole Moment: (Debye)
     X:    -0.0281      Y:    -1.2658      Z:    -0.0314     Total:     1.2665


  Saving occupied orbitals to File 180.

*** tstop() called on cx1-1-2-3.cx1.hpc.ic.ac.uk at Fri Sep  2 12:32:57 2016
Module time:
	user time   =       8.16 seconds =       0.14 minutes
	system time =       0.10 seconds =       0.00 minutes
	total time  =          3 seconds =       0.05 minutes
Total time:
	user time   =      31.94 seconds =       0.53 minutes
	system time =       0.45 seconds =       0.01 minutes
	total time  =         11 seconds =       0.18 minutes

*** tstart() called on cx1-1-2-3.cx1.hpc.ic.ac.uk
*** at Fri Sep  2 12:32:57 2016


         ------------------------------------------------------------
                                   SCF GRAD                          
                          Rob Parrish, Justin Turney,                
                       Andy Simmonett, and Alex Sokolov              
         ------------------------------------------------------------

  ==> Geometry <==

    Molecular point group: c1
    Full point group: C1

    Geometry (in Angstrom), charge = 0, multiplicity = 1:

       Center              X                  Y                   Z               Mass       
    ------------   -----------------  -----------------  -----------------  -----------------
           H         -3.135586405328     0.422260087495    -0.240238069070     1.007825032070
           C         -2.335758455125    -0.305658190559    -0.227891775088    12.000000000000
           O         -1.132090055638     0.390497293671    -0.186851217139    15.994914619560
           H         -2.410067694900    -0.924874123802    -1.120348832399     1.007825032070
           H         -2.455871570053    -0.945624999201     0.644747954881     1.007825032070
           C          0.002269646373    -0.425495697148    -0.159921279879    12.000000000000
           C          1.262994499979     0.452887971230    -0.180146482761    12.000000000000
           H         -0.028858390494    -1.078174961070    -1.031901646565     1.007825032070
           H         -0.027799520628    -1.061120143966     0.725501273822     1.007825032070
           C          2.366813978480    -0.058152091245     0.745588063389    12.000000000000
           H          1.665997210070     0.506148587052    -1.187301429168     1.007825032070
           H          0.977150225904     1.457894142027     0.106054730185     1.007825032070
           H          2.657017041193    -1.075143558378     0.494777361361     1.007825032070
           H          3.255665391889     0.561512432981     0.679912029508     1.007825032070
           H          2.034388206316    -0.054681306538     1.779268613651     1.007825032070

  Nuclear repulsion =  189.516509428489201

  ==> Basis Set <==

  Basis Set: 6-31G*
    Number of shells: 50
    Number of basis function: 95
    Number of Cartesian functions: 95
    Spherical Harmonics?: false
    Max angular momentum: 2

  ==> DFJKGrad: Density-Fitted SCF Gradients <==

    Gradient:                    1
    J tasked:                  Yes
    K tasked:                  Yes
    wK tasked:                  No
    OpenMP threads:              4
    Integrals threads:           4
    Memory (MB):              1430
    Schwarz Cutoff:          0E+00
    Fitting Condition:       1E-12

   => Auxiliary Basis Set <=

  Basis Set: 
    Number of shells: 210
    Number of basis function: 655
    Number of Cartesian functions: 655
    Spherical Harmonics?: false
    Max angular momentum: 3


  -Total Gradient:
     Atom            X                  Y                   Z
    ------   -----------------  -----------------  -----------------
       1       -0.000112696241    -0.000022497713    -0.000022308181
       2       -0.000819470028    -0.000109175796    -0.000260302820
       3        0.000720970449    -0.003103651631    -0.000493797643
       4       -0.000086175021     0.000044762283     0.000081000307
       5        0.000172036629     0.000116603387    -0.000030237180
       6        0.001451570188    -0.001529018751     0.004223363819
       7       -0.001407829888     0.003398591728    -0.000373945298
       8       -0.003462672624     0.002682564977    -0.001801256063
       9       -0.001432069812    -0.000964563069    -0.000369027779
      10        0.000893333026     0.001135857001    -0.001611557567
      11        0.003509833725    -0.001939080824     0.001069772864
      12        0.000631113940     0.000096613087    -0.000354046971
      13       -0.000039261441    -0.000020343360     0.000066640770
      14        0.000557150994    -0.000151553679     0.000393861215
      15       -0.000575833899     0.000364892357    -0.000518159471


*** tstop() called on cx1-1-2-3.cx1.hpc.ic.ac.uk at Fri Sep  2 12:33:01 2016
Module time:
	user time   =      11.55 seconds =       0.19 minutes
	system time =       0.16 seconds =       0.00 minutes
	total time  =          4 seconds =       0.07 minutes
Total time:
	user time   =      43.50 seconds =       0.72 minutes
	system time =       0.61 seconds =       0.01 minutes
	total time  =         15 seconds =       0.25 minutes
CURRENT ENERGY: -232.1346136542

			-----------------------------------------
			 OPTKING 2.0: for geometry optimizations 
			  - R.A. King,  Bethel University        
			-----------------------------------------

	Previous internal coordinate definitions found.
	---Fragment 1 Geometry and Gradient---
	 H          -5.9253995721        0.7979559222       -0.4539841572
	 C          -4.4139437928       -0.5776102704       -0.4306530429
	 O          -2.1393401629        0.7379329407       -0.3530976280
	 H          -4.5543679051       -1.7477588014       -2.1171524665
	 H          -4.6409246849       -1.7869722729        1.2183970595
	 C           0.0042890101       -0.8040703383       -0.3022074218
	 C           2.3867137123        0.8558342345       -0.3404275162
	 H          -0.0545344547       -2.0374553998       -1.9500115081
	 H          -0.0525334806       -2.0052264662        1.3709987166
	 C           4.4726302268       -0.1098915265        1.4089572478
	 H           3.1482784652        0.9564822121       -2.2436745383
	 H           1.8465463176        2.7550206592        0.2004143951
	 H           5.0210345383       -2.0317268789        0.9349937097
	 H           6.1523159710        1.0611047185        1.2848475302
	 H           3.8444365579       -0.1033326939        3.3623303966
	            -0.0001126962       -0.0000224977       -0.0000223082
	            -0.0008194700       -0.0001091758       -0.0002603028
	             0.0007209704       -0.0031036516       -0.0004937976
	            -0.0000861750        0.0000447623        0.0000810003
	             0.0001720366        0.0001166034       -0.0000302372
	             0.0014515702       -0.0015290188        0.0042233638
	            -0.0014078299        0.0033985917       -0.0003739453
	            -0.0034626726        0.0026825650       -0.0018012561
	            -0.0014320698       -0.0009645631       -0.0003690278
	             0.0008933330        0.0011358570       -0.0016115576
	             0.0035098337       -0.0019390808        0.0010697729
	             0.0006311139        0.0000966131       -0.0003540470
	            -0.0000392614       -0.0000203434        0.0000666408
	             0.0005571510       -0.0001515537        0.0003938612
	            -0.0005758339        0.0003648924       -0.0005181595

	---Fragment 1 Intrafragment Coordinates---
	 - Coordinate -           - BOHR/RAD -       - ANG/DEG -
	 R(1,2)           =         2.043826	       1.081546
	 R(2,3)           =         2.628781	       1.391091
	 R(2,4)           =         2.057486	       1.088775
	 R(2,5)           =         2.057533	       1.088800
	 R(3,6)           =         2.641119	       1.397620
	 R(6,7)           =         2.903910	       1.536683
	 R(6,8)           =         2.059116	       1.089637
	 R(6,9)           =         2.060491	       1.090365
	 R(7,10)          =         2.888602	       1.528582
	 R(7,11)          =         2.052428	       1.086098
	 R(7,12)          =         2.047242	       1.083354
	 R(10,13)         =         2.053981	       1.086920
	 R(10,14)         =         2.051336	       1.085520
	 R(10,15)         =         2.051911	       1.085824
	 B(1,2,3)         =         1.879066	     107.662563
	 B(1,2,4)         =         1.899634	     108.841036
	 B(1,2,5)         =         1.899862	     108.854059
	 B(2,3,6)         =         1.993990	     114.247210
	 B(3,2,4)         =         1.947493	     111.583135
	 B(3,2,5)         =         1.945453	     111.466226
	 B(3,6,7)         =         1.909111	     109.383989
	 B(3,6,8)         =         1.887157	     108.126135
	 B(3,6,9)         =         1.910931	     109.488300
	 B(4,2,5)         =         1.891405	     108.369536
	 B(6,7,10)        =         1.975088	     113.164229
	 B(6,7,11)        =         1.922670	     110.160868
	 B(6,7,12)        =         1.886332	     108.078869
	 B(7,6,8)         =         1.934023	     110.811354
	 B(7,6,9)         =         1.946074	     111.501823
	 B(7,10,13)       =         1.945362	     111.461039
	 B(7,10,14)       =         1.943143	     111.333885
	 B(7,10,15)       =         1.933055	     110.755898
	 B(8,6,9)         =         1.875353	     107.449797
	 B(10,7,11)       =         1.886037	     108.061961
	 B(10,7,12)       =         1.918442	     109.918604
	 B(11,7,12)       =         1.872754	     107.300918
	 B(13,10,14)      =         1.877099	     107.549853
	 B(13,10,15)      =         1.880109	     107.722309
	 B(14,10,15)      =         1.882264	     107.845759
	 D(1,2,3,6)       =         3.136332	     179.698569
	 D(2,3,6,7)       =         3.097171	     177.454802
	 D(2,3,6,8)       =         0.989460	      56.691908
	 D(2,3,6,9)       =        -1.048718	     -60.087142
	 D(3,6,7,10)      =         2.439949	     139.798804
	 D(3,6,7,11)      =        -1.729874	     -99.114482
	 D(3,6,7,12)      =         0.311171	      17.828779
	 D(4,2,3,6)       =        -1.063464	     -60.931993
	 D(5,2,3,6)       =         1.053861	      60.381806
	 D(6,7,10,13)     =         1.007804	      57.742902
	 D(6,7,10,14)     =         3.103788	     177.833941
	 D(6,7,10,15)     =        -1.085173	     -62.175829
	 D(8,6,7,10)      =        -1.764296	    -101.086688
	*D(8,6,7,11)      =         0.349066	      20.000026
	 D(8,6,7,12)      =         2.390111	     136.943287
	 D(9,6,7,10)      =         0.323797	      18.552221
	 D(9,6,7,11)      =         2.437159	     139.638935
	 D(9,6,7,12)      =        -1.804981	    -103.417804
	 D(11,7,10,13)    =        -1.126131	     -64.522569
	 D(11,7,10,14)    =         0.969853	      55.568471
	 D(11,7,10,15)    =         3.064077	     175.558701
	 D(12,7,10,13)    =         3.118507	     178.677270
	 D(12,7,10,14)    =        -1.068695	     -61.231690
	 D(12,7,10,15)    =         1.025530	      58.758540

	Current energy   :      -232.1346136542

	Energy change for the previous step:
		Projected    :        -0.0022421950
		Actual       :        -0.0003612682
	Energy ratio indicates iffy step: Trust radius decreased to 1.250e-01.


	Performing BFGS update.
	Previous computed or guess Hessian on step 1.
	Steps to be used in Hessian update: 1
	Taking RFO optimization step.
	Going to follow RFO solution 1.
	Using RFO vector 1.
	Norm of target step-size    0.03754
	Projected energy change by RFO approximation:        -0.0002169264

	Back-transformation to cartesian coordinates...
	Successfully converged to displaced geometry.

	Back-transformation to cartesian coordinates to adjust frozen coordinates...
	Successfully converged to displaced geometry.

	--- Internal Coordinate Step in ANG or DEG, aJ/ANG or AJ/DEG ---
	 ---------------------------------------------------------------------------
	   Coordinate                Previous        Force       Change         New 
	   ----------                --------       ------       ------       ------
	    1 R(1,2)          =      1.081546    -0.000564    -0.000067     1.081480
	    2 R(2,3)          =      1.391091    -0.005967    -0.000571     1.390520
	    3 R(2,4)          =      1.088775     0.000708     0.000093     1.088868
	    4 R(2,5)          =      1.088800     0.000921     0.000122     1.088922
	    5 R(3,6)          =      1.397620     0.013833     0.001438     1.399059
	    6 R(6,7)          =      1.536683    -0.037851    -0.004709     1.531974
	    7 R(6,8)          =      1.089637     0.000547     0.000013     1.089650
	    8 R(6,9)          =      1.090365    -0.002489    -0.000345     1.090020
	    9 R(7,10)         =      1.528582     0.007019     0.001094     1.529676
	   10 R(7,11)         =      1.086098    -0.001773    -0.000205     1.085893
	   11 R(7,12)         =      1.083354     0.001404     0.000065     1.083419
	   12 R(10,13)        =      1.086920     0.000056     0.000029     1.086949
	   13 R(10,14)        =      1.085520    -0.002849    -0.000328     1.085192
	   14 R(10,15)        =      1.085824     0.002602     0.000301     1.086126
	   15 B(1,2,3)        =    107.662563    -0.000013    -0.042442   107.620121
	   16 B(1,2,4)        =    108.841036     0.000006     0.010776   108.851812
	   17 B(1,2,5)        =    108.854059    -0.000003    -0.004088   108.849971
	   18 B(2,3,6)        =    114.247210    -0.000070    -0.149828   114.097382
	   19 B(3,2,4)        =    111.583135    -0.000013    -0.040810   111.542325
	   20 B(3,2,5)        =    111.466226     0.000025     0.082706   111.548932
	   21 B(3,6,7)        =    109.383989    -0.000230    -0.570777   108.813212
	   22 B(3,6,8)        =    108.126135     0.000159     0.681282   108.807418
	   23 B(3,6,9)        =    109.488300     0.000125     0.216438   109.704738
	   24 B(4,2,5)        =    108.369536    -0.000003    -0.006675   108.362861
	   25 B(6,7,10)       =    113.164229    -0.000122    -0.364307   112.799922
	   26 B(6,7,11)       =    110.160868    -0.000054    -0.421231   109.739636
	   27 B(6,7,12)       =    108.078869     0.000027    -0.095862   107.983007
	   28 B(7,6,8)        =    110.811354    -0.000022    -0.119670   110.691684
	   29 B(7,6,9)        =    111.501823    -0.000069    -0.524567   110.977256
	   30 B(7,10,13)      =    111.461039    -0.000007    -0.031190   111.429849
	   31 B(7,10,14)      =    111.333885    -0.000084    -0.303142   111.030743
	   32 B(7,10,15)      =    110.755898     0.000103     0.366886   111.122783
	   33 B(8,6,9)        =    107.449797     0.000052     0.365293   107.815089
	   34 B(10,7,11)      =    108.061961     0.000098     0.316914   108.378875
	   35 B(10,7,12)      =    109.918604     0.000040     0.194915   110.113519
	   36 B(11,7,12)      =    107.300918     0.000018     0.405346   107.706264
	   37 B(13,10,14)     =    107.549853     0.000026    -0.029811   107.520042
	   38 B(13,10,15)     =    107.722309    -0.000033    -0.020112   107.702197
	   39 B(14,10,15)     =    107.845759    -0.000006     0.015249   107.861008
	   40 D(1,2,3,6)      =    179.698569     0.000001     0.052759   179.751328
	   41 D(2,3,6,7)      =    177.454802     0.000007     0.274862   177.729664
	   42 D(2,3,6,8)      =     56.691908     0.000023     0.349667    57.041575
	   43 D(2,3,6,9)      =    -60.087142    -0.000028    -0.599627   -60.686769
	   44 D(3,6,7,10)     =    139.798804    -0.000009    -0.265016   139.533788
	   45 D(3,6,7,11)     =    -99.114482    -0.000008    -0.406703   -99.521185
	   46 D(3,6,7,12)     =     17.828779    -0.000007    -0.208111    17.620668
	   47 D(4,2,3,6)      =    -60.931993    -0.000001     0.015170   -60.916822
	   48 D(5,2,3,6)      =     60.381806     0.000000     0.036054    60.417860
	   49 D(6,7,10,13)    =     57.742902    -0.000000     0.161668    57.904569
	   50 D(6,7,10,14)    =    177.833941    -0.000007    -0.102304   177.731638
	   51 D(6,7,10,15)    =    -62.175829    -0.000005    -0.039578   -62.215406
	   52 D(8,6,7,10)     =   -101.086688    -0.000001     0.141688  -100.945001
	   53 *D(8,6,7,11)    =     20.000026     0.000000     0.000000    20.000026
	   54 D(8,6,7,12)     =    136.943287     0.000002     0.198592   137.141879
	   55 D(9,6,7,10)     =     18.552221     0.000001     0.177163    18.729384
	   56 D(9,6,7,11)     =    139.638935     0.000001     0.035476   139.674411
	   57 D(9,6,7,12)     =   -103.417804     0.000003     0.234068  -103.183736
	   58 D(11,7,10,13)   =    -64.522569     0.000018     0.709819   -63.812751
	   59 D(11,7,10,14)   =     55.568471     0.000012     0.445847    56.014318
	   60 D(11,7,10,15)   =    175.558701     0.000013     0.508573   176.067274
	   61 D(12,7,10,13)   =    178.677270    -0.000005    -0.069131   178.608139
	   62 D(12,7,10,14)   =    -61.231690    -0.000011    -0.333102   -61.564792
	   63 D(12,7,10,15)   =     58.758540    -0.000010    -0.270376    58.488164
	 ---------------------------------------------------------------------------

  ==> Convergence Check <==

  Measures of convergence in internal coordinates in au.
  Criteria marked as inactive (o), active & met (*), and active & unmet ( ).
  ---------------------------------------------------------------------------------------------
   Step     Total Energy     Delta E     MAX Force     RMS Force      MAX Disp      RMS Disp   
  ---------------------------------------------------------------------------------------------
    Convergence Criteria    1.00e-06 *    3.00e-04 *             o    1.20e-03 *             o
  ---------------------------------------------------------------------------------------------
      2    -232.13461365   -3.61e-04      4.59e-03      9.84e-04 o    1.24e-02      4.73e-03 o  ~
  ---------------------------------------------------------------------------------------------

	Writing optimization data to binary file.
	Structure for next step:
	Cartesian Geometry (in Angstrom)
	    H    -3.1283024871   0.4277128814  -0.2356316877
	    C    -2.3302453922  -0.3020749048  -0.2250187674
	    O    -1.1257963976   0.3918213515  -0.1881932124
	    H    -2.4078219264  -0.9212749725  -1.1173226124
	    H    -2.4501124566  -0.9418266947   0.6479644423
	    C     0.0063299291  -0.4298369417  -0.1651168652
	    C     1.2580848216   0.4531873791  -0.1830450867
	    H    -0.0162203101  -1.0835350894  -1.0366141400
	    H    -0.0144664542  -1.0593000695   0.7245384899
	    C     2.3583782072  -0.0592526857   0.7479053998
	    H     1.6580294322   0.5020542550  -1.1914205147
	    H     0.9643094797   1.4557728693   0.1038620035
	    H     2.6526108131  -1.0743325560   0.4939392608
	    H     3.2446387659   0.5636426387   0.6832075585
	    H     2.0268482893  -0.0604821814   1.7821950906
			--------------------------
			 OPTKING Finished Execution 
			--------------------------

    Structure for next step:
    Molecular point group: c1
    Full point group: C1

    Geometry (in Angstrom), charge = 0, multiplicity = 1:

    H           -3.129015869620     0.427676327949    -0.234929227597
    C           -2.330958835621    -0.302111402529    -0.224316308119
    O           -1.126509933003     0.391784800809    -0.187490755959
    H           -2.408535363861    -0.921311422919    -1.116620084986
    H           -2.450825890862    -0.941863143572     0.648666834889
    C            0.005616307254    -0.429873429631    -0.164414410496
    C            1.257371104150     0.453150823686    -0.182342630638
    H           -0.016933930191    -1.083571527440    -1.035911618713
    H           -0.015180074446    -1.059336509373     0.725240876657
    C            2.357664405764    -0.059289201957     0.748607784793
    H            1.657315684226     0.502017695876    -1.190717981685
    H            0.963595784706     1.455736237395     0.104564437663
    H            2.651896989141    -1.074368994723     0.494641665209
    H            3.243924896784     0.563606074851     0.683909948360
    H            2.026134513157    -0.060518697521     1.782897396538

gradient() will perform analytic gradient computation.

*** tstart() called on cx1-1-2-3.cx1.hpc.ic.ac.uk
*** at Fri Sep  2 12:33:01 2016


         ---------------------------------------------------------
                                   SCF
            by Justin Turney, Rob Parrish, and Andy Simmonett
                              RHF Reference
                        4 Threads,   2000 MiB Core
         ---------------------------------------------------------

  ==> Geometry <==

    Molecular point group: c1
    Full point group: C1

    Geometry (in Angstrom), charge = 0, multiplicity = 1:

       Center              X                  Y                   Z               Mass       
    ------------   -----------------  -----------------  -----------------  -----------------
           H         -3.129015869620     0.427676327949    -0.234929227597     1.007825032070
           C         -2.330958835621    -0.302111402529    -0.224316308119    12.000000000000
           O         -1.126509933003     0.391784800809    -0.187490755959    15.994914619560
           H         -2.408535363861    -0.921311422919    -1.116620084986     1.007825032070
           H         -2.450825890862    -0.941863143572     0.648666834889     1.007825032070
           C          0.005616307254    -0.429873429631    -0.164414410496    12.000000000000
           C          1.257371104150     0.453150823686    -0.182342630638    12.000000000000
           H         -0.016933930191    -1.083571527440    -1.035911618713     1.007825032070
           H         -0.015180074446    -1.059336509373     0.725240876657     1.007825032070
           C          2.357664405764    -0.059289201957     0.748607784793    12.000000000000
           H          1.657315684226     0.502017695876    -1.190717981685     1.007825032070
           H          0.963595784706     1.455736237395     0.104564437663     1.007825032070
           H          2.651896989141    -1.074368994723     0.494641665209     1.007825032070
           H          3.243924896784     0.563606074851     0.683909948360     1.007825032070
           H          2.026134513157    -0.060518697521     1.782897396538     1.007825032070

  Running in c1 symmetry.

  Rotational constants: A =      0.61985  B =      0.07175  C =      0.06959 [cm^-1]
  Rotational constants: A =  18582.49114  B =   2151.07966  C =   2086.11170 [MHz]
  Nuclear repulsion =  189.737277547689558

  Charge       = 0
  Multiplicity = 1
  Electrons    = 42
  Nalpha       = 21
  Nbeta        = 21

  ==> Algorithm <==

  SCF Algorithm Type is DF.
  DIIS enabled.
  MOM disabled.
  Fractional occupation disabled.
  Guess Type is READ.
  Energy threshold   = 1.00e-08
  Density threshold  = 1.00e-08
  Integral threshold = 0.00e+00

  ==> Primary Basis <==

  Basis Set: 6-31G*
    Number of shells: 50
    Number of basis function: 95
    Number of Cartesian functions: 95
    Spherical Harmonics?: false
    Max angular momentum: 2

  ==> Pre-Iterations <==

   -------------------------------------------------------
    Irrep   Nso     Nmo     Nalpha   Nbeta   Ndocc  Nsocc
   -------------------------------------------------------
     A         95      95       0       0       0       0
   -------------------------------------------------------
    Total      95      95      21      21      21       0
   -------------------------------------------------------

 OEINTS: Overlap, kinetic, potential, dipole, and quadrupole integrals
         stored in file 35.

  ==> Integral Setup <==

  ==> DFJK: Density-Fitted J/K Matrices <==

    J tasked:                  Yes
    K tasked:                  Yes
    wK tasked:                  No
    OpenMP threads:              4
    Integrals threads:           4
    Memory (MB):              1430
    Algorithm:                Core
    Integral Cache:           NONE
    Schwarz Cutoff:          1E-12
    Fitting Condition:       1E-12

   => Auxiliary Basis Set <=

  Basis Set: 
    Number of shells: 210
    Number of basis function: 655
    Number of Cartesian functions: 655
    Spherical Harmonics?: false
    Max angular momentum: 3

  Minimum eigenvalue in the overlap matrix is 4.2438346334E-03.
  Using Symmetric Orthogonalization.
  SCF Guess: Reading in previously saved MOs, projecting if necessary.

  Using orbitals from previous SCF, no projection.
  Recomputing DOCC and SOCC from number of alpha and beta electrons from previous calculation.
              A 
    DOCC [    21 ]

  ==> Iterations <==

                           Total Energy        Delta E     RMS |[F,P]|

   @DF-RHF iter   0:  -232.13566942607102   -2.32136e+02   1.90702e-04 
   @DF-RHF iter   1:  -232.13472704652750    9.42380e-04   2.37414e-05 
   @DF-RHF iter   2:  -232.13473110932810   -4.06280e-06   8.46522e-06 DIIS
   @DF-RHF iter   3:  -232.13473166642135   -5.57093e-07   3.96928e-06 DIIS
   @DF-RHF iter   4:  -232.13473177335848   -1.06937e-07   9.01186e-07 DIIS
   @DF-RHF iter   5:  -232.13473177989945   -6.54097e-09   3.26584e-07 DIIS
   @DF-RHF iter   6:  -232.13473178082248   -9.23023e-10   9.20630e-08 DIIS
   @DF-RHF iter   7:  -232.13473178090820   -8.57199e-11   2.29153e-08 DIIS
   @DF-RHF iter   8:  -232.13473178091434   -6.13909e-12   5.27915e-09 DIIS

  ==> Post-Iterations <==

    Orbital Energies (a.u.)
    -----------------------

    Doubly Occupied:                                                      

       1A    -20.552771     2A    -11.266646     3A    -11.263376  
       4A    -11.214150     5A    -11.211534     6A     -1.377258  
       7A     -1.054146     8A     -0.954148     9A     -0.877211  
      10A     -0.808887    11A     -0.672161    12A     -0.654642  
      13A     -0.631359    14A     -0.599712    15A     -0.568935  
      16A     -0.544833    17A     -0.495438    18A     -0.488364  
      19A     -0.479368    20A     -0.460973    21A     -0.411983  

    Virtual:                                                              

      22A      0.235298    23A      0.247860    24A      0.288506  
      25A      0.300854    26A      0.312042    27A      0.323823  
      28A      0.328164    29A      0.329668    30A      0.342338  
      31A      0.354282    32A      0.369793    33A      0.428551  
      34A      0.445105    35A      0.476407    36A      0.718346  
      37A      0.727954    38A      0.756538    39A      0.775723  
      40A      0.790034    41A      0.795139    42A      0.833982  
      43A      0.876886    44A      0.919083    45A      0.972029  
      46A      1.037243    47A      1.051518    48A      1.113412  
      49A      1.127300    50A      1.151582    51A      1.156338  
      52A      1.169379    53A      1.179808    54A      1.183321  
      55A      1.213529    56A      1.223327    57A      1.242383  
      58A      1.257818    59A      1.320817    60A      1.405413  
      61A      1.426669    62A      1.513188    63A      1.643494  
      64A      1.673486    65A      1.732065    66A      1.783018  
      67A      1.808341    68A      1.927598    69A      2.032685  
      70A      2.092885    71A      2.174207    72A      2.248385  
      73A      2.300227    74A      2.339145    75A      2.367297  
      76A      2.409747    77A      2.442279    78A      2.475115  
      79A      2.547988    80A      2.581667    81A      2.629757  
      82A      2.672386    83A      2.710829    84A      2.764131  
      85A      2.857081    86A      2.870611    87A      2.958333  
      88A      3.042913    89A      3.201183    90A      3.339341  
      91A      4.379562    92A      4.583179    93A      4.667030  
      94A      4.743116    95A      4.944471  

    Final Occupation by Irrep:
              A 
    DOCC [    21 ]

  Energy converged.

  @DF-RHF Final Energy:  -232.13473178091434

   => Energetics <=

    Nuclear Repulsion Energy =            189.7372775476895583
    One-Electron Energy =                -690.5682266319606697
    Two-Electron Energy =                 268.6962173033568888
    DFT Exchange-Correlation Energy =       0.0000000000000000
    Empirical Dispersion Energy =           0.0000000000000000
    PCM Polarization Energy =               0.0000000000000000
    EFP Energy =                            0.0000000000000000
    Total Energy =                       -232.1347317809141941

    Alert: EFP and PCM quantities not currently incorporated into SCF psivars.

Properties will be evaluated at   0.000000,   0.000000,   0.000000 Bohr
  ==> Properties <==


Properties computed using the SCF density matrix

  Nuclear Dipole Moment: (a.u.)
     X:     2.3592      Y:    -2.0530      Z:     0.8070

  Electronic Dipole Moment: (a.u.)
     X:    -2.3722      Y:     1.5527      Z:    -0.8197

  Dipole Moment: (a.u.)
     X:    -0.0129      Y:    -0.5002      Z:    -0.0128     Total:     0.5006

  Dipole Moment: (Debye)
     X:    -0.0329      Y:    -1.2715      Z:    -0.0325     Total:     1.2723


  Saving occupied orbitals to File 180.

*** tstop() called on cx1-1-2-3.cx1.hpc.ic.ac.uk at Fri Sep  2 12:33:04 2016
Module time:
	user time   =       8.93 seconds =       0.15 minutes
	system time =       0.14 seconds =       0.00 minutes
	total time  =          3 seconds =       0.05 minutes
Total time:
	user time   =      53.25 seconds =       0.89 minutes
	system time =       0.75 seconds =       0.01 minutes
	total time  =         18 seconds =       0.30 minutes

*** tstart() called on cx1-1-2-3.cx1.hpc.ic.ac.uk
*** at Fri Sep  2 12:33:04 2016


         ------------------------------------------------------------
                                   SCF GRAD                          
                          Rob Parrish, Justin Turney,                
                       Andy Simmonett, and Alex Sokolov              
         ------------------------------------------------------------

  ==> Geometry <==

    Molecular point group: c1
    Full point group: C1

    Geometry (in Angstrom), charge = 0, multiplicity = 1:

       Center              X                  Y                   Z               Mass       
    ------------   -----------------  -----------------  -----------------  -----------------
           H         -3.129015869620     0.427676327949    -0.234929227597     1.007825032070
           C         -2.330958835621    -0.302111402529    -0.224316308119    12.000000000000
           O         -1.126509933003     0.391784800809    -0.187490755959    15.994914619560
           H         -2.408535363861    -0.921311422919    -1.116620084986     1.007825032070
           H         -2.450825890862    -0.941863143572     0.648666834889     1.007825032070
           C          0.005616307254    -0.429873429631    -0.164414410496    12.000000000000
           C          1.257371104150     0.453150823686    -0.182342630638    12.000000000000
           H         -0.016933930191    -1.083571527440    -1.035911618713     1.007825032070
           H         -0.015180074446    -1.059336509373     0.725240876657     1.007825032070
           C          2.357664405764    -0.059289201957     0.748607784793    12.000000000000
           H          1.657315684226     0.502017695876    -1.190717981685     1.007825032070
           H          0.963595784706     1.455736237395     0.104564437663     1.007825032070
           H          2.651896989141    -1.074368994723     0.494641665209     1.007825032070
           H          3.243924896784     0.563606074851     0.683909948360     1.007825032070
           H          2.026134513157    -0.060518697521     1.782897396538     1.007825032070

  Nuclear repulsion =  189.737277547689530

  ==> Basis Set <==

  Basis Set: 6-31G*
    Number of shells: 50
    Number of basis function: 95
    Number of Cartesian functions: 95
    Spherical Harmonics?: false
    Max angular momentum: 2

  ==> DFJKGrad: Density-Fitted SCF Gradients <==

    Gradient:                    1
    J tasked:                  Yes
    K tasked:                  Yes
    wK tasked:                  No
    OpenMP threads:              4
    Integrals threads:           4
    Memory (MB):              1430
    Schwarz Cutoff:          0E+00
    Fitting Condition:       1E-12

   => Auxiliary Basis Set <=

  Basis Set: 
    Number of shells: 210
    Number of basis function: 655
    Number of Cartesian functions: 655
    Spherical Harmonics?: false
    Max angular momentum: 3


  -Total Gradient:
     Atom            X                  Y                   Z
    ------   -----------------  -----------------  -----------------
       1        0.000114432860     0.000045014574    -0.000010957259
       2        0.000017654538    -0.000096778387     0.000020143793
       3        0.000372024832    -0.000112212758     0.000083825989
       4        0.000055371581     0.000022596619    -0.000009017339
       5        0.000043350479     0.000010634481    -0.000001522480
       6        0.001888143010    -0.003641909266     0.002566248690
       7       -0.002908493650     0.004290894669    -0.001095356667
       8       -0.001782567210     0.002434043648    -0.002054988731
       9        0.000078880466    -0.000207410964     0.000097896476
      10       -0.000066924007     0.000032406001    -0.000220546635
      11        0.002281460233    -0.002902104410     0.000622865834
      12       -0.000070137214     0.000114013438    -0.000031625378
      13        0.000041034799    -0.000008538000     0.000082638336
      14       -0.000005700801    -0.000033834969    -0.000050798003
      15       -0.000058529917     0.000053185324     0.000001193375


*** tstop() called on cx1-1-2-3.cx1.hpc.ic.ac.uk at Fri Sep  2 12:33:08 2016
Module time:
	user time   =      13.11 seconds =       0.22 minutes
	system time =       0.17 seconds =       0.00 minutes
	total time  =          4 seconds =       0.07 minutes
Total time:
	user time   =      66.38 seconds =       1.11 minutes
	system time =       0.92 seconds =       0.02 minutes
	total time  =         22 seconds =       0.37 minutes
CURRENT ENERGY: -232.1347317809

			-----------------------------------------
			 OPTKING 2.0: for geometry optimizations 
			  - R.A. King,  Bethel University        
			-----------------------------------------

	Previous internal coordinate definitions found.
	---Fragment 1 Geometry and Gradient---
	 H          -5.9129830590        0.8081911333       -0.4439519008
	 C          -4.4048738264       -0.5709078124       -0.4238963895
	 O          -2.1287952594        0.7403659766       -0.3543061812
	 H          -4.5514722191       -1.7410262724       -2.1101061551
	 H          -4.6313897331       -1.7798633960        1.2258026694
	 C           0.0106132826       -0.8123430538       -0.3106982081
	 C           2.3760870342        0.8563309537       -0.3445776343
	 H          -0.0320004904       -2.0476534323       -1.9575892572
	 H          -0.0286861834       -2.0018558853        1.3705066373
	 C           4.4553400401       -0.1120403543        1.4146636942
	 H           3.1318727589        0.9486759591       -2.2501308869
	 H           1.8209321359        2.7509428104        0.1975981504
	 H           5.0113590421       -2.0302631657        0.9347372812
	 H           6.1301296506        1.0650611283        1.2924025020
	 H           3.8288393383       -0.1143637642        3.3691878025
	             0.0001144329        0.0000450146       -0.0000109573
	             0.0000176545       -0.0000967784        0.0000201438
	             0.0003720248       -0.0001122128        0.0000838260
	             0.0000553716        0.0000225966       -0.0000090173
	             0.0000433505        0.0000106345       -0.0000015225
	             0.0018881430       -0.0036419093        0.0025662487
	            -0.0029084937        0.0042908947       -0.0010953567
	            -0.0017825672        0.0024340436       -0.0020549887
	             0.0000788805       -0.0002074110        0.0000978965
	            -0.0000669240        0.0000324060       -0.0002205466
	             0.0022814602       -0.0029021044        0.0006228658
	            -0.0000701372        0.0001140134       -0.0000316254
	             0.0000410348       -0.0000085380        0.0000826383
	            -0.0000057008       -0.0000338350       -0.0000507980
	            -0.0000585299        0.0000531853        0.0000011934

	---Fragment 1 Intrafragment Coordinates---
	 - Coordinate -           - BOHR/RAD -       - ANG/DEG -
	 R(1,2)           =         2.043700	       1.081480
	 R(2,3)           =         2.627702	       1.390520
	 R(2,4)           =         2.057662	       1.088868
	 R(2,5)           =         2.057763	       1.088922
	 R(3,6)           =         2.643837	       1.399059
	 R(6,7)           =         2.895011	       1.531974
	 R(6,8)           =         2.059140	       1.089650
	 R(6,9)           =         2.059839	       1.090020
	 R(7,10)          =         2.890669	       1.529676
	 R(7,11)          =         2.052041	       1.085893
	 R(7,12)          =         2.047366	       1.083419
	 R(10,13)         =         2.054036	       1.086949
	 R(10,14)         =         2.050716	       1.085192
	 R(10,15)         =         2.052480	       1.086126
	 B(1,2,3)         =         1.878325	     107.620121
	 B(1,2,4)         =         1.899823	     108.851812
	 B(1,2,5)         =         1.899790	     108.849971
	 B(2,3,6)         =         1.991375	     114.097382
	 B(3,2,4)         =         1.946781	     111.542325
	 B(3,2,5)         =         1.946896	     111.548932
	 B(3,6,7)         =         1.899149	     108.813212
	 B(3,6,8)         =         1.899048	     108.807418
	 B(3,6,9)         =         1.914709	     109.704738
	 B(4,2,5)         =         1.891289	     108.362861
	 B(6,7,10)        =         1.968730	     112.799922
	 B(6,7,11)        =         1.915318	     109.739636
	 B(6,7,12)        =         1.884659	     107.983007
	 B(7,6,8)         =         1.931934	     110.691684
	 B(7,6,9)         =         1.936919	     110.977256
	 B(7,10,13)       =         1.944818	     111.429849
	 B(7,10,14)       =         1.937852	     111.030743
	 B(7,10,15)       =         1.939458	     111.122783
	 B(8,6,9)         =         1.881728	     107.815089
	 B(10,7,11)       =         1.891568	     108.378875
	 B(10,7,12)       =         1.921843	     110.113519
	 B(11,7,12)       =         1.879829	     107.706264
	 B(13,10,14)      =         1.876579	     107.520042
	 B(13,10,15)      =         1.879758	     107.702197
	 B(14,10,15)      =         1.882530	     107.861008
	 D(1,2,3,6)       =         3.137253	     179.751328
	 D(2,3,6,7)       =         3.101968	     177.729664
	 D(2,3,6,8)       =         0.995563	      57.041575
	 D(2,3,6,9)       =        -1.059184	     -60.686769
	 D(3,6,7,10)      =         2.435324	     139.533788
	 D(3,6,7,11)      =        -1.736972	     -99.521185
	 D(3,6,7,12)      =         0.307539	      17.620668
	 D(4,2,3,6)       =        -1.063199	     -60.916822
	 D(5,2,3,6)       =         1.054491	      60.417860
	 D(6,7,10,13)     =         1.010625	      57.904569
	 D(6,7,10,14)     =         3.102002	     177.731638
	 D(6,7,10,15)     =        -1.085864	     -62.215406
	 D(8,6,7,10)      =        -1.761823	    -100.945001
	*D(8,6,7,11)      =         0.349066	      20.000026
	 D(8,6,7,12)      =         2.393577	     137.141879
	 D(9,6,7,10)      =         0.326889	      18.729384
[...]
    OpenMP threads:              4
    Integrals threads:           4
    Memory (MB):              1430
    Schwarz Cutoff:          0E+00
    Fitting Condition:       1E-12

   => Auxiliary Basis Set <=

  Basis Set: 
    Number of shells: 210
    Number of basis function: 655
    Number of Cartesian functions: 655
    Spherical Harmonics?: false
    Max angular momentum: 3


  -Total Gradient:
     Atom            X                  Y                   Z
    ------   -----------------  -----------------  -----------------
       1       -0.000023247956    -0.000015374530     0.000004613882
       2       -0.000066394522     0.000012138902    -0.000007510807
       3        0.000090219770    -0.000067331947    -0.000012985818
       4       -0.000008075253    -0.000001457632     0.000007394314
       5       -0.000007023899     0.000001265553    -0.000003891335
       6        0.002986370453    -0.004101168054     0.002624438414
       7       -0.003182245893     0.004565415660    -0.001399132798
       8       -0.001968304141     0.002740326256    -0.001976822185
       9        0.000007655449     0.000026644791    -0.000016490741
      10       -0.000005450624     0.000009175771     0.000035651994
      11        0.002155912109    -0.003145476398     0.000735230198
      12        0.000001854842    -0.000020151303     0.000007983901
      13       -0.000009197038    -0.000000807943    -0.000008389659
      14        0.000004602065     0.000003916010     0.000001617248
      15        0.000023324642    -0.000007115140     0.000008293392


*** tstop() called on cx1-1-2-3.cx1.hpc.ic.ac.uk at Fri Sep  2 12:33:24 2016
Module time:
	user time   =      12.09 seconds =       0.20 minutes
	system time =       0.16 seconds =       0.00 minutes
	total time  =          4 seconds =       0.07 minutes
Total time:
	user time   =     111.52 seconds =       1.86 minutes
	system time =       1.61 seconds =       0.03 minutes
	total time  =         38 seconds =       0.63 minutes
CURRENT ENERGY: -232.1347347429

			-----------------------------------------
			 OPTKING 2.0: for geometry optimizations 
			  - R.A. King,  Bethel University        
			-----------------------------------------

	Previous internal coordinate definitions found.
	---Fragment 1 Geometry and Gradient---
	 H          -5.9153322389        0.8068329721       -0.4486333266
	 C          -4.4060180132       -0.5710998063       -0.4228307716
	 O          -2.1297023048        0.7406430354       -0.3601171616
	 H          -4.5539467669       -1.7496016070       -2.1031494706
	 H          -4.6323218848       -1.7723678834        1.2325900091
	 C           0.0122091937       -0.8114819787       -0.3089013155
	 C           2.3763003224        0.8573222328       -0.3427834958
	 H          -0.0300597425       -2.0483155436       -1.9536517893
	 H          -0.0311235791       -1.9955679140        1.3750783633
	 C           4.4560930329       -0.1135827074        1.4158333239
	 H           3.1312728316        0.9466966417       -2.2482840389
	 H           1.8224660565        2.7516180332        0.2002750303
	 H           5.0183637863       -2.0271059340        0.9245404214
	 H           6.1272845996        1.0696593595        1.3030068354
	 H           3.8275097044       -0.1298052268        3.3695367823
	            -0.0000232480       -0.0000153745        0.0000046139
	            -0.0000663945        0.0000121389       -0.0000075108
	             0.0000902198       -0.0000673319       -0.0000129858
	            -0.0000080753       -0.0000014576        0.0000073943
	            -0.0000070239        0.0000012656       -0.0000038913
	             0.0029863705       -0.0041011681        0.0026244384
	            -0.0031822459        0.0045654157       -0.0013991328
	            -0.0019683041        0.0027403263       -0.0019768222
	             0.0000076554        0.0000266448       -0.0000164907
	            -0.0000054506        0.0000091758        0.0000356520
	             0.0021559121       -0.0031454764        0.0007352302
	             0.0000018548       -0.0000201513        0.0000079839
	            -0.0000091970       -0.0000008079       -0.0000083897
	             0.0000046021        0.0000039160        0.0000016172
	             0.0000233246       -0.0000071151        0.0000082934

	---Fragment 1 Intrafragment Coordinates---
	 - Coordinate -           - BOHR/RAD -       - ANG/DEG -
	 R(1,2)           =         2.043867	       1.081568
	 R(2,3)           =         2.627968	       1.390661
	 R(2,4)           =         2.057722	       1.088900
	 R(2,5)           =         2.057833	       1.088958
	 R(3,6)           =         2.645657	       1.400021
	 R(6,7)           =         2.893956	       1.531416
	 R(6,8)           =         2.058336	       1.089225
	 R(6,9)           =         2.059059	       1.089607
	 R(7,10)          =         2.891527	       1.530130
	 R(7,11)          =         2.051561	       1.085640
	 R(7,12)          =         2.046949	       1.083199
	 R(10,13)         =         2.054042	       1.086952
	 R(10,14)         =         2.050774	       1.085223
	 R(10,15)         =         2.052398	       1.086082
	 B(1,2,3)         =         1.879089	     107.663865
	 B(1,2,4)         =         1.899399	     108.827523
	 B(1,2,5)         =         1.899166	     108.814213
	 B(2,3,6)         =         1.992034	     114.135124
	 B(3,2,4)         =         1.947255	     111.569487
	 B(3,2,5)         =         1.947049	     111.557716
	 B(3,6,7)         =         1.899518	     108.834359
	 B(3,6,8)         =         1.896979	     108.688894
	 B(3,6,9)         =         1.913638	     109.643402
	 B(4,2,5)         =         1.890907	     108.340996
	 B(6,7,10)        =         1.967989	     112.757460
	 B(6,7,11)        =         1.914118	     109.670860
	 B(6,7,12)        =         1.885478	     108.029952
	 B(7,6,8)         =         1.932560	     110.727529
	 B(7,6,9)         =         1.937325	     111.000561
	 B(7,10,13)       =         1.943599	     111.360020
	 B(7,10,14)       =         1.937934	     111.035437
	 B(7,10,15)       =         1.940473	     111.180939
	 B(8,6,9)         =         1.883391	     107.910337
	 B(10,7,11)       =         1.891077	     108.350714
	 B(10,7,12)       =         1.921959	     110.120141
	 B(11,7,12)       =         1.881434	     107.798233
	 B(13,10,14)      =         1.876822	     107.533982
	 B(13,10,15)      =         1.879848	     107.707374
	 B(14,10,15)      =         1.882322	     107.849119
	 D(1,2,3,6)       =         3.136720	     179.720838
	 D(2,3,6,7)       =         3.105134	     177.911089
	 D(2,3,6,8)       =         0.998987	      57.237728
	 D(2,3,6,9)       =        -1.055949	     -60.501404
	 D(3,6,7,10)      =         2.439222	     139.757100
	 D(3,6,7,11)      =        -1.735041	     -99.410530
	 D(3,6,7,12)      =         0.311197	      17.830262
	 D(4,2,3,6)       =        -1.063490	     -60.933482
	 D(5,2,3,6)       =         1.054151	      60.398380
	 D(6,7,10,13)     =         1.016982	      58.268785
	 D(6,7,10,14)     =         3.107908	     178.070012
	 D(6,7,10,15)     =        -1.079487	     -61.850044
	 D(8,6,7,10)      =        -1.759856	    -100.832343
	*D(8,6,7,11)      =         0.349066	      20.000026
	 D(8,6,7,12)      =         2.395304	     137.240819
	 D(9,6,7,10)      =         0.331621	      19.000456
	 D(9,6,7,11)      =         2.440543	     139.832825
	 D(9,6,7,12)      =        -1.796404	    -102.926382
	 D(11,7,10,13)    =        -1.105045	     -63.314408
	 D(11,7,10,14)    =         0.985881	      56.486820
	 D(11,7,10,15)    =         3.081671	     176.566763
	 D(12,7,10,13)    =         3.124285	     179.008330
	 D(12,7,10,14)    =        -1.067975	     -61.190442
	 D(12,7,10,15)    =         1.027816	      58.889501

	Current energy   :      -232.1347347429

	Energy change for the previous step:
		Projected    :        -0.0000043216
		Actual       :        -0.0000017065

	Performing BFGS update.
	Previous computed or guess Hessian on step 1.
	Steps to be used in Hessian update: 4 3
	Taking RFO optimization step.
	Going to follow RFO solution 1.
	Using RFO vector 1.
	Norm of target step-size    0.00178
	Projected energy change by RFO approximation:        -0.0000003706

	Back-transformation to cartesian coordinates...
	Successfully converged to displaced geometry.

	Back-transformation to cartesian coordinates to adjust frozen coordinates...
	Successfully converged to displaced geometry.

	--- Internal Coordinate Step in ANG or DEG, aJ/ANG or AJ/DEG ---
	 ---------------------------------------------------------------------------
	   Coordinate                Previous        Force       Change         New 
	   ----------                --------       ------       ------       ------
	    1 R(1,2)          =      1.081568    -0.000056    -0.000007     1.081561
	    2 R(2,3)          =      1.390661    -0.000761    -0.000086     1.390575
	    3 R(2,4)          =      1.088900     0.000038     0.000006     1.088906
	    4 R(2,5)          =      1.088958     0.000026     0.000004     1.088963
	    5 R(3,6)          =      1.400021     0.000243     0.000039     1.400061
	    6 R(6,7)          =      1.531416     0.000071    -0.000001     1.531415
	    7 R(6,8)          =      1.089225     0.000219     0.000029     1.089254
	    8 R(6,9)          =      1.089607     0.000239     0.000033     1.089640
	    9 R(7,10)         =      1.530130    -0.000251    -0.000043     1.530087
	   10 R(7,11)         =      1.085640     0.000219     0.000030     1.085670
	   11 R(7,12)         =      1.083199     0.000140     0.000021     1.083220
	   12 R(10,13)        =      1.086952    -0.000002    -0.000001     1.086952
	   13 R(10,14)        =      1.085223    -0.000049    -0.000007     1.085216
	   14 R(10,15)        =      1.086082    -0.000007    -0.000002     1.086080
	   15 B(1,2,3)        =    107.663865    -0.000003    -0.011471   107.652394
	   16 B(1,2,4)        =    108.827523     0.000001     0.002638   108.830161
	   17 B(1,2,5)        =    108.814213     0.000002     0.005827   108.820041
	   18 B(2,3,6)        =    114.135124    -0.000007    -0.017357   114.117767
	   19 B(3,2,4)        =    111.569487    -0.000001    -0.001945   111.567542
	   20 B(3,2,5)        =    111.557716     0.000000     0.000973   111.558689
	   21 B(3,6,7)        =    108.834359    -0.000004    -0.010715   108.823644
	   22 B(3,6,8)        =    108.688894     0.000003     0.009522   108.698417
	   23 B(3,6,9)        =    109.643402     0.000001     0.001938   109.645340
	   24 B(4,2,5)        =    108.340996     0.000001     0.004194   108.345189
	   25 B(6,7,10)       =    112.757460    -0.000003    -0.005796   112.751664
	   26 B(6,7,11)       =    109.670860     0.000004     0.025733   109.696592
	   27 B(6,7,12)       =    108.029952     0.000000    -0.001923   108.028029
	   28 B(7,6,8)        =    110.727529    -0.000001    -0.006844   110.720685
	   29 B(7,6,9)        =    111.000561     0.000002     0.009215   111.009776
	   30 B(7,10,13)      =    111.360020     0.000002     0.007840   111.367859
	   31 B(7,10,14)      =    111.035437     0.000000     0.001412   111.036849
	   32 B(7,10,15)      =    111.180939    -0.000003    -0.013509   111.167431
	   33 B(8,6,9)        =    107.910337    -0.000001    -0.002850   107.907486
	   34 B(10,7,11)      =    108.350714    -0.000001    -0.005100   108.345615
	   35 B(10,7,12)      =    110.120141     0.000001    -0.002242   110.117899
	   36 B(11,7,12)      =    107.798233    -0.000001    -0.010755   107.787478
	   37 B(13,10,14)     =    107.533982    -0.000001     0.000941   107.534923
	   38 B(13,10,15)     =    107.707374     0.000001     0.001495   107.708869
	   39 B(14,10,15)     =    107.849119     0.000001     0.002119   107.851238
	   40 D(1,2,3,6)      =    179.720838     0.000000     0.011145   179.731984
	   41 D(2,3,6,7)      =    177.911089    -0.000000    -0.044523   177.866565
	   42 D(2,3,6,8)      =     57.237728     0.000000    -0.035526    57.202202
	   43 D(2,3,6,9)      =    -60.501404    -0.000000    -0.038730   -60.540135
	   44 D(3,6,7,10)     =    139.757100    -0.000000    -0.008551   139.748549
	   45 D(3,6,7,11)     =    -99.410530    -0.000000    -0.000844   -99.411374
	   46 D(3,6,7,12)     =     17.830262     0.000000    -0.000645    17.829617
	   47 D(4,2,3,6)      =    -60.933482    -0.000000     0.005981   -60.927501
	   48 D(5,2,3,6)      =     60.398380     0.000000     0.010685    60.409065
	   49 D(6,7,10,13)    =     58.268785     0.000000     0.022821    58.291606
	   50 D(6,7,10,14)    =    178.070012     0.000000     0.030189   178.100201
	   51 D(6,7,10,15)    =    -61.850044     0.000000     0.024779   -61.825265
	   52 D(8,6,7,10)     =   -100.832343     0.000000    -0.007707  -100.840050
	   53 *D(8,6,7,11)    =     20.000026    -0.000000     0.000000    20.000026
	   54 D(8,6,7,12)     =    137.240819     0.000000     0.000199   137.241018
	   55 D(9,6,7,10)     =     19.000456     0.000000    -0.009754    18.990702
	   56 D(9,6,7,11)     =    139.832825    -0.000000    -0.002047   139.830778
	   57 D(9,6,7,12)     =   -102.926382     0.000000    -0.001849  -102.928231
	   58 D(11,7,10,13)   =    -63.314408    -0.000000    -0.002374   -63.316781
	   59 D(11,7,10,14)   =     56.486820    -0.000000     0.004994    56.491814
	   60 D(11,7,10,15)   =    176.566763    -0.000000    -0.000415   176.566348
	   61 D(12,7,10,13)   =    179.008330     0.000000     0.014866   179.023197
	   62 D(12,7,10,14)   =    -61.190442     0.000000     0.022234   -61.168208
	   63 D(12,7,10,15)   =     58.889501     0.000000     0.016824    58.906325
	 ---------------------------------------------------------------------------

  ==> Convergence Check <==

  Measures of convergence in internal coordinates in au.
  Criteria marked as inactive (o), active & met (*), and active & unmet ( ).
  ---------------------------------------------------------------------------------------------
   Step     Total Energy     Delta E     MAX Force     RMS Force      MAX Disp      RMS Disp   
  ---------------------------------------------------------------------------------------------
    Convergence Criteria    1.00e-06 *    3.00e-04 *             o    1.20e-03 *             o
  ---------------------------------------------------------------------------------------------
      5    -232.13473474   -1.71e-06      9.24e-05 *    2.48e-05 o    7.77e-04 *    2.25e-04 o  ~
  ---------------------------------------------------------------------------------------------


  **** Optimization is complete! (in 5 steps) ****

  ==> Optimization Summary <==

  Measures of convergence in internal coordinates in au.
  --------------------------------------------------------------------------------------------------------------- ~
   Step         Total Energy             Delta E       MAX Force       RMS Force        MAX Disp        RMS Disp  ~
  --------------------------------------------------------------------------------------------------------------- ~
      1    -232.134252386014   -232.134252386014      0.01036261      0.00174468      0.06118704      0.02598884  ~
      2    -232.134613654247     -0.000361268233      0.00459423      0.00098388      0.01238867      0.00472957  ~
      3    -232.134731780914     -0.000118126668      0.00056596      0.00011837      0.01902125      0.00681071  ~
      4    -232.134733036401     -0.000001255486      0.00021961      0.00005264      0.01097655      0.00393839  ~
      5    -232.134734742921     -0.000001706520      0.00009242      0.00002480      0.00077708      0.00022470  ~
  --------------------------------------------------------------------------------------------------------------- ~

	Writing optimization data to binary file.
	Final energy is   -232.1347347429210
	Final (previous) structure:
	Cartesian Geometry (in Angstrom)
	    H    -3.1302592411   0.4269576526  -0.2374065496
	    C    -2.3315644913  -0.3022130244  -0.2237524245
	    O    -1.1269900069   0.3919314439  -0.1905658089
	    H    -2.4098450222  -0.9258493653  -1.1129388511
	    H    -2.4513193515  -0.9378967607   0.6522585902
	    C     0.0064608275  -0.4294178011  -0.1634635484
	    C     1.2574840674   0.4536754207  -0.1813932273
	    H    -0.0159069319  -1.0839219844  -1.0338280794
	    H    -0.0164698900  -1.0560091389   0.7276601854
	    C     2.3580630525  -0.0601053846   0.7492267834
	    H     1.6569983429   0.5009703245  -1.1897407627
	    H     0.9644075742   1.4560936611   0.1059809896
	    H     2.6556039429  -1.0726983416   0.4892457568
	    H     3.2424196082   0.5660393972   0.6895215726
	    H     2.0254310559  -0.0686899728   1.7830822049
	Saving final (previous) structure.
			--------------------------
			 OPTKING Finished Execution 
			--------------------------

    Final optimized geometry and variables:
    Molecular point group: c1
    Full point group: C1

    Geometry (in Angstrom), charge = 0, multiplicity = 1:

    H           -3.130259002089     0.426957619972    -0.237406531476
    C           -2.331564313221    -0.302213001299    -0.223752407430
    O           -1.126989920802     0.391931414011    -0.190565794331
    H           -2.409844838158    -0.925849294561    -1.112938766094
    H           -2.451319164303    -0.937896689116     0.652258540356
    C            0.006460827050    -0.429417768319    -0.163463535875
    C            1.257483971353     0.453675386032    -0.181393213465
    H           -0.015906930643    -1.083921901655    -1.033828000442
    H           -0.016469888698    -1.056009058262     0.727660129862
    C            2.358062872387    -0.060105380047     0.749226726181
    H            1.656998216380     0.500970286232    -1.189740671812
    H            0.964407500540     1.456093549913     0.105980981490
    H            2.655603740105    -1.072698259661     0.489245719424
    H            3.242419360627     0.566039354020     0.689521519957
    H            2.025430901219    -0.068689967604     1.783082068717

	Cleaning optimization helper files.


Properties will be evaluated at   0.000000,   0.000000,   0.000000 Bohr

Properties computed using the  density matrix

  Nuclear Dipole Moment: (a.u.)
     X:     2.3580      Y:    -2.0559      Z:     0.8183

  Electronic Dipole Moment: (a.u.)
     X:    -2.3687      Y:     1.5549      Z:    -0.8281

  Dipole Moment: (a.u.)
     X:    -0.0107      Y:    -0.5010      Z:    -0.0098     Total:     0.5012

  Dipole Moment: (Debye)
     X:    -0.0271      Y:    -1.2734      Z:    -0.0249     Total:     1.2740

  Quadrupole Moment: (Debye Ang)
    XX:   -30.5189     YY:   -33.7863     ZZ:   -33.4034
    XY:     1.6496     XZ:    -0.1886     YZ:     0.4793

  Traceless Quadrupole Moment: (Debye Ang)
    XX:     2.0506     YY:    -1.2168     ZZ:    -0.8338
    XY:     1.6496     XZ:    -0.1886     YZ:     0.4793

  Mulliken Charges: (a.u.)
   Center  Symbol    Alpha    Beta     Spin     Total
       1     H     0.41234  0.41234  0.00000  0.17531
       2     C     3.07962  3.07962  0.00000 -0.15924
       3     O     4.30610  4.30610  0.00000 -0.61219
       4     H     0.43079  0.43079  0.00000  0.13842
       5     H     0.43084  0.43084  0.00000  0.13831
       6     C     2.98609  2.98609  0.00000  0.02781
       7     C     3.16454  3.16454  0.00000 -0.32908
       8     H     0.43087  0.43087  0.00000  0.13825
       9     H     0.43002  0.43002  0.00000  0.13996
      10     C     3.24658  3.24658  0.00000 -0.49316
      11     H     0.41846  0.41846  0.00000  0.16309
      12     H     0.40434  0.40434  0.00000  0.19132
      13     H     0.42262  0.42262  0.00000  0.15475
      14     H     0.41768  0.41768  0.00000  0.16463
      15     H     0.41910  0.41910  0.00000  0.16180

   Total alpha = 21.00000, Total beta = 21.00000, Total charge =  0.00000


*** PSI4 exiting successfully. Buy a developer a beer!
