    -----------------------------------------------------------------------
          Psi4: An Open-Source Ab Initio Electronic Structure Package
                              Psi4 (no tag) Driver

                          Git: Rev {detached?}  

    J. M. Turney, A. C. Simmonett, R. M. Parrish, E. G. Hohenstein,
    F. A. Evangelista, J. T. Fermann, B. J. Mintz, L. A. Burns, J. J. Wilke,
    M. L. Abrams, N. J. Russ, M. L. Leininger, C. L. Janssen, E. T. Seidl,
    W. D. Allen, H. F. Schaefer, R. A. King, E. F. Valeev, C. D. Sherrill,
    and T. D. Crawford, WIREs Comput. Mol. Sci. 2, 556-565 (2012)
    (doi: 10.1002/wcms.93)

                         Additional Contributions by
    A. E. DePrince, M. Saitow, U. Bozkaya, A. Yu. Sokolov
    -----------------------------------------------------------------------


    Psi4 started on: Thu Sep  1 22:18:06 2016

    Process ID:  31468
    PSI4DATADIR: /export131/home/mjharvey/miniconda3/share
    Memory level set to 256.000 MB

  ==> Input File <==

--------------------------------------------------------------------------
set {
	reference rhf
	basis 6-31G*
}


set_num_threads( 1 )
memory 2 gb

molecule MOL {
0 1

H	 2.443638	 -0.843790	 0.850833
O	 2.016064	 -0.864478	 0.000222
C	 1.050492	 0.053836	 0.000068
C	 -0.318135	 -0.576402	 0.000164
O	 1.285279	 1.218255	 -0.000078
C	 -1.454360	 0.441875	 -0.000474
H	 -0.374042	 -1.230163	 -0.866135
H	 -0.374274	 -1.229227	 0.867154
C	 -2.826123	 -0.230780	 0.000056
H	 -1.357605	 1.085198	 -0.868380
H	 -1.357504	 1.086451	 0.866496
H	 -2.959731	 -0.858053	 -0.876869
H	 -3.619374	 0.509403	 -0.000080
H	 -2.959371	 -0.857318	 0.877556

	symmetry c1
}
set optking {
	frozen_dihedral = ("
		7 4 6 10,
		2 3 4 7
	")
}

ee = energy('scf')
oeprop('DIPOLE', 'QUADRUPOLE', 'MULLIKEN_CHARGES')
f=open( 'psi4out.xyz', 'w' )
f.write( "14  " )
f.write( str(ee) + "\n" )
f.write( MOL.save_string_xyz() )
f.close()
--------------------------------------------------------------------------

  Memory set to   2.000 GiB by Python script.

*** tstart() called on cx1-3-4-3.cx1.hpc.ic.ac.uk
*** at Thu Sep  1 22:18:06 2016


         ---------------------------------------------------------
                                   SCF
            by Justin Turney, Rob Parrish, and Andy Simmonett
                              RHF Reference
                        1 Threads,   2000 MiB Core
         ---------------------------------------------------------

  ==> Geometry <==

    Molecular point group: c1
    Full point group: C1

    Geometry (in Angstrom), charge = 0, multiplicity = 1:

       Center              X                  Y                   Z               Mass       
    ------------   -----------------  -----------------  -----------------  -----------------
           H          2.448336272768    -0.838851929605     0.841096732082     1.007825032070
           O          2.020762272768    -0.859539929605    -0.009514267918    15.994914619560
           C          1.055190272768     0.058774070395    -0.009668267918    12.000000000000
           C         -0.313436727232    -0.571463929605    -0.009572267918    12.000000000000
           O          1.289977272768     1.223193070395    -0.009814267918    15.994914619560
           C         -1.449661727232     0.446813070395    -0.010210267918    12.000000000000
           H         -0.369343727232    -1.225224929605    -0.875871267918     1.007825032070
           H         -0.369575727232    -1.224288929605     0.857417732082     1.007825032070
           C         -2.821424727232    -0.225841929605    -0.009680267918    12.000000000000
           H         -1.352906727232     1.090136070395    -0.878116267918     1.007825032070
           H         -1.352805727232     1.091389070395     0.856759732082     1.007825032070
           H         -2.955032727232    -0.853114929605    -0.886605267918     1.007825032070
           H         -3.614675727232     0.514341070395    -0.009816267918     1.007825032070
           H         -2.954672727232    -0.852379929605     0.867819732082     1.007825032070

  Running in c1 symmetry.

  Rotational constants: A =      0.30176  B =      0.06169  C =      0.05291 [cm^-1]
  Rotational constants: A =   9046.65410  B =   1849.30301  C =   1586.27023 [MHz]
  Nuclear repulsion =  240.000503636744810

  Charge       = 0
  Multiplicity = 1
  Electrons    = 48
  Nalpha       = 24
  Nbeta        = 24

  ==> Algorithm <==

  SCF Algorithm Type is DF.
  DIIS enabled.
  MOM disabled.
  Fractional occupation disabled.
  Guess Type is CORE.
  Energy threshold   = 1.00e-06
  Density threshold  = 1.00e-06
  Integral threshold = 0.00e+00

  ==> Primary Basis <==

  Basis Set: 6-31G*
    Number of shells: 52
    Number of basis function: 106
    Number of Cartesian functions: 106
    Spherical Harmonics?: false
    Max angular momentum: 2

  ==> Pre-Iterations <==

   -------------------------------------------------------
    Irrep   Nso     Nmo     Nalpha   Nbeta   Ndocc  Nsocc
   -------------------------------------------------------
     A        106     106       0       0       0       0
   -------------------------------------------------------
    Total     106     106      24      24      24       0
   -------------------------------------------------------

 OEINTS: Overlap, kinetic, potential, dipole, and quadrupole integrals
         stored in file 35.

  ==> Integral Setup <==

  ==> DFJK: Density-Fitted J/K Matrices <==

    J tasked:                  Yes
    K tasked:                  Yes
    wK tasked:                  No
    OpenMP threads:              1
    Integrals threads:           1
    Memory (MB):              1430
    Algorithm:                Core
    Integral Cache:           NONE
    Schwarz Cutoff:          1E-12
    Fitting Condition:       1E-12

   => Auxiliary Basis Set <=

  Basis Set: 
    Number of shells: 216
    Number of basis function: 686
    Number of Cartesian functions: 686
    Spherical Harmonics?: false
    Max angular momentum: 3

  Minimum eigenvalue in the overlap matrix is 3.2703051125E-03.
  Using Symmetric Orthogonalization.
  SCF Guess: Core (One-Electron) Hamiltonian.

  ==> Iterations <==

                           Total Energy        Delta E     RMS |[F,P]|

   @DF-RHF iter   1:  -241.99489089427195   -2.41995e+02   7.38307e-02 
   @DF-RHF iter   2:  -135.39417791666514    1.06601e+02   9.51809e-02 DIIS
   @DF-RHF iter   3:  -284.57086574760945   -1.49177e+02   3.10379e-02 DIIS
   @DF-RHF iter   4:  -208.03943585262940    7.65314e+01   9.47155e-02 DIIS
   @DF-RHF iter   5:  -232.02196253205508   -2.39825e+01   8.07722e-02 DIIS
   @DF-RHF iter   6:  -243.95276934670036   -1.19308e+01   6.92693e-02 DIIS
   @DF-RHF iter   7:  -249.15406766021422   -5.20130e+00   6.26271e-02 DIIS
   @DF-RHF iter   8:  -275.93208220212216   -2.67780e+01   5.15050e-02 DIIS
   @DF-RHF iter   9:  -279.39730687145891   -3.46522e+00   4.46295e-02 DIIS
   @DF-RHF iter  10:  -284.02576350613026   -4.62846e+00   4.55480e-02 DIIS
   @DF-RHF iter  11:  -289.06248946327025   -5.03673e+00   3.82074e-02 DIIS
   @DF-RHF iter  12:  -290.18521987227632   -1.12273e+00   3.38017e-02 DIIS
   @DF-RHF iter  13:  -290.98917190902705   -8.03952e-01   3.23108e-02 DIIS
   @DF-RHF iter  14:  -299.14800933162167   -8.15884e+00   2.50730e-02 DIIS
   @DF-RHF iter  15:  -305.41628967482427   -6.26828e+00   8.39099e-03 DIIS
   @DF-RHF iter  16:  -305.81449904924909   -3.98209e-01   2.37944e-03 DIIS
   @DF-RHF iter  17:  -305.85400387220579   -3.95048e-02   7.93879e-04 DIIS
   @DF-RHF iter  18:  -305.86051471526332   -6.51084e-03   3.05107e-04 DIIS
   @DF-RHF iter  19:  -305.86111715332004   -6.02438e-04   1.24489e-04 DIIS
   @DF-RHF iter  20:  -305.86125784690853   -1.40694e-04   3.63088e-05 DIIS
   @DF-RHF iter  21:  -305.86126786724685   -1.00203e-05   1.48504e-05 DIIS
   @DF-RHF iter  22:  -305.86126962333071   -1.75608e-06   3.82768e-06 DIIS
   @DF-RHF iter  23:  -305.86126977117374   -1.47843e-07   9.63947e-07 DIIS

  ==> Post-Iterations <==

    Orbital Energies (a.u.)
    -----------------------

    Doubly Occupied:                                                      

       1A    -20.599880     2A    -20.559169     3A    -11.380551  
       4A    -11.241219     5A    -11.225309     6A    -11.217447  
       7A     -1.470347     8A     -1.368186     9A     -1.082607  
      10A     -0.976954    11A     -0.853512    12A     -0.796818  
      13A     -0.709537    14A     -0.682311    15A     -0.665141  
      16A     -0.631940    17A     -0.578422    18A     -0.560869  
      19A     -0.543501    20A     -0.502787    21A     -0.496090  
      22A     -0.483004    23A     -0.478800    24A     -0.444471  

    Virtual:                                                              

      25A      0.171954    26A      0.214465    27A      0.236060  
      28A      0.281501    29A      0.289140    30A      0.302716  
      31A      0.326424    32A      0.338377    33A      0.354326  
      34A      0.393019    35A      0.417710    36A      0.459391  
      37A      0.520612    38A      0.555000    39A      0.734720  
      40A      0.736954    41A      0.750118    42A      0.757026  
      43A      0.786009    44A      0.840470    45A      0.866342  
      46A      0.939837    47A      0.952998    48A      0.958820  
      49A      1.040024    50A      1.050760    51A      1.069872  
      52A      1.094471    53A      1.119826    54A      1.127763  
      55A      1.158181    56A      1.174109    57A      1.190079  
      58A      1.218292    59A      1.221946    60A      1.237787  
      61A      1.258076    62A      1.270006    63A      1.303952  
      64A      1.351207    65A      1.391695    66A      1.434958  
      67A      1.620309    68A      1.639493    69A      1.709474  
      70A      1.773612    71A      1.804666    72A      1.899734  
      73A      1.976510    74A      2.019291    75A      2.042145  
      76A      2.070294    77A      2.113166    78A      2.133388  
      79A      2.144673    80A      2.240737    81A      2.268412  
      82A      2.280488    83A      2.292415    84A      2.360507  
      85A      2.370707    86A      2.468557    87A      2.548808  
      88A      2.665930    89A      2.679958    90A      2.698793  
      91A      2.746981    92A      2.793687    93A      2.807881  
      94A      2.938089    95A      2.989244    96A      3.036240  
      97A      3.156957    98A      3.276486    99A      3.386445  
     100A      3.500388   101A      4.242143   102A      4.516993  
     103A      4.576614   104A      4.709988   105A      4.818836  
     106A      4.976792  

    Final Occupation by Irrep:
              A 
    DOCC [    24 ]

  Energy converged.

  @DF-RHF Final Energy:  -305.86126977117374

   => Energetics <=

    Nuclear Repulsion Energy =            240.0005036367448099
    One-Electron Energy =                -892.6258492938543441
    Two-Electron Energy =                 346.7640758859355969
    DFT Exchange-Correlation Energy =       0.0000000000000000
    Empirical Dispersion Energy =           0.0000000000000000
    PCM Polarization Energy =               0.0000000000000000
    EFP Energy =                            0.0000000000000000
    Total Energy =                       -305.8612697711739088

    Alert: EFP and PCM quantities not currently incorporated into SCF psivars.

Properties will be evaluated at   0.000000,   0.000000,   0.000000 Bohr
  ==> Properties <==


Properties computed using the SCF density matrix

  Nuclear Dipole Moment: (a.u.)
     X:    -9.8469      Y:    -2.1526      Z:     0.7243

  Electronic Dipole Moment: (a.u.)
     X:     9.4340      Y:     1.3143      Z:    -0.1127

  Dipole Moment: (a.u.)
     X:    -0.4129      Y:    -0.8383      Z:     0.6116     Total:     1.1168

  Dipole Moment: (Debye)
     X:    -1.0495      Y:    -2.1307      Z:     1.5545     Total:     2.8386


  Saving occupied orbitals to File 180.

*** tstop() called on cx1-3-4-3.cx1.hpc.ic.ac.uk at Thu Sep  1 22:18:14 2016
Module time:
	user time   =       7.25 seconds =       0.12 minutes
	system time =       0.05 seconds =       0.00 minutes
	total time  =          8 seconds =       0.13 minutes
Total time:
	user time   =       7.25 seconds =       0.12 minutes
	system time =       0.05 seconds =       0.00 minutes
	total time  =          8 seconds =       0.13 minutes


Properties will be evaluated at   0.000000,   0.000000,   0.000000 Bohr

Properties computed using the  density matrix

  Nuclear Dipole Moment: (a.u.)
     X:    -9.8469      Y:    -2.1526      Z:     0.7243

  Electronic Dipole Moment: (a.u.)
     X:     9.4340      Y:     1.3143      Z:    -0.1127

  Dipole Moment: (a.u.)
     X:    -0.4129      Y:    -0.8383      Z:     0.6116     Total:     1.1168

  Dipole Moment: (Debye)
     X:    -1.0495      Y:    -2.1307      Z:     1.5545     Total:     2.8386

  Quadrupole Moment: (Debye Ang)
    XX:   -37.0391     YY:   -41.0740     ZZ:   -33.9040
    XY:    -3.1098     XZ:     4.4640     YZ:    -1.4476

  Traceless Quadrupole Moment: (Debye Ang)
    XX:     0.3000     YY:    -3.7350     ZZ:     3.4350
    XY:    -3.1098     XZ:     4.4640     YZ:    -1.4476

  Mulliken Charges: (a.u.)
   Center  Symbol    Alpha    Beta     Spin     Total
       1     H     0.26473  0.26473  0.00000  0.47053
       2     O     4.35706  4.35706  0.00000 -0.71411
       3     C     2.63555  2.63555  0.00000  0.72891
       4     C     3.20754  3.20754  0.00000 -0.41508
       5     O     4.25631  4.25631  0.00000 -0.51262
       6     C     3.15313  3.15313  0.00000 -0.30626
       7     H     0.39789  0.39789  0.00000  0.20423
       8     H     0.40680  0.40680  0.00000  0.18641
       9     C     3.24267  3.24267  0.00000 -0.48534
      10     H     0.40930  0.40930  0.00000  0.18140
      11     H     0.41198  0.41198  0.00000  0.17604
      12     H     0.42056  0.42056  0.00000  0.15887
      13     H     0.41455  0.41455  0.00000  0.17090
      14     H     0.42194  0.42194  0.00000  0.15613

   Total alpha = 24.00000, Total beta = 24.00000, Total charge =  0.00000


*** PSI4 exiting successfully. Buy a developer a beer!
