    -----------------------------------------------------------------------
          Psi4: An Open-Source Ab Initio Electronic Structure Package
                              Psi4 (no tag) Driver

                          Git: Rev {detached?}  

    J. M. Turney, A. C. Simmonett, R. M. Parrish, E. G. Hohenstein,
    F. A. Evangelista, J. T. Fermann, B. J. Mintz, L. A. Burns, J. J. Wilke,
    M. L. Abrams, N. J. Russ, M. L. Leininger, C. L. Janssen, E. T. Seidl,
    W. D. Allen, H. F. Schaefer, R. A. King, E. F. Valeev, C. D. Sherrill,
    and T. D. Crawford, WIREs Comput. Mol. Sci. 2, 556-565 (2012)
    (doi: 10.1002/wcms.93)

                         Additional Contributions by
    A. E. DePrince, M. Saitow, U. Bozkaya, A. Yu. Sokolov
    -----------------------------------------------------------------------


    Psi4 started on: Fri Sep  2 11:35:28 2016

    Process ID:   7464
    PSI4DATADIR: /export131/home/mjharvey/miniconda3/share
    Memory level set to 256.000 MB

  ==> Input File <==

--------------------------------------------------------------------------
set {
	reference rhf
	basis 6-31G*
}


set_num_threads( 4 )
memory 2 gb

molecule MOL {
0 1

H	 -0.080774	 -0.550194	 -0.822049
N	 -0.626943	 -0.667432	 -0.000092
C	 -1.979713	 -0.158776	 0.000050
C	 -0.066677	 -1.296599	 1.061235
H	 -2.520245	 -0.492427	 -0.879443
H	 -1.934741	 0.918111	 -0.004428
H	 -2.517790	 -0.485056	 0.883818
C	 1.363429	 -1.748103	 0.842314
O	 -0.646494	 -1.485482	 2.094846
H	 2.003214	 -0.899368	 0.621682
H	 1.715994	 -2.237744	 1.737661
H	 1.423608	 -2.439365	 0.007524

	symmetry c1
}
set optking {
	frozen_dihedral = ("
		4 2 3 5
	")
}

ee = optimize('scf')
oeprop('DIPOLE', 'QUADRUPOLE', 'MULLIKEN_CHARGES')
f=open( 'psi4out.xyz', 'w' )
f.write( "12  " )
f.write( str(ee) + "\n" )
f.write( MOL.save_string_xyz() )
f.close()
--------------------------------------------------------------------------

  Memory set to   2.000 GiB by Python script.
gradient() will perform analytic gradient computation.

*** tstart() called on cx1-5-5-1.cx1.hpc.ic.ac.uk
*** at Fri Sep  2 11:35:29 2016


         ---------------------------------------------------------
                                   SCF
            by Justin Turney, Rob Parrish, and Andy Simmonett
                              RHF Reference
                        4 Threads,   2000 MiB Core
         ---------------------------------------------------------

  ==> Geometry <==

    Molecular point group: c1
    Full point group: C1

    Geometry (in Angstrom), charge = 0, multiplicity = 1:

       Center              X                  Y                   Z               Mass       
    ------------   -----------------  -----------------  -----------------  -----------------
           H          0.319497825077     0.514549321606    -1.614703958049     1.007825032070
           N         -0.226671174923     0.397311321606    -0.792746958049    14.003074004780
           C         -1.579441174923     0.905967321606    -0.792604958049    12.000000000000
           C          0.333594825077    -0.231855678394     0.268580041951    12.000000000000
           H         -2.119973174923     0.572316321606    -1.672097958049     1.007825032070
           H         -1.534469174923     1.982854321606    -0.797082958049     1.007825032070
           H         -2.117518174923     0.579687321606     0.091163041951     1.007825032070
           C          1.763700825077    -0.683359678394     0.049659041951    12.000000000000
           O         -0.246222174923    -0.420738678394     1.302191041951    15.994914619560
           H          2.403485825077     0.165375321606    -0.170972958049     1.007825032070
           H          2.116265825077    -1.173000678394     0.945006041951     1.007825032070
           H          1.823879825077    -1.374621678394    -0.785130958049     1.007825032070

  Running in c1 symmetry.

  Rotational constants: A =      0.33855  B =      0.12950  C =      0.09702 [cm^-1]
  Rotational constants: A =  10149.38594  B =   3882.21708  C =   2908.73165 [MHz]
  Nuclear repulsion =  181.208805741176576

  Charge       = 0
  Multiplicity = 1
  Electrons    = 40
  Nalpha       = 20
  Nbeta        = 20

  ==> Algorithm <==

  SCF Algorithm Type is DF.
  DIIS enabled.
  MOM disabled.
  Fractional occupation disabled.
  Guess Type is CORE.
  Energy threshold   = 1.00e-08
  Density threshold  = 1.00e-08
  Integral threshold = 0.00e+00

  ==> Primary Basis <==

  Basis Set: 6-31G*
    Number of shells: 44
    Number of basis function: 89
    Number of Cartesian functions: 89
    Spherical Harmonics?: false
    Max angular momentum: 2

  ==> Pre-Iterations <==

   -------------------------------------------------------
    Irrep   Nso     Nmo     Nalpha   Nbeta   Ndocc  Nsocc
   -------------------------------------------------------
     A         89      89       0       0       0       0
   -------------------------------------------------------
    Total      89      89      20      20      20       0
   -------------------------------------------------------

 OEINTS: Overlap, kinetic, potential, dipole, and quadrupole integrals
         stored in file 35.

  ==> Integral Setup <==

  ==> DFJK: Density-Fitted J/K Matrices <==

    J tasked:                  Yes
    K tasked:                  Yes
    wK tasked:                  No
    OpenMP threads:              4
    Integrals threads:           4
    Memory (MB):              1430
    Algorithm:                Core
    Integral Cache:           NONE
    Schwarz Cutoff:          1E-12
    Fitting Condition:       1E-12

   => Auxiliary Basis Set <=

  Basis Set: 
    Number of shells: 183
    Number of basis function: 580
    Number of Cartesian functions: 580
    Spherical Harmonics?: false
    Max angular momentum: 3

  Minimum eigenvalue in the overlap matrix is 3.6907963486E-03.
  Using Symmetric Orthogonalization.
  SCF Guess: Core (One-Electron) Hamiltonian.

  ==> Iterations <==

                           Total Energy        Delta E     RMS |[F,P]|

   @DF-RHF iter   1:  -191.13184684156315   -1.91132e+02   8.58726e-02 
   @DF-RHF iter   2:  -192.81813732049883   -1.68629e+00   6.01165e-02 DIIS
   @DF-RHF iter   3:  -220.57298073762141   -2.77548e+01   6.65089e-02 DIIS
   @DF-RHF iter   4:  -241.92961856697556   -2.13566e+01   3.12006e-02 DIIS
   @DF-RHF iter   5:  -245.74483159859855   -3.81521e+00   1.61548e-02 DIIS
   @DF-RHF iter   6:  -246.79934370693812   -1.05451e+00   6.26097e-03 DIIS
   @DF-RHF iter   7:  -246.98061159913831   -1.81268e-01   2.03181e-03 DIIS
   @DF-RHF iter   8:  -247.00226689626570   -2.16553e-02   5.95415e-04 DIIS
   @DF-RHF iter   9:  -247.00414251525669   -1.87562e-03   2.64150e-04 DIIS
   @DF-RHF iter  10:  -247.00467024207475   -5.27727e-04   1.01559e-04 DIIS
   @DF-RHF iter  11:  -247.00475792547397   -8.76834e-05   3.75960e-05 DIIS
   @DF-RHF iter  12:  -247.00477505144610   -1.71260e-05   1.41099e-05 DIIS
   @DF-RHF iter  13:  -247.00477702644000   -1.97499e-06   2.81791e-06 DIIS
   @DF-RHF iter  14:  -247.00477710468417   -7.82442e-08   6.79833e-07 DIIS
   @DF-RHF iter  15:  -247.00477710837774   -3.69357e-09   1.84372e-07 DIIS
   @DF-RHF iter  16:  -247.00477710864274   -2.65004e-10   3.63634e-08 DIIS
   @DF-RHF iter  17:  -247.00477710865792   -1.51772e-11   1.14258e-08 DIIS
   @DF-RHF iter  18:  -247.00477710865979   -1.87583e-12   4.65956e-09 DIIS

  ==> Post-Iterations <==

    Orbital Energies (a.u.)
    -----------------------

    Doubly Occupied:                                                      

       1A    -20.515100     2A    -15.580885     3A    -11.342413  
       4A    -11.254317     5A    -11.229240     6A     -1.383269  
       7A     -1.227898     8A     -1.015427     9A     -0.931883  
      10A     -0.785697    11A     -0.688292    12A     -0.647903  
      13A     -0.633069    14A     -0.586790    15A     -0.578573  
      16A     -0.555526    17A     -0.543136    18A     -0.507008  
      19A     -0.412105    20A     -0.383355  

    Virtual:                                                              

      21A      0.212248    22A      0.219459    23A      0.267394  
      24A      0.282533    25A      0.313312    26A      0.319690  
      27A      0.325318    28A      0.344393    29A      0.373580  
      30A      0.428051    31A      0.499512    32A      0.579402  
      33A      0.723483    34A      0.728922    35A      0.753431  
      36A      0.764129    37A      0.818944    38A      0.829893  
      39A      0.903770    40A      0.952948    41A      0.984507  
      42A      1.006641    43A      1.028057    44A      1.082554  
      45A      1.117443    46A      1.142594    47A      1.158201  
      48A      1.185727    49A      1.199037    50A      1.211952  
      51A      1.229218    52A      1.242392    53A      1.321321  
      54A      1.350273    55A      1.411042    56A      1.590171  
      57A      1.618687    58A      1.664556    59A      1.679815  
      60A      1.692130    61A      1.823845    62A      1.923408  
      63A      2.048612    64A      2.113607    65A      2.137718  
      66A      2.171661    67A      2.214426    68A      2.239698  
      69A      2.317871    70A      2.400308    71A      2.417040  
      72A      2.541873    73A      2.552776    74A      2.598146  
      75A      2.646369    76A      2.698320    77A      2.754831  
      78A      2.790447    79A      2.896319    80A      3.024759  
      81A      3.041087    82A      3.283002    83A      3.376388  
      84A      3.555196    85A      4.370142    86A      4.477569  
      87A      4.629203    88A      4.688505    89A      4.907748  

    Final Occupation by Irrep:
              A 
    DOCC [    20 ]

  Energy converged.

  @DF-RHF Final Energy:  -247.00477710865979

   => Energetics <=

    Nuclear Repulsion Energy =            181.2088057411765760
    One-Electron Energy =                -694.8233979729085377
    Two-Electron Energy =                 266.6098151230719964
    DFT Exchange-Correlation Energy =       0.0000000000000000
    Empirical Dispersion Energy =           0.0000000000000000
    PCM Polarization Energy =               0.0000000000000000
    EFP Energy =                            0.0000000000000000
    Total Energy =                       -247.0047771086599937

    Alert: EFP and PCM quantities not currently incorporated into SCF psivars.

Properties will be evaluated at   0.000000,   0.000000,   0.000000 Bohr
  ==> Properties <==


Properties computed using the SCF density matrix

  Nuclear Dipole Moment: (a.u.)
     X:     0.8349      Y:     1.1847      Z:    -3.7449

  Electronic Dipole Moment: (a.u.)
     X:    -0.3697      Y:    -0.8069      Z:     2.3072

  Dipole Moment: (a.u.)
     X:     0.4653      Y:     0.3779      Z:    -1.4377     Total:     1.5577

  Dipole Moment: (Debye)
     X:     1.1826      Y:     0.9604      Z:    -3.6543     Total:     3.9592


  Saving occupied orbitals to File 180.

*** tstop() called on cx1-5-5-1.cx1.hpc.ic.ac.uk at Fri Sep  2 11:35:32 2016
Module time:
	user time   =       7.30 seconds =       0.12 minutes
	system time =       0.12 seconds =       0.00 minutes
	total time  =          3 seconds =       0.05 minutes
Total time:
	user time   =       7.30 seconds =       0.12 minutes
	system time =       0.12 seconds =       0.00 minutes
	total time  =          3 seconds =       0.05 minutes

*** tstart() called on cx1-5-5-1.cx1.hpc.ic.ac.uk
*** at Fri Sep  2 11:35:32 2016


         ------------------------------------------------------------
                                   SCF GRAD                          
                          Rob Parrish, Justin Turney,                
                       Andy Simmonett, and Alex Sokolov              
         ------------------------------------------------------------

  ==> Geometry <==

    Molecular point group: c1
    Full point group: C1

    Geometry (in Angstrom), charge = 0, multiplicity = 1:

       Center              X                  Y                   Z               Mass       
    ------------   -----------------  -----------------  -----------------  -----------------
           H          0.319497825077     0.514549321606    -1.614703958049     1.007825032070
           N         -0.226671174923     0.397311321606    -0.792746958049    14.003074004780
           C         -1.579441174923     0.905967321606    -0.792604958049    12.000000000000
           C          0.333594825077    -0.231855678394     0.268580041951    12.000000000000
           H         -2.119973174923     0.572316321606    -1.672097958049     1.007825032070
           H         -1.534469174923     1.982854321606    -0.797082958049     1.007825032070
           H         -2.117518174923     0.579687321606     0.091163041951     1.007825032070
           C          1.763700825077    -0.683359678394     0.049659041951    12.000000000000
           O         -0.246222174923    -0.420738678394     1.302191041951    15.994914619560
           H          2.403485825077     0.165375321606    -0.170972958049     1.007825032070
           H          2.116265825077    -1.173000678394     0.945006041951     1.007825032070
           H          1.823879825077    -1.374621678394    -0.785130958049     1.007825032070

  Nuclear repulsion =  181.208805741176576

  ==> Basis Set <==

  Basis Set: 6-31G*
    Number of shells: 44
    Number of basis function: 89
    Number of Cartesian functions: 89
    Spherical Harmonics?: false
    Max angular momentum: 2

  ==> DFJKGrad: Density-Fitted SCF Gradients <==

    Gradient:                    1
    J tasked:                  Yes
    K tasked:                  Yes
    wK tasked:                  No
    OpenMP threads:              4
    Integrals threads:           4
    Memory (MB):              1430
    Schwarz Cutoff:          0E+00
    Fitting Condition:       1E-12

   => Auxiliary Basis Set <=

  Basis Set: 
    Number of shells: 183
    Number of basis function: 580
    Number of Cartesian functions: 580
    Spherical Harmonics?: false
    Max angular momentum: 3


  -Total Gradient:
     Atom            X                  Y                   Z
    ------   -----------------  -----------------  -----------------
       1        0.000613113549    -0.000520118342     0.000075342004
       2        0.001118451223     0.007856631692    -0.003554444359
       3       -0.000132004551    -0.002287752549     0.000029299670
       4       -0.000105476795     0.000040828193     0.000426646763
       5       -0.001020654414     0.000469059428    -0.000114836312
       6        0.006255514598    -0.005999999819     0.000027283925
       7       -0.006783164983     0.000633881130     0.002999873251
       8       -0.000086308694     0.000009638615    -0.000059909220
       9        0.000260723554    -0.000179700889     0.000170898792
      10       -0.000061850850     0.000000381891    -0.000013017182
      11       -0.000040122591    -0.000024438956     0.000015067554
      12       -0.000018220045     0.000001589608    -0.000002204889


*** tstop() called on cx1-5-5-1.cx1.hpc.ic.ac.uk at Fri Sep  2 11:35:35 2016
Module time:
	user time   =      10.22 seconds =       0.17 minutes
	system time =       0.16 seconds =       0.00 minutes
	total time  =          3 seconds =       0.05 minutes
Total time:
	user time   =      17.54 seconds =       0.29 minutes
	system time =       0.28 seconds =       0.00 minutes
	total time  =          6 seconds =       0.10 minutes
CURRENT ENERGY: -247.0047771087

			-----------------------------------------
			 OPTKING 2.0: for geometry optimizations 
			  - R.A. King,  Bethel University        
			-----------------------------------------

	Internal coordinates to be generated automatically.
	Detected frag with atoms:  1 2 3 4 5 6 7 8 9 10 11 12
	---Fragment 1 Bond Connectivity---
	 1 : 2
	 2 : 1 3 4
	 3 : 2 5 6 7
	 4 : 2 8 9
	 5 : 3
	 6 : 3
	 7 : 3
	 8 : 4 10 11 12
	 9 : 4
	 10 : 8
	 11 : 8
	 12 : 8

	Assuming in current code that numbering for constraints corresponds to unified fragment.
	Frozen dihedral atom list: 
	     4     2     3     5
	---Fragment 1 Geometry and Gradient---
	 H           0.6037633894        0.9723572997       -3.0513482664
	 N          -0.4283464428        0.7508095873       -1.4980746434
	 C          -2.9847112636        1.7120301232       -1.4978063023
	 C           0.6304028587       -0.4381437345        0.5075427240
	 H          -4.0061687097        1.0815211092       -3.1598072081
	 H          -2.8997265000        3.7470516292       -1.5062684959
	 H          -4.0015294320        1.0954502805        0.1722731827
	 C           3.3329115397       -1.2913626424        0.0938419893
	 O          -0.4652924784       -0.7950808757        2.4607844420
	 H           4.5419299737        0.3125140670       -0.3230920668
	 H           3.9991628338       -2.2166500359        1.7858026132
	 H           3.4466333687       -2.5976585085       -1.4836824892
	             0.0006131135       -0.0005201183        0.0000753420
	             0.0011184512        0.0078566317       -0.0035544444
	            -0.0001320046       -0.0022877525        0.0000292997
	            -0.0001054768        0.0000408282        0.0004266468
	            -0.0010206544        0.0004690594       -0.0001148363
	             0.0062555146       -0.0059999998        0.0000272839
	            -0.0067831650        0.0006338811        0.0029998733
	            -0.0000863087        0.0000096386       -0.0000599092
	             0.0002607236       -0.0001797009        0.0001708988
	            -0.0000618508        0.0000003819       -0.0000130172
	            -0.0000401226       -0.0000244390        0.0000150676
	            -0.0000182200        0.0000015896       -0.0000022049

	Previous optimization step data not found.  Starting new optimization.

	---Fragment 1 Intrafragment Coordinates---
	 - Coordinate -           - BOHR/RAD -       - ANG/DEG -
	 R(1,2)           =         1.878029	       0.993810
	 R(2,3)           =         2.731107	       1.445240
	 R(2,4)           =         2.560676	       1.355051
	 R(3,5)           =         2.050162	       1.084899
	 R(3,6)           =         2.036813	       1.077835
	 R(3,7)           =         2.050184	       1.084911
	 R(4,8)           =         2.864033	       1.515581
	 R(4,9)           =         2.267842	       1.200090
	 R(8,10)          =         2.051336	       1.085520
	 R(8,11)          =         2.040289	       1.079674
	 R(8,12)          =         2.051323	       1.085513
	 B(1,2,3)         =         2.063455	     118.227261
	 B(1,2,4)         =         2.066150	     118.381700
	 B(2,3,5)         =         1.936959	     110.979566
	 B(2,3,6)         =         1.888713	     108.215264
	 B(2,3,7)         =         1.937418	     111.005889
	 B(2,4,8)         =         1.999105	     114.540265
	 B(2,4,9)         =         2.150648	     123.223081
	 B(3,2,4)         =         2.153579	     123.390987
	 B(4,8,10)        =         1.931118	     110.644890
	 B(4,8,11)        =         1.900168	     108.871613
	 B(4,8,12)        =         1.931685	     110.677370
	 B(5,3,6)         =         1.901481	     108.946857
	 B(5,3,7)         =         1.897342	     108.709705
	 B(6,3,7)         =         1.901340	     108.938756
	 B(8,4,9)         =         2.133432	     122.236647
	 B(10,8,11)       =         1.907813	     109.309645
	 B(10,8,12)       =         1.884854	     107.994176
	 B(11,8,12)       =         1.907985	     109.319496
	 D(1,2,3,5)       =         0.871191	      49.915577
	 D(1,2,3,6)       =        -1.214307	     -69.574676
	 D(1,2,3,7)       =         2.983280	     170.929332
	 D(1,2,4,8)       =         0.001457	       0.083452
	 D(1,2,4,9)       =        -3.140664	    -179.946797
	 D(2,4,8,10)      =         1.048086	      60.050879
	 D(2,4,8,11)      =        -3.138130	    -179.801632
	 D(2,4,8,12)      =        -1.040601	     -59.622039
	 D(3,2,4,8)       =         3.141574	     179.998924
	 D(3,2,4,9)       =        -0.000547	      -0.031326
	*D(4,2,3,5)       =        -2.268928	    -130.000017
	 D(4,2,3,6)       =         1.928759	     110.509729
	 D(4,2,3,7)       =        -0.156840	      -8.986262
	 D(9,4,8,10)      =        -2.092985	    -119.919204
	 D(9,4,8,11)      =         0.003984	       0.228285
	 D(9,4,8,12)      =         2.101514	     120.407878

	Current energy   :      -247.0047771087

	Generating empirical Hessian (Schlegel '84) for each fragment.
	Taking RFO optimization step.
	Going to follow RFO solution 1.
	Using RFO vector 1.
	Norm of target step-size    0.12643
	Projected energy change by RFO approximation:        -0.0015529838

	Back-transformation to cartesian coordinates...
	Successfully converged to displaced geometry.

	Back-transformation to cartesian coordinates to adjust frozen coordinates...
	Successfully converged to displaced geometry.

	--- Internal Coordinate Step in ANG or DEG, aJ/ANG or AJ/DEG ---
	 ---------------------------------------------------------------------------
	   Coordinate                Previous        Force       Change         New 
	   ----------                --------       ------       ------       ------
	    1 R(1,2)          =      0.993810    -0.001757    -0.000230     0.993580
	    2 R(2,3)          =      1.445240     0.007873     0.001295     1.446534
	    3 R(2,4)          =      1.355051    -0.003874    -0.000460     1.354592
	    4 R(3,5)          =      1.084899    -0.003768    -0.000680     1.084219
	    5 R(3,6)          =      1.077835     0.047239     0.008326     1.086161
	    6 R(3,7)          =      1.084911    -0.046279    -0.008351     1.076560
	    7 R(4,8)          =      1.515581     0.001502     0.000311     1.515892
	    8 R(4,9)          =      1.200090    -0.000408    -0.000025     1.200065
	    9 R(8,10)         =      1.085520     0.000276     0.000050     1.085570
	   10 R(8,11)         =      1.079674    -0.000086    -0.000015     1.079659
	   11 R(8,12)         =      1.085513     0.000003     0.000000     1.085514
	   12 B(1,2,3)        =    118.227261    -0.000066    -0.295697   117.931564
	   13 B(1,2,4)        =    118.381700     0.000041     0.199604   118.581304
	   14 B(2,3,5)        =    110.979566    -0.000137    -0.819248   110.160318
	   15 B(2,3,6)        =    108.215264     0.000836     4.512499   112.727763
	   16 B(2,3,7)        =    111.005889    -0.000645    -3.500775   107.505114
	   17 B(2,4,8)        =    114.540265     0.000029     0.086010   114.626275
	   18 B(2,4,9)        =    123.223081    -0.000045    -0.135282   123.087799
	   19 B(3,2,4)        =    123.390987     0.000026     0.081758   123.472744
	   20 B(4,8,10)       =    110.644890     0.000004     0.017938   110.662827
	   21 B(4,8,11)       =    108.871613     0.000003     0.011240   108.882853
	   22 B(4,8,12)       =    110.677370     0.000001     0.007900   110.685270
	   23 B(5,3,6)        =    108.946857    -0.000264    -0.287745   108.659112
	   24 B(5,3,7)        =    108.709705     0.000282     0.111618   108.821323
	   25 B(6,3,7)        =    108.938756    -0.000070    -0.048325   108.890430
	   26 B(8,4,9)        =    122.236647     0.000016     0.048463   122.285110
	   27 B(10,8,11)      =    109.309645    -0.000005    -0.027251   109.282394
	   28 B(10,8,12)      =    107.994176    -0.000002    -0.006221   107.987955
	   29 B(11,8,12)      =    109.319496    -0.000001    -0.004507   109.314990
	   30 D(1,2,3,5)      =     49.915577     0.000019     1.486015    51.401592
	   31 D(1,2,3,6)      =    -69.574676    -0.000008    -0.577490   -70.152166
	   32 D(1,2,3,7)      =    170.929332    -0.000021    -1.092959   169.836373
	   33 D(1,2,4,8)      =      0.083452    -0.000008    -0.444996    -0.361544
	   34 D(1,2,4,9)      =   -179.946797    -0.000009    -0.737111  -180.683908
	   35 D(2,4,8,10)     =     60.050879    -0.000000    -0.157389    59.893490
	   36 D(2,4,8,11)     =   -179.801632    -0.000001    -0.172830  -179.974462
	   37 D(2,4,8,12)     =    -59.622039    -0.000001    -0.166384   -59.788423
	   38 D(3,2,4,8)      =    179.998924     0.000011     1.049712   181.048636
	   39 D(3,2,4,9)      =     -0.031326     0.000010     0.757597     0.726272
	   40 *D(4,2,3,5)     =   -130.000017    -0.000000    -0.000000  -130.000017
	   41 D(4,2,3,6)      =    110.509729    -0.000027    -2.063505   108.446225
	   42 D(4,2,3,7)      =     -8.986262    -0.000040    -2.578974   -11.565236
	   43 D(9,4,8,10)     =   -119.919204     0.000001     0.132173  -119.787031
	   44 D(9,4,8,11)     =      0.228285     0.000000     0.116732     0.345017
	   45 D(9,4,8,12)     =    120.407878     0.000000     0.123178   120.531056
	 ---------------------------------------------------------------------------

  ==> Convergence Check <==

  Measures of convergence in internal coordinates in au.
  Criteria marked as inactive (o), active & met (*), and active & unmet ( ).
  --------------------------------------------------------------------------------------------- ~
   Step     Total Energy     Delta E     MAX Force     RMS Force      MAX Disp      RMS Disp    ~
  --------------------------------------------------------------------------------------------- ~
    Convergence Criteria    1.00e-06 *    3.00e-04 *             o    1.20e-03 *             o  ~
  --------------------------------------------------------------------------------------------- ~
      1    -247.00477711   -2.47e+02      1.10e-02      2.59e-03 o    7.88e-02      1.88e-02 o  ~
  ---------------------------------------------------------------------------------------------

	Writing optimization data to binary file.
	Structure for next step:
	Cartesian Geometry (in Angstrom)
	    H     0.3199446832   0.5103703048  -1.6208379221
	    N    -0.2262552547   0.3914877282  -0.7994163438
	    C    -1.5716166617   0.9229579109  -0.7974968233
	    C     0.3322616274  -0.2319909303   0.2655965465
	    H    -2.1107869254   0.5783169289  -1.6727391687
	    H    -1.5938563953   2.0087635895  -0.7808760813
	    H    -2.0655900003   0.5506922390   0.0836329289
	    C     1.7620453875  -0.6881612575   0.0521557107
	    O    -0.2489218993  -0.4078543175   1.3007073294
	    H     2.4038831994   0.1571921943  -0.1756265447
	    H     2.1131340773  -1.1700313717   0.9522677548
	    H     1.8218881344  -1.3872580651  -0.7761091858
			--------------------------
			 OPTKING Finished Execution 
			--------------------------

    Structure for next step:
    Molecular point group: c1
    Full point group: C1

    Geometry (in Angstrom), charge = 0, multiplicity = 1:

    H            0.319696880834     0.506949216378    -1.618537670763
    N           -0.226503015335     0.388066648822    -0.797116155187
    C           -1.571864319632     0.919536790959    -0.795196634811
    C            0.332013824098    -0.235411962100     0.267896653794
    H           -2.111034542122     0.574895835208    -1.670438913358
    H           -1.594104051479     2.005342386597    -0.778575894009
    H           -2.065837620494     0.547271147421     0.085933050106
    C            1.761797474991    -0.691582254420     0.054455834282
    O           -0.249169658251    -0.411275335883     1.303007357642
    H            2.403635237860     0.153771132845    -0.173326403687
    H            2.112886138031    -1.173452331805     0.954567809660
    H            1.821640217304    -1.390679008636    -0.773808998896

gradient() will perform analytic gradient computation.

*** tstart() called on cx1-5-5-1.cx1.hpc.ic.ac.uk
*** at Fri Sep  2 11:35:36 2016


         ---------------------------------------------------------
                                   SCF
            by Justin Turney, Rob Parrish, and Andy Simmonett
                              RHF Reference
                        4 Threads,   2000 MiB Core
         ---------------------------------------------------------

  ==> Geometry <==

    Molecular point group: c1
    Full point group: C1

    Geometry (in Angstrom), charge = 0, multiplicity = 1:

       Center              X                  Y                   Z               Mass       
    ------------   -----------------  -----------------  -----------------  -----------------
           H          0.319696880834     0.506949216378    -1.618537670763     1.007825032070
           N         -0.226503015335     0.388066648822    -0.797116155187    14.003074004780
           C         -1.571864319632     0.919536790959    -0.795196634811    12.000000000000
           C          0.332013824098    -0.235411962100     0.267896653794    12.000000000000
           H         -2.111034542122     0.574895835208    -1.670438913358     1.007825032070
           H         -1.594104051479     2.005342386597    -0.778575894009     1.007825032070
           H         -2.065837620494     0.547271147421     0.085933050106     1.007825032070
           C          1.761797474991    -0.691582254420     0.054455834282    12.000000000000
           O         -0.249169658251    -0.411275335883     1.303007357642    15.994914619560
           H          2.403635237860     0.153771132845    -0.173326403687     1.007825032070
           H          2.112886138031    -1.173452331805     0.954567809660     1.007825032070
           H          1.821640217304    -1.390679008636    -0.773808998896     1.007825032070

  Running in c1 symmetry.

  Rotational constants: A =      0.33923  B =      0.12936  C =      0.09701 [cm^-1]
  Rotational constants: A =  10169.88654  B =   3878.08931  C =   2908.39648 [MHz]
  Nuclear repulsion =  181.237373701767183

  Charge       = 0
  Multiplicity = 1
  Electrons    = 40
  Nalpha       = 20
  Nbeta        = 20

  ==> Algorithm <==

  SCF Algorithm Type is DF.
  DIIS enabled.
  MOM disabled.
  Fractional occupation disabled.
  Guess Type is READ.
  Energy threshold   = 1.00e-08
  Density threshold  = 1.00e-08
  Integral threshold = 0.00e+00

  ==> Primary Basis <==

  Basis Set: 6-31G*
    Number of shells: 44
    Number of basis function: 89
    Number of Cartesian functions: 89
    Spherical Harmonics?: false
    Max angular momentum: 2

  ==> Pre-Iterations <==

   -------------------------------------------------------
    Irrep   Nso     Nmo     Nalpha   Nbeta   Ndocc  Nsocc
   -------------------------------------------------------
     A         89      89       0       0       0       0
   -------------------------------------------------------
    Total      89      89      20      20      20       0
   -------------------------------------------------------

 OEINTS: Overlap, kinetic, potential, dipole, and quadrupole integrals
         stored in file 35.

  ==> Integral Setup <==

  ==> DFJK: Density-Fitted J/K Matrices <==

    J tasked:                  Yes
    K tasked:                  Yes
    wK tasked:                  No
    OpenMP threads:              4
    Integrals threads:           4
    Memory (MB):              1430
    Algorithm:                Core
    Integral Cache:           NONE
    Schwarz Cutoff:          1E-12
    Fitting Condition:       1E-12

   => Auxiliary Basis Set <=

  Basis Set: 
    Number of shells: 183
    Number of basis function: 580
    Number of Cartesian functions: 580
    Spherical Harmonics?: false
    Max angular momentum: 3

  Minimum eigenvalue in the overlap matrix is 3.6871801737E-03.
  Using Symmetric Orthogonalization.
  SCF Guess: Reading in previously saved MOs, projecting if necessary.

  Using orbitals from previous SCF, no projection.
  Recomputing DOCC and SOCC from number of alpha and beta electrons from previous calculation.
              A 
    DOCC [    20 ]

  ==> Iterations <==

                           Total Energy        Delta E     RMS |[F,P]|

   @DF-RHF iter   0:  -247.00637879939234   -2.47006e+02   6.15671e-04 
   @DF-RHF iter   1:  -247.00530716828462    1.07163e-03   9.30490e-05 
   @DF-RHF iter   2:  -247.00537153212770   -6.43638e-05   3.37788e-05 DIIS
   @DF-RHF iter   3:  -247.00538273604616   -1.12039e-05   1.24224e-05 DIIS
   @DF-RHF iter   4:  -247.00538375021563   -1.01417e-06   3.20070e-06 DIIS
   @DF-RHF iter   5:  -247.00538384965125   -9.94356e-08   1.30149e-06 DIIS
   @DF-RHF iter   6:  -247.00538386338803   -1.37368e-08   4.91388e-07 DIIS
   @DF-RHF iter   7:  -247.00538386566615   -2.27811e-09   1.96592e-07 DIIS
   @DF-RHF iter   8:  -247.00538386618405   -5.17900e-10   7.43216e-08 DIIS
   @DF-RHF iter   9:  -247.00538386626374   -7.96945e-11   2.87720e-08 DIIS
   @DF-RHF iter  10:  -247.00538386627829   -1.45519e-11   8.93632e-09 DIIS

  ==> Post-Iterations <==

    Orbital Energies (a.u.)
    -----------------------

    Doubly Occupied:                                                      

       1A    -20.515964     2A    -15.581389     3A    -11.343309  
       4A    -11.253729     5A    -11.229857     6A     -1.384289  
       7A     -1.227806     8A     -1.015641     9A     -0.931693  
      10A     -0.786786    11A     -0.689374    12A     -0.647876  
      13A     -0.631915    14A     -0.585659    15A     -0.579861  
      16A     -0.554171    17A     -0.544194    18A     -0.507570  
      19A     -0.413020    20A     -0.384435  

    Virtual:                                                              

      21A      0.211009    22A      0.220281    23A      0.267759  
      24A      0.282609    25A      0.313910    26A      0.320275  
      27A      0.325979    28A      0.346120    29A      0.374252  
      30A      0.427066    31A      0.500216    32A      0.579302  
      33A      0.722581    34A      0.730916    35A      0.750340  
      36A      0.765997    37A      0.817848    38A      0.829565  
      39A      0.905126    40A      0.949845    41A      0.984295  
      42A      1.006252    43A      1.031503    44A      1.076630  
      45A      1.116829    46A      1.142262    47A      1.154878  
      48A      1.188328    49A      1.200701    50A      1.211151  
      51A      1.227075    52A      1.242705    53A      1.316396  
      54A      1.350918    55A      1.419968    56A      1.589135  
      57A      1.621014    58A      1.662446    59A      1.671696  
      60A      1.691378    61A      1.830472    62A      1.921099  
      63A      2.046845    64A      2.114018    65A      2.138056  
      66A      2.175094    67A      2.213802    68A      2.231836  
      69A      2.327154    70A      2.383750    71A      2.419408  
      72A      2.529537    73A      2.552538    74A      2.612417  
      75A      2.663476    76A      2.694915    77A      2.750297  
      78A      2.790042    79A      2.893539    80A      3.017595  
      81A      3.041080    82A      3.281958    83A      3.375661  
      84A      3.555671    85A      4.371857    86A      4.476911  
      87A      4.625702    88A      4.689178    89A      4.907084  

    Final Occupation by Irrep:
              A 
    DOCC [    20 ]

  Energy converged.

  @DF-RHF Final Energy:  -247.00538386627829

   => Energetics <=

    Nuclear Repulsion Energy =            181.2373737017671829
    One-Electron Energy =                -694.8684412051566142
    Two-Electron Energy =                 266.6256836371111945
    DFT Exchange-Correlation Energy =       0.0000000000000000
    Empirical Dispersion Energy =           0.0000000000000000
    PCM Polarization Energy =               0.0000000000000000
    EFP Energy =                            0.0000000000000000
    Total Energy =                       -247.0053838662782368

    Alert: EFP and PCM quantities not currently incorporated into SCF psivars.

Properties will be evaluated at   0.000000,   0.000000,   0.000000 Bohr
  ==> Properties <==


Properties computed using the SCF density matrix

  Nuclear Dipole Moment: (a.u.)
     X:     0.8309      Y:     1.1445      Z:    -3.7171

  Electronic Dipole Moment: (a.u.)
     X:    -0.3491      Y:    -0.7772      Z:     2.2879

  Dipole Moment: (a.u.)
     X:     0.4818      Y:     0.3672      Z:    -1.4292     Total:     1.5523

  Dipole Moment: (Debye)
     X:     1.2246      Y:     0.9334      Z:    -3.6326     Total:     3.9455


  Saving occupied orbitals to File 180.

*** tstop() called on cx1-5-5-1.cx1.hpc.ic.ac.uk at Fri Sep  2 11:35:39 2016
Module time:
	user time   =       7.54 seconds =       0.13 minutes
	system time =       0.12 seconds =       0.00 minutes
	total time  =          3 seconds =       0.05 minutes
Total time:
	user time   =      26.44 seconds =       0.44 minutes
	system time =       0.45 seconds =       0.01 minutes
	total time  =         10 seconds =       0.17 minutes

*** tstart() called on cx1-5-5-1.cx1.hpc.ic.ac.uk
*** at Fri Sep  2 11:35:39 2016


         ------------------------------------------------------------
                                   SCF GRAD                          
                          Rob Parrish, Justin Turney,                
                       Andy Simmonett, and Alex Sokolov              
         ------------------------------------------------------------

  ==> Geometry <==

    Molecular point group: c1
    Full point group: C1

    Geometry (in Angstrom), charge = 0, multiplicity = 1:

       Center              X                  Y                   Z               Mass       
    ------------   -----------------  -----------------  -----------------  -----------------
           H          0.319696880834     0.506949216378    -1.618537670763     1.007825032070
           N         -0.226503015335     0.388066648822    -0.797116155187    14.003074004780
           C         -1.571864319632     0.919536790959    -0.795196634811    12.000000000000
           C          0.332013824098    -0.235411962100     0.267896653794    12.000000000000
           H         -2.111034542122     0.574895835208    -1.670438913358     1.007825032070
           H         -1.594104051479     2.005342386597    -0.778575894009     1.007825032070
           H         -2.065837620494     0.547271147421     0.085933050106     1.007825032070
           C          1.761797474991    -0.691582254420     0.054455834282    12.000000000000
           O         -0.249169658251    -0.411275335883     1.303007357642    15.994914619560
           H          2.403635237860     0.153771132845    -0.173326403687     1.007825032070
           H          2.112886138031    -1.173452331805     0.954567809660     1.007825032070
           H          1.821640217304    -1.390679008636    -0.773808998896     1.007825032070

  Nuclear repulsion =  181.237373701767183

  ==> Basis Set <==

  Basis Set: 6-31G*
    Number of shells: 44
    Number of basis function: 89
    Number of Cartesian functions: 89
    Spherical Harmonics?: false
    Max angular momentum: 2

  ==> DFJKGrad: Density-Fitted SCF Gradients <==

    Gradient:                    1
    J tasked:                  Yes
    K tasked:                  Yes
    wK tasked:                  No
    OpenMP threads:              4
    Integrals threads:           4
    Memory (MB):              1430
    Schwarz Cutoff:          0E+00
    Fitting Condition:       1E-12

   => Auxiliary Basis Set <=

  Basis Set: 
    Number of shells: 183
    Number of basis function: 580
    Number of Cartesian functions: 580
    Spherical Harmonics?: false
    Max angular momentum: 3


  -Total Gradient:
     Atom            X                  Y                   Z
    ------   -----------------  -----------------  -----------------
       1       -0.000927867321    -0.000028697500    -0.000289743626
       2        0.000778011937    -0.002493161760     0.002558856828
       3        0.000551821342     0.003407393905    -0.000677867549
       4       -0.000306710080    -0.001478119669    -0.000957892537
       5        0.000086515963    -0.000390245225     0.000204144410
       6       -0.002405274835     0.000725246541    -0.000141864358
       7        0.001747038645    -0.000627849042    -0.000929798031
       8        0.000351609302     0.000483192612     0.000294151987
       9       -0.000061100804     0.000406402031    -0.000047475242
      10        0.000175343249    -0.000036787698    -0.000026474230
      11        0.000081002870     0.000036964612    -0.000011082266
      12       -0.000070390267    -0.000004338806     0.000025044610


*** tstop() called on cx1-5-5-1.cx1.hpc.ic.ac.uk at Fri Sep  2 11:35:43 2016
Module time:
	user time   =      12.04 seconds =       0.20 minutes
	system time =       0.16 seconds =       0.00 minutes
	total time  =          4 seconds =       0.07 minutes
Total time:
	user time   =      38.50 seconds =       0.64 minutes
	system time =       0.61 seconds =       0.01 minutes
	total time  =         14 seconds =       0.23 minutes
CURRENT ENERGY: -247.0053838663

			-----------------------------------------
			 OPTKING 2.0: for geometry optimizations 
			  - R.A. King,  Bethel University        
			-----------------------------------------

	Previous internal coordinate definitions found.
	---Fragment 1 Geometry and Gradient---
	 H           0.6041395503        0.9579951822       -3.0585929335
	 N          -0.4280286673        0.7333396876       -1.5063312294
	 C          -2.9703930822        1.7376727040       -1.5027038616
	 C           0.6274151999       -0.4448641368        0.5062513076
	 H          -3.9892771417        1.0863956835       -3.1566720680
	 H          -3.0124200846        3.7895479133       -1.4712952133
	 H          -3.9038673377        1.0341925891        0.1623899305
	 C           3.3293147293       -1.3069010592        0.1029066131
	 O          -0.4708624147       -0.7771977500        2.4623270551
	 H           4.5422123229        0.2905853282       -0.3275394346
	 H           3.9927761508       -2.2175035371        1.8038717355
	 H           3.4424011234       -2.6280024651       -1.4622870871
	            -0.0009278673       -0.0000286975       -0.0002897436
	             0.0007780119       -0.0024931618        0.0025588568
	             0.0005518213        0.0034073939       -0.0006778675
	            -0.0003067101       -0.0014781197       -0.0009578925
	             0.0000865160       -0.0003902452        0.0002041444
	            -0.0024052748        0.0007252465       -0.0001418644
	             0.0017470386       -0.0006278490       -0.0009297980
	             0.0003516093        0.0004831926        0.0002941520
	            -0.0000611008        0.0004064020       -0.0000474752
	             0.0001753432       -0.0000367877       -0.0000264742
	             0.0000810029        0.0000369646       -0.0000110823
	            -0.0000703903       -0.0000043388        0.0000250446

	---Fragment 1 Intrafragment Coordinates---
	 - Coordinate -           - BOHR/RAD -       - ANG/DEG -
	 R(1,2)           =         1.877594	       0.993580
	 R(2,3)           =         2.733554	       1.446534
	 R(2,4)           =         2.559808	       1.354592
	 R(3,5)           =         2.048877	       1.084219
	 R(3,6)           =         2.052546	       1.086161
	 R(3,7)           =         2.034403	       1.076560
	 R(4,8)           =         2.864621	       1.515892
	 R(4,9)           =         2.267794	       1.200065
	 R(8,10)          =         2.051431	       1.085570
	 R(8,11)          =         2.040260	       1.079659
	 R(8,12)          =         2.051324	       1.085514
	 B(1,2,3)         =         2.058294	     117.931564
	 B(1,2,4)         =         2.069634	     118.581304
	 B(2,3,5)         =         1.922660	     110.160318
	 B(2,3,6)         =         1.967471	     112.727763
	 B(2,3,7)         =         1.876318	     107.505114
	 B(2,4,8)         =         2.000606	     114.626275
	 B(2,4,9)         =         2.148287	     123.087799
	 B(3,2,4)         =         2.155006	     123.472744
	 B(4,8,10)        =         1.931431	     110.662827
	 B(4,8,11)        =         1.900364	     108.882853
	 B(4,8,12)        =         1.931822	     110.685270
	 B(5,3,6)         =         1.896459	     108.659112
	 B(5,3,7)         =         1.899290	     108.821323
	 B(6,3,7)         =         1.900497	     108.890430
	 B(8,4,9)         =         2.134278	     122.285110
	 B(10,8,11)       =         1.907338	     109.282394
	 B(10,8,12)       =         1.884745	     107.987955
	 B(11,8,12)       =         1.907906	     109.314990
	 D(1,2,3,5)       =         0.897127	      51.401592
	 D(1,2,3,6)       =        -1.224386	     -70.152166
	 D(1,2,3,7)       =         2.964204	     169.836373
	 D(1,2,4,8)       =        -0.006310	      -0.361544
	 D(1,2,4,9)       =         3.129656	     179.316092
	 D(2,4,8,10)      =         1.045339	      59.893490
	 D(2,4,8,11)      =        -3.141147	    -179.974462
	 D(2,4,8,12)      =        -1.043505	     -59.788423
	 D(3,2,4,8)       =        -3.123291	    -178.951364
	 D(3,2,4,9)       =         0.012676	       0.726272
	*D(4,2,3,5)       =        -2.268928	    -130.000017
	 D(4,2,3,6)       =         1.892744	     108.446225
	 D(4,2,3,7)       =        -0.201851	     -11.565236
	 D(9,4,8,10)      =        -2.090678	    -119.787031
	 D(9,4,8,11)      =         0.006022	       0.345017
	 D(9,4,8,12)      =         2.103664	     120.531056

	Current energy   :      -247.0053838663

	Energy change for the previous step:
		Projected    :        -0.0015529838
		Actual       :        -0.0006067576

	Performing BFGS update.
	Previous computed or guess Hessian on step 1.
	Steps to be used in Hessian update: 1
	Taking RFO optimization step.
	Going to follow RFO solution 1.
	Using RFO vector 1.
	Norm of target step-size    0.07137
	Projected energy change by RFO approximation:        -0.0002480713

	Back-transformation to cartesian coordinates...
	Successfully converged to displaced geometry.

	Back-transformation to cartesian coordinates to adjust frozen coordinates...
	Successfully converged to displaced geometry.

	--- Internal Coordinate Step in ANG or DEG, aJ/ANG or AJ/DEG ---
	 ---------------------------------------------------------------------------
	   Coordinate                Previous        Force       Change         New 
	   ----------                --------       ------       ------       ------
	    1 R(1,2)          =      0.993580     0.002257     0.000214     0.993793
	    2 R(2,3)          =      1.446534    -0.009563    -0.001134     1.445401
	    3 R(2,4)          =      1.354592     0.001864     0.000152     1.354744
	    4 R(3,5)          =      1.084219     0.000690     0.000074     1.084293
	    5 R(3,6)          =      1.086161    -0.006361    -0.000606     1.085554
	    6 R(3,7)          =      1.076560     0.011085     0.001259     1.077819
	    7 R(4,8)          =      1.515892    -0.002663    -0.000402     1.515490
	    8 R(4,9)          =      1.200065     0.000584     0.000026     1.200091
	    9 R(8,10)         =      1.085570    -0.000664    -0.000088     1.085482
	   10 R(8,11)         =      1.079659    -0.000005    -0.000001     1.079658
	   11 R(8,12)         =      1.085514     0.000166     0.000022     1.085536
	   12 B(1,2,3)        =    117.931564     0.000096     0.287747   118.219311
	   13 B(1,2,4)        =    118.581304    -0.000021    -0.105603   118.475701
	   14 B(2,3,5)        =    110.160318     0.000060     0.265517   110.425835
	   15 B(2,3,6)        =    112.727763    -0.000312    -1.157131   111.570632
	   16 B(2,3,7)        =    107.505114     0.000208     0.766614   108.271728
	   17 B(2,4,8)        =    114.626275    -0.000027    -0.065783   114.560492
	   18 B(2,4,9)        =    123.087799     0.000035     0.067181   123.154980
	   19 B(3,2,4)        =    123.472744    -0.000074    -0.187391   123.285353
	   20 B(4,8,10)       =    110.662827    -0.000019    -0.069346   110.593482
	   21 B(4,8,11)       =    108.882853    -0.000006    -0.018862   108.863991
	   22 B(4,8,12)       =    110.685270     0.000012     0.045004   110.730274
	   23 B(5,3,6)        =    108.659112     0.000105     0.095966   108.755078
	   24 B(5,3,7)        =    108.821323    -0.000068     0.155983   108.977306
	   25 B(6,3,7)        =    108.890430     0.000010    -0.099033   108.791398
	   26 B(8,4,9)        =    122.285110    -0.000008    -0.023740   122.261369
	   27 B(10,8,11)      =    109.282394     0.000010     0.026666   109.309061
	   28 B(10,8,12)      =    107.987955     0.000003     0.008530   107.996485
	   29 B(11,8,12)      =    109.314990    -0.000000     0.009026   109.324016
	   30 D(1,2,3,5)      =     51.401592    -0.000005     0.237006    51.638598
	   31 D(1,2,3,6)      =    -70.152166     0.000004     0.715696   -69.436470
	   32 D(1,2,3,7)      =    169.836373     0.000012     1.037458   170.873831
	   33 D(1,2,4,8)      =     -0.361544    -0.000005    -1.601494    -1.963038
	   34 D(1,2,4,9)      =    179.316092     0.000003     0.437586   179.753677
	   35 D(2,4,8,10)     =     59.893490     0.000004     1.376175    61.269665
	   36 D(2,4,8,11)     =   -179.974462     0.000004     1.354530  -178.619932
	   37 D(2,4,8,12)     =    -59.788423     0.000005     1.381364   -58.407059
	   38 D(3,2,4,8)      =   -178.951364    -0.000010    -1.369097  -180.320461
	   39 D(3,2,4,9)      =      0.726272    -0.000002     0.669983     1.396254
	   40 *D(4,2,3,5)     =   -130.000017    -0.000000    -0.000000  -130.000017
	   41 D(4,2,3,6)      =    108.446225     0.000008     0.478691   108.924915
	   42 D(4,2,3,7)      =    -11.565236     0.000017     0.800452   -10.764784
	   43 D(9,4,8,10)     =   -119.787031    -0.000003    -0.642906  -120.429937
	   44 D(9,4,8,11)     =      0.345017    -0.000004    -0.664551    -0.319534
	   45 D(9,4,8,12)     =    120.531056    -0.000003    -0.637717   119.893339
	 ---------------------------------------------------------------------------

  ==> Convergence Check <==

  Measures of convergence in internal coordinates in au.
  Criteria marked as inactive (o), active & met (*), and active & unmet ( ).
  ---------------------------------------------------------------------------------------------
   Step     Total Energy     Delta E     MAX Force     RMS Force      MAX Disp      RMS Disp   
  ---------------------------------------------------------------------------------------------
    Convergence Criteria    1.00e-06 *    3.00e-04 *             o    1.20e-03 *             o
  ---------------------------------------------------------------------------------------------
      2    -247.00538387   -6.07e-04      4.10e-03      9.10e-04 o    2.80e-02      1.06e-02 o  ~
  ---------------------------------------------------------------------------------------------

	Writing optimization data to binary file.
	Structure for next step:
	Cartesian Geometry (in Angstrom)
	    H     0.3259388855   0.5183801803  -1.6138032574
	    N    -0.2243296043   0.3943862582  -0.7956006396
	    C    -1.5743917047   0.9106371490  -0.7951999016
	    C     0.3369847124  -0.2201759817   0.2733100240
	    H    -2.1135818065   0.5607442030  -1.6684356362
	    H    -1.5866023918   1.9961060857  -0.7892015741
	    H    -2.0727033052   0.5529159119   0.0910367683
	    C     1.7605408331  -0.6911466622   0.0533438207
	    O    -0.2483881802  -0.4094867429   1.3037073282
	    H     2.4110709629   0.1494382367  -0.1668826849
	    H     2.1068595425  -1.1856732839   0.9484238278
	    H     1.8117586935  -1.3826929975  -0.7818383413
			--------------------------
			 OPTKING Finished Execution 
			--------------------------

    Structure for next step:
    Molecular point group: c1
    Full point group: C1

    Geometry (in Angstrom), charge = 0, multiplicity = 1:

    H            0.325213325368     0.515870050528    -1.614863053932
    N           -0.225055122442     0.391876137867    -0.796660498680
    C           -1.575117119731     0.908126989298    -0.796259760698
    C            0.336259151424    -0.222686055083     0.272250083376
    H           -2.114307180373     0.558234069986    -1.669495428615
    H           -1.587327805907     1.993595843133    -0.790261433603
    H           -2.073428682172     0.550405779459     0.089976841517
    C            1.759815163436    -0.693656699584     0.052283896831
    O           -0.249113696434    -0.411996801795     1.302647308895
    H            2.410345243510     0.146928135149    -0.167942591952
    H            2.106133846426    -1.188183283574     0.947363835569
    H            1.811033019868    -1.385202982063    -0.782898201407

gradient() will perform analytic gradient computation.

*** tstart() called on cx1-5-5-1.cx1.hpc.ic.ac.uk
*** at Fri Sep  2 11:35:43 2016


         ---------------------------------------------------------
                                   SCF
            by Justin Turney, Rob Parrish, and Andy Simmonett
                              RHF Reference
                        4 Threads,   2000 MiB Core
         ---------------------------------------------------------

  ==> Geometry <==

    Molecular point group: c1
    Full point group: C1

    Geometry (in Angstrom), charge = 0, multiplicity = 1:

       Center              X                  Y                   Z               Mass       
    ------------   -----------------  -----------------  -----------------  -----------------
           H          0.325213325368     0.515870050528    -1.614863053932     1.007825032070
           N         -0.225055122442     0.391876137867    -0.796660498680    14.003074004780
           C         -1.575117119731     0.908126989298    -0.796259760698    12.000000000000
           C          0.336259151424    -0.222686055083     0.272250083376    12.000000000000
           H         -2.114307180373     0.558234069986    -1.669495428615     1.007825032070
           H         -1.587327805907     1.993595843133    -0.790261433603     1.007825032070
           H         -2.073428682172     0.550405779459     0.089976841517     1.007825032070
           C          1.759815163436    -0.693656699584     0.052283896831    12.000000000000
           O         -0.249113696434    -0.411996801795     1.302647308895    15.994914619560
           H          2.410345243510     0.146928135149    -0.167942591952     1.007825032070
           H          2.106133846426    -1.188183283574     0.947363835569     1.007825032070
           H          1.811033019868    -1.385202982063    -0.782898201407     1.007825032070

  Running in c1 symmetry.

  Rotational constants: A =      0.33903  B =      0.12958  C =      0.09712 [cm^-1]
  Rotational constants: A =  10163.72294  B =   3884.68667  C =   2911.60914 [MHz]
  Nuclear repulsion =  181.282237756870984

  Charge       = 0
  Multiplicity = 1
  Electrons    = 40
  Nalpha       = 20
  Nbeta        = 20

  ==> Algorithm <==

  SCF Algorithm Type is DF.
  DIIS enabled.
  MOM disabled.
  Fractional occupation disabled.
  Guess Type is READ.
  Energy threshold   = 1.00e-08
  Density threshold  = 1.00e-08
  Integral threshold = 0.00e+00

  ==> Primary Basis <==

  Basis Set: 6-31G*
    Number of shells: 44
    Number of basis function: 89
    Number of Cartesian functions: 89
    Spherical Harmonics?: false
    Max angular momentum: 2

  ==> Pre-Iterations <==

   -------------------------------------------------------
    Irrep   Nso     Nmo     Nalpha   Nbeta   Ndocc  Nsocc
   -------------------------------------------------------
     A         89      89       0       0       0       0
   -------------------------------------------------------
    Total      89      89      20      20      20       0
   -------------------------------------------------------

 OEINTS: Overlap, kinetic, potential, dipole, and quadrupole integrals
         stored in file 35.

  ==> Integral Setup <==

  ==> DFJK: Density-Fitted J/K Matrices <==

    J tasked:                  Yes
    K tasked:                  Yes
    wK tasked:                  No
    OpenMP threads:              4
    Integrals threads:           4
    Memory (MB):              1430
    Algorithm:                Core
    Integral Cache:           NONE
    Schwarz Cutoff:          1E-12
    Fitting Condition:       1E-12

   => Auxiliary Basis Set <=

  Basis Set: 
    Number of shells: 183
    Number of basis function: 580
    Number of Cartesian functions: 580
    Spherical Harmonics?: false
    Max angular momentum: 3

  Minimum eigenvalue in the overlap matrix is 3.6900031782E-03.
  Using Symmetric Orthogonalization.
  SCF Guess: Reading in previously saved MOs, projecting if necessary.

  Using orbitals from previous SCF, no projection.
  Recomputing DOCC and SOCC from number of alpha and beta electrons from previous calculation.
              A 
    DOCC [    20 ]

  ==> Iterations <==

                           Total Energy        Delta E     RMS |[F,P]|

   @DF-RHF iter   0:  -247.00506069428843   -2.47005e+02   3.83151e-04 
   @DF-RHF iter   1:  -247.00540918673204   -3.48492e-04   5.64278e-05 
   @DF-RHF iter   2:  -247.00543389306023   -2.47063e-05   1.99198e-05 DIIS
   @DF-RHF iter   3:  -247.00543775067075   -3.85761e-06   5.55243e-06 DIIS
   @DF-RHF iter   4:  -247.00543793156470   -1.80894e-07   1.89415e-06 DIIS
   @DF-RHF iter   5:  -247.00543796197923   -3.04145e-08   8.69162e-07 DIIS
   @DF-RHF iter   6:  -247.00543796846733   -6.48811e-09   2.83273e-07 DIIS
   @DF-RHF iter   7:  -247.00543796935716   -8.89827e-10   7.15940e-08 DIIS
   @DF-RHF iter   8:  -247.00543796941264   -5.54792e-11   2.81335e-08 DIIS
   @DF-RHF iter   9:  -247.00543796942014   -7.50333e-12   1.04998e-08 DIIS
   @DF-RHF iter  10:  -247.00543796942236   -2.21689e-12   3.89808e-09 DIIS

  ==> Post-Iterations <==

    Orbital Energies (a.u.)
    -----------------------

    Doubly Occupied:                                                      

       1A    -20.515851     2A    -15.581275     3A    -11.343056  
       4A    -11.253740     5A    -11.229650     6A     -1.384148  
       7A     -1.228030     8A     -1.015692     9A     -0.931561  
      10A     -0.786558    11A     -0.689146    12A     -0.648000  
      13A     -0.632227    14A     -0.585835    15A     -0.579644  
      16A     -0.554583    17A     -0.544070    18A     -0.507371  
      19A     -0.412842    20A     -0.384200  

    Virtual:                                                              

      21A      0.211198    22A      0.220073    23A      0.267770  
      24A      0.282722    25A      0.313800    26A      0.320175  
      27A      0.326464    28A      0.345192    29A      0.374370  
      30A      0.427493    31A      0.500176    32A      0.578978  
      33A      0.722840    34A      0.730652    35A      0.751527  
      36A      0.765686    37A      0.818397    38A      0.829573  
      39A      0.905551    40A      0.949856    41A      0.984110  
      42A      1.007296    43A      1.030222    44A      1.077514  
      45A      1.116896    46A      1.142342    47A      1.155104  
      48A      1.188358    49A      1.200021    50A      1.211360  
      51A      1.227268    52A      1.242543    53A      1.316899  
      54A      1.351458    55A      1.418863    56A      1.589140  
      57A      1.617787    58A      1.667550    59A      1.674094  
      60A      1.690863    61A      1.828179    62A      1.921942  
      63A      2.047599    64A      2.113953    65A      2.138097  
      66A      2.173986    67A      2.213953    68A      2.233645  
      69A      2.325877    70A      2.390262    71A      2.417649  
      72A      2.532508    73A      2.551964    74A      2.610795  
      75A      2.658763    76A      2.697094    77A      2.751046  
      78A      2.789290    79A      2.895473    80A      3.016716  
      81A      3.042720    82A      3.282647    83A      3.375919  
      84A      3.555207    85A      4.371860    86A      4.477132  
      87A      4.626234    88A      4.688917    89A      4.907185  

    Final Occupation by Irrep:
              A 
    DOCC [    20 ]

  Energy converged.

  @DF-RHF Final Energy:  -247.00543796942236

   => Energetics <=

    Nuclear Repulsion Energy =            181.2822377568709840
    One-Electron Energy =                -694.9603922495687129
    Two-Electron Energy =                 266.6727165232752554
    DFT Exchange-Correlation Energy =       0.0000000000000000
    Empirical Dispersion Energy =           0.0000000000000000
    PCM Polarization Energy =               0.0000000000000000
    EFP Energy =                            0.0000000000000000
    Total Energy =                       -247.0054379694225304

    Alert: EFP and PCM quantities not currently incorporated into SCF psivars.

Properties will be evaluated at   0.000000,   0.000000,   0.000000 Bohr
  ==> Properties <==


Properties computed using the SCF density matrix

  Nuclear Dipole Moment: (a.u.)
     X:     0.8222      Y:     1.1140      Z:    -3.7302

  Electronic Dipole Moment: (a.u.)
     X:    -0.3398      Y:    -0.7393      Z:     2.3036

  Dipole Moment: (a.u.)
     X:     0.4824      Y:     0.3747      Z:    -1.4266     Total:     1.5518

  Dipole Moment: (Debye)
     X:     1.2261      Y:     0.9524      Z:    -3.6260     Total:     3.9444


  Saving occupied orbitals to File 180.

*** tstop() called on cx1-5-5-1.cx1.hpc.ic.ac.uk at Fri Sep  2 11:35:46 2016
Module time:
	user time   =       7.81 seconds =       0.13 minutes
	system time =       0.10 seconds =       0.00 minutes
	total time  =          3 seconds =       0.05 minutes
Total time:
	user time   =      46.94 seconds =       0.78 minutes
	system time =       0.73 seconds =       0.01 minutes
	total time  =         17 seconds =       0.28 minutes

*** tstart() called on cx1-5-5-1.cx1.hpc.ic.ac.uk
*** at Fri Sep  2 11:35:46 2016


         ------------------------------------------------------------
                                   SCF GRAD                          
                          Rob Parrish, Justin Turney,                
                       Andy Simmonett, and Alex Sokolov              
         ------------------------------------------------------------

  ==> Geometry <==

    Molecular point group: c1
    Full point group: C1

    Geometry (in Angstrom), charge = 0, multiplicity = 1:

       Center              X                  Y                   Z               Mass       
    ------------   -----------------  -----------------  -----------------  -----------------
           H          0.325213325368     0.515870050528    -1.614863053932     1.007825032070
           N         -0.225055122442     0.391876137867    -0.796660498680    14.003074004780
           C         -1.575117119731     0.908126989298    -0.796259760698    12.000000000000
           C          0.336259151424    -0.222686055083     0.272250083376    12.000000000000
           H         -2.114307180373     0.558234069986    -1.669495428615     1.007825032070
           H         -1.587327805907     1.993595843133    -0.790261433603     1.007825032070
           H         -2.073428682172     0.550405779459     0.089976841517     1.007825032070
           C          1.759815163436    -0.693656699584     0.052283896831    12.000000000000
           O         -0.249113696434    -0.411996801795     1.302647308895    15.994914619560
           H          2.410345243510     0.146928135149    -0.167942591952     1.007825032070
           H          2.106133846426    -1.188183283574     0.947363835569     1.007825032070
           H          1.811033019868    -1.385202982063    -0.782898201407     1.007825032070

  Nuclear repulsion =  181.282237756870984

  ==> Basis Set <==

  Basis Set: 6-31G*
    Number of shells: 44
    Number of basis function: 89
    Number of Cartesian functions: 89
    Spherical Harmonics?: false
    Max angular momentum: 2

  ==> DFJKGrad: Density-Fitted SCF Gradients <==

    Gradient:                    1
    J tasked:                  Yes
    K tasked:                  Yes
    wK tasked:                  No
    OpenMP threads:              4
    Integrals threads:           4
    Memory (MB):              1430
    Schwarz Cutoff:          0E+00
    Fitting Condition:       1E-12

   => Auxiliary Basis Set <=

  Basis Set: 
    Number of shells: 183
    Number of basis function: 580
    Number of Cartesian functions: 580
    Spherical Harmonics?: false
    Max angular momentum: 3


  -Total Gradient:
     Atom            X                  Y                   Z
    ------   -----------------  -----------------  -----------------
       1       -0.000211182467    -0.000302500651    -0.000231237902
       2        0.000081934223    -0.000840470241     0.000206448322
       3        0.000004566624    -0.000056939124    -0.000240087868
       4        0.001472774501     0.004107249094     0.001487191442
       5       -0.000123001919    -0.000100969320     0.000054887286
       6       -0.000098373609     0.000119263294     0.000072500167
       7        0.000103890075    -0.000000249044    -0.000108795412
       8       -0.000526274837    -0.001201477524    -0.000516737621
       9       -0.000608356245    -0.001577940915    -0.000666220485
      10       -0.000334812216     0.000063738399     0.000042936974
      11       -0.000053603333    -0.000074324627    -0.000021680883
      12        0.000292439202    -0.000135379339    -0.000079204018


*** tstop() called on cx1-5-5-1.cx1.hpc.ic.ac.uk at Fri Sep  2 11:35:49 2016
Module time:
	user time   =      10.76 seconds =       0.18 minutes
	system time =       0.20 seconds =       0.00 minutes
	total time  =          3 seconds =       0.05 minutes
Total time:
	user time   =      57.71 seconds =       0.96 minutes
	system time =       0.94 seconds =       0.02 minutes
	total time  =         20 seconds =       0.33 minutes
CURRENT ENERGY: -247.0054379694

			-----------------------------------------
			 OPTKING 2.0: for geometry optimizations 
			  - R.A. King,  Bethel University        
			-----------------------------------------

	Previous internal coordinate definitions found.
	---Fragment 1 Geometry and Gradient---
	 H           0.6145641197        0.9748531157       -3.0516489140
	 N          -0.4252925462        0.7405385786       -1.5054701634
	 C          -2.9765399835        1.7161113037       -1.5047128784
	 C           0.6354377059       -0.4208156577        0.5144780972
	 H          -3.9954615317        1.0549095103       -3.1548891402
	 H          -2.9996148363        3.7673501632       -1.4933776829
	 H          -3.9182123654        1.0401161851        0.1700315888
	 C           3.3255687034       -1.3108211925        0.0988022462
	 O          -0.4707566622       -0.7785611230        2.4616466616
	 H           4.5548923959        0.2776539366       -0.3173655048
	 H           3.9800161689       -2.2453410016        1.7902581974
	 H           3.4223564252       -2.6176542746       -1.4794631906
	            -0.0002111825       -0.0003025007       -0.0002312379
	             0.0000819342       -0.0008404702        0.0002064483
	             0.0000045666       -0.0000569391       -0.0002400879
	             0.0014727745        0.0041072491        0.0014871914
	            -0.0001230019       -0.0001009693        0.0000548873
	            -0.0000983736        0.0001192633        0.0000725002
	             0.0001038901       -0.0000002490       -0.0001087954
	            -0.0005262748       -0.0012014775       -0.0005167376
	            -0.0006083562       -0.0015779409       -0.0006662205
	            -0.0003348122        0.0000637384        0.0000429370
	            -0.0000536033       -0.0000743246       -0.0000216809
	             0.0002924392       -0.0001353793       -0.0000792040

	---Fragment 1 Intrafragment Coordinates---
	 - Coordinate -           - BOHR/RAD -       - ANG/DEG -
	 R(1,2)           =         1.877997	       0.993793
	 R(2,3)           =         2.731411	       1.445401
	 R(2,4)           =         2.560094	       1.354744
	 R(3,5)           =         2.049017	       1.084293
	 R(3,6)           =         2.051400	       1.085554
	 R(3,7)           =         2.036783	       1.077819
	 R(4,8)           =         2.863861	       1.515490
	 R(4,9)           =         2.267843	       1.200091
	 R(8,10)          =         2.051264	       1.085482
	 R(8,11)          =         2.040258	       1.079658
	 R(8,12)          =         2.051366	       1.085536
	 B(1,2,3)         =         2.063316	     118.219311
	 B(1,2,4)         =         2.067791	     118.475701
	 B(2,3,5)         =         1.927294	     110.425835
	 B(2,3,6)         =         1.947275	     111.570632
	 B(2,3,7)         =         1.889698	     108.271728
	 B(2,4,8)         =         1.999458	     114.560492
	 B(2,4,9)         =         2.149460	     123.154980
	 B(3,2,4)         =         2.151735	     123.285353
	 B(4,8,10)        =         1.930220	     110.593482
	 B(4,8,11)        =         1.900035	     108.863991
	 B(4,8,12)        =         1.932608	     110.730274
	 B(5,3,6)         =         1.898134	     108.755078
	 B(5,3,7)         =         1.902013	     108.977306
	 B(6,3,7)         =         1.898768	     108.791398
	 B(8,4,9)         =         2.133863	     122.261369
	 B(10,8,11)       =         1.907803	     109.309061
	 B(10,8,12)       =         1.884894	     107.996485
	 B(11,8,12)       =         1.908064	     109.324016
	 D(1,2,3,5)       =         0.901264	      51.638598
	 D(1,2,3,6)       =        -1.211895	     -69.436470
	 D(1,2,3,7)       =         2.982311	     170.873831
	 D(1,2,4,8)       =        -0.034261	      -1.963038
	 D(1,2,4,9)       =         3.137294	     179.753677
	 D(2,4,8,10)      =         1.069357	      61.269665
	 D(2,4,8,11)      =        -3.117506	    -178.619932
	 D(2,4,8,12)      =        -1.019395	     -58.407059
	 D(3,2,4,8)       =         3.136000	     179.679539
	 D(3,2,4,9)       =         0.024369	       1.396254
	*D(4,2,3,5)       =        -2.268928	    -130.000017
	 D(4,2,3,6)       =         1.901098	     108.924915
	 D(4,2,3,7)       =        -0.187881	     -10.764784
	 D(9,4,8,10)      =        -2.101899	    -120.429937
	 D(9,4,8,11)      =        -0.005577	      -0.319534
	 D(9,4,8,12)      =         2.092534	     119.893339

	Current energy   :      -247.0054379694

	Energy change for the previous step:
		Projected    :        -0.0002480713
		Actual       :        -0.0000541031
	Energy ratio indicates iffy step: Trust radius decreased to 1.250e-01.


	Performing BFGS update.
	Previous computed or guess Hessian on step 1.
	Steps to be used in Hessian update: 2 1
	Taking RFO optimization step.
	Going to follow RFO solution 1.
	Using RFO vector 1.
	Norm of target step-size    0.08470
	Projected energy change by RFO approximation:        -0.0002449533

	Back-transformation to cartesian coordinates...
	Successfully converged to displaced geometry.

	Back-transformation to cartesian coordinates to adjust frozen coordinates...
	Successfully converged to displaced geometry.

	--- Internal Coordinate Step in ANG or DEG, aJ/ANG or AJ/DEG ---
	 ---------------------------------------------------------------------------
	   Coordinate                Previous        Force       Change         New 
	   ----------                --------       ------       ------       ------
	    1 R(1,2)          =      0.993793    -0.000294     0.000130     0.993923
	    2 R(2,3)          =      1.445401    -0.000754    -0.000841     1.444559
	    3 R(2,4)          =      1.354744     0.001989     0.000153     1.354896
	    4 R(3,5)          =      1.084293    -0.000408    -0.000143     1.084150
	    5 R(3,6)          =      1.085554    -0.000995     0.001487     1.087041
	    6 R(3,7)          =      1.077819     0.001132    -0.000836     1.076983
	    7 R(4,8)          =      1.515490     0.000678    -0.000240     1.515250
	    8 R(4,9)          =      1.200091     0.000217     0.000026     1.200117
	    9 R(8,10)         =      1.085482     0.001318     0.000051     1.085534
	   10 R(8,11)         =      1.079658     0.000009    -0.000004     1.079654
	   11 R(8,12)         =      1.085536    -0.001326    -0.000103     1.085433
	   12 B(1,2,3)        =    118.219311     0.000008     0.218197   118.437508
	   13 B(1,2,4)        =    118.475701    -0.000009    -0.082640   118.393061
	   14 B(2,3,5)        =    110.425835    -0.000007     0.017062   110.442896
	   15 B(2,3,6)        =    111.570632    -0.000010     0.016270   111.586902
	   16 B(2,3,7)        =    108.271728     0.000009    -0.133466   108.138262
	   17 B(2,4,8)        =    114.560492     0.000005    -0.022576   114.537915
	   18 B(2,4,9)        =    123.154980     0.000001     0.043350   123.198329
	   19 B(3,2,4)        =    123.285353     0.000001    -0.170068   123.115285
	   20 B(4,8,10)       =    110.593482     0.000040     0.042529   110.636011
	   21 B(4,8,11)       =    108.863991     0.000003    -0.008933   108.855058
	   22 B(4,8,12)       =    110.730274    -0.000040    -0.059097   110.671177
	   23 B(5,3,6)        =    108.755078     0.000008     0.020602   108.775680
	   24 B(5,3,7)        =    108.977306    -0.000002     0.168534   109.145840
	   25 B(6,3,7)        =    108.791398     0.000003    -0.086413   108.704985
	   26 B(8,4,9)        =    122.261369    -0.000003    -0.004339   122.257030
	   27 B(10,8,11)      =    109.309061    -0.000014     0.000494   109.309555
	   28 B(10,8,12)      =    107.996485    -0.000000     0.005054   108.001539
	   29 B(11,8,12)      =    109.324016     0.000012     0.020584   109.344599
	   30 D(1,2,3,5)      =     51.638598     0.000002     1.083607    52.722205
	   31 D(1,2,3,6)      =    -69.436470     0.000003     1.034788   -68.401682
	   32 D(1,2,3,7)      =    170.873831     0.000002     1.217155   172.090986
	   33 D(1,2,4,8)      =     -1.963038     0.000010     0.254574    -1.708464
	   34 D(1,2,4,9)      =    179.753677    -0.000014    -2.387434   177.366243
	   35 D(2,4,8,10)     =     61.269665    -0.000013    -1.189817    60.079847
	   36 D(2,4,8,11)     =   -178.619932    -0.000011    -1.168787  -179.788719
	   37 D(2,4,8,12)     =    -58.407059    -0.000013    -1.185438   -59.592498
	   38 D(3,2,4,8)      =    179.679539     0.000012     1.333076   181.012614
	   39 D(3,2,4,9)      =      1.396254    -0.000012    -1.308932     0.087322
	   40 *D(4,2,3,5)     =   -130.000017    -0.000000    -0.000000  -130.000017
	   41 D(4,2,3,6)      =    108.924915     0.000000    -0.048819   108.876096
	   42 D(4,2,3,7)      =    -10.764784    -0.000000     0.133548   -10.631236
	   43 D(9,4,8,10)     =   -120.429937     0.000011     1.425358  -119.004579
	   44 D(9,4,8,11)     =     -0.319534     0.000013     1.446388     1.126854
	   45 D(9,4,8,12)     =    119.893339     0.000011     1.429737   121.323076
	 ---------------------------------------------------------------------------

  ==> Convergence Check <==

  Measures of convergence in internal coordinates in au.
  Criteria marked as inactive (o), active & met (*), and active & unmet ( ).
  ---------------------------------------------------------------------------------------------
   Step     Total Energy     Delta E     MAX Force     RMS Force      MAX Disp      RMS Disp   
  ---------------------------------------------------------------------------------------------
    Convergence Criteria    1.00e-06 *    3.00e-04 *             o    1.20e-03 *             o
  ---------------------------------------------------------------------------------------------
      3    -247.00543797   -5.41e-05      8.18e-04      3.53e-04 o    4.17e-02      1.26e-02 o  ~
  ---------------------------------------------------------------------------------------------

	Writing optimization data to binary file.
	Structure for next step:
	Cartesian Geometry (in Angstrom)
	    H     0.3285677247   0.5182709539  -1.6144058536
	    N    -0.2285745370   0.3822997757  -0.8026253715
	    C    -1.5740701277   0.9079856206  -0.7957708284
	    C     0.3283054034  -0.2403455589   0.2641180676
	    H    -2.1187137771   0.5659005556  -1.6685376008
	    H    -1.5787127817   1.9949562260  -0.7842973675
	    H    -2.0689468763   0.5510982762   0.0917092318
	    C     1.7584741005  -0.6938228941   0.0520859263
	    O    -0.2496713427  -0.4083697611   1.3023816883
	    H     2.3992697585   0.1533641152  -0.1716079130
	    H     2.1079382682  -1.1781123108   0.9515251670
	    H     1.8205844008  -1.3899137261  -0.7784344507
			--------------------------
			 OPTKING Finished Execution 
			--------------------------

    Structure for next step:
    Molecular point group: c1
    Full point group: C1

    Geometry (in Angstrom), charge = 0, multiplicity = 1:

    H            0.330549206397     0.521933821114    -1.612110315222
    N           -0.226593012762     0.385962653243    -0.800329895161
    C           -1.572088500685     0.911648457997    -0.793475352573
    C            0.330286885159    -0.236682633812     0.266413462520
    H           -2.116732108524     0.569563419195    -1.666242058336
    H           -1.576731154348     1.998618980435    -0.782001892530
    H           -2.066965211476     0.554761140855     0.094004639852
    C            1.760455473072    -0.690159934394     0.054381337456
    O           -0.247689816821    -0.404706823161     1.304677003941
    H            2.401251082124     0.157027010267    -0.169312484833
    H            2.109919614016    -1.174449314050     0.953820509437
    H            1.822565768563    -1.386250713146    -0.776138976203

gradient() will perform analytic gradient computation.

*** tstart() called on cx1-5-5-1.cx1.hpc.ic.ac.uk
*** at Fri Sep  2 11:35:49 2016


         ---------------------------------------------------------
                                   SCF
            by Justin Turney, Rob Parrish, and Andy Simmonett
                              RHF Reference
                        4 Threads,   2000 MiB Core
         ---------------------------------------------------------

  ==> Geometry <==

    Molecular point group: c1
    Full point group: C1

    Geometry (in Angstrom), charge = 0, multiplicity = 1:

       Center              X                  Y                   Z               Mass       
    ------------   -----------------  -----------------  -----------------  -----------------
           H          0.330549206397     0.521933821114    -1.612110315222     1.007825032070
           N         -0.226593012762     0.385962653243    -0.800329895161    14.003074004780
           C         -1.572088500685     0.911648457997    -0.793475352573    12.000000000000
           C          0.330286885159    -0.236682633812     0.266413462520    12.000000000000
           H         -2.116732108524     0.569563419195    -1.666242058336     1.007825032070
           H         -1.576731154348     1.998618980435    -0.782001892530     1.007825032070
           H         -2.066965211476     0.554761140855     0.094004639852     1.007825032070
           C          1.760455473072    -0.690159934394     0.054381337456    12.000000000000
           O         -0.247689816821    -0.404706823161     1.304677003941    15.994914619560
           H          2.401251082124     0.157027010267    -0.169312484833     1.007825032070
           H          2.109919614016    -1.174449314050     0.953820509437     1.007825032070
           H          1.822565768563    -1.386250713146    -0.776138976203     1.007825032070

  Running in c1 symmetry.

  Rotational constants: A =      0.33898  B =      0.12975  C =      0.09722 [cm^-1]
  Rotational constants: A =  10162.32594  B =   3889.79112  C =   2914.46180 [MHz]
  Nuclear repulsion =  181.328708291698462

  Charge       = 0
  Multiplicity = 1
  Electrons    = 40
  Nalpha       = 20
  Nbeta        = 20

  ==> Algorithm <==

  SCF Algorithm Type is DF.
  DIIS enabled.
  MOM disabled.
  Fractional occupation disabled.
  Guess Type is READ.
  Energy threshold   = 1.00e-08
  Density threshold  = 1.00e-08
  Integral threshold = 0.00e+00

[...]
Module time:
	user time   =       8.64 seconds =       0.14 minutes
	system time =       0.13 seconds =       0.00 minutes
	total time  =          4 seconds =       0.07 minutes
Total time:
	user time   =     138.72 seconds =       2.31 minutes
	system time =       2.33 seconds =       0.04 minutes
	total time  =         47 seconds =       0.78 minutes

*** tstart() called on cx1-5-5-1.cx1.hpc.ic.ac.uk
*** at Fri Sep  2 11:36:16 2016


         ------------------------------------------------------------
                                   SCF GRAD                          
                          Rob Parrish, Justin Turney,                
                       Andy Simmonett, and Alex Sokolov              
         ------------------------------------------------------------

  ==> Geometry <==

    Molecular point group: c1
    Full point group: C1

    Geometry (in Angstrom), charge = 0, multiplicity = 1:

       Center              X                  Y                   Z               Mass       
    ------------   -----------------  -----------------  -----------------  -----------------
           H          0.326967119189     0.519684566232    -1.612564671171     1.007825032070
           N         -0.230643176928     0.378106991408    -0.802195104178    14.003074004780
           C         -1.572759263703     0.914328328125    -0.793985840926    12.000000000000
           C          0.332510722257    -0.232364290508     0.268593445892    12.000000000000
           H         -2.126566896649     0.562636635862    -1.657235647030     1.007825032070
           H         -1.567446363303     1.999735814464    -0.801356347238     1.007825032070
           H         -2.066893727486     0.575122198436     0.101927555890     1.007825032070
           C          1.762715528042    -0.686096303009     0.055135969201    12.000000000000
           O         -0.247267319053    -0.407825544994     1.304532895100    15.994914619560
           H          2.406209906279     0.164351087453    -0.148055445902     1.007825032070
           H          2.106892290554    -1.187629221105     0.947140949900     1.007825032070
           H          1.828861647221    -1.365762532015    -0.788497655097     1.007825032070

  Nuclear repulsion =  181.273596992294983

  ==> Basis Set <==

  Basis Set: 6-31G*
    Number of shells: 44
    Number of basis function: 89
    Number of Cartesian functions: 89
    Spherical Harmonics?: false
    Max angular momentum: 2

  ==> DFJKGrad: Density-Fitted SCF Gradients <==

    Gradient:                    1
    J tasked:                  Yes
    K tasked:                  Yes
    wK tasked:                  No
    OpenMP threads:              4
    Integrals threads:           4
    Memory (MB):              1430
    Schwarz Cutoff:          0E+00
    Fitting Condition:       1E-12

   => Auxiliary Basis Set <=

  Basis Set: 
    Number of shells: 183
    Number of basis function: 580
    Number of Cartesian functions: 580
    Spherical Harmonics?: false
    Max angular momentum: 3


  -Total Gradient:
     Atom            X                  Y                   Z
    ------   -----------------  -----------------  -----------------
       1        0.000008010018     0.000026613103     0.000006037236
       2        0.000031988947     0.000056364481     0.000060707106
       3        0.000028347129     0.000099010320    -0.000078657670
       4       -0.000035509702    -0.000068374779    -0.000018315847
       5       -0.000035479828    -0.000095500954     0.000060550050
       6       -0.000007902222     0.000004155898    -0.000009104174
       7        0.000014455200    -0.000006123614    -0.000009540627
       8        0.000017798060     0.000050751585     0.000021462420
       9       -0.000007784488    -0.000032095724    -0.000014932557
      10        0.000011023317    -0.000018000863    -0.000025346067
      11       -0.000000305863     0.000000101875    -0.000000255220
      12       -0.000024640568    -0.000016901325     0.000007395346


*** tstop() called on cx1-5-5-1.cx1.hpc.ic.ac.uk at Fri Sep  2 11:36:19 2016
Module time:
	user time   =      11.06 seconds =       0.18 minutes
	system time =       0.17 seconds =       0.00 minutes
	total time  =          3 seconds =       0.05 minutes
Total time:
	user time   =     149.80 seconds =       2.50 minutes
	system time =       2.50 seconds =       0.04 minutes
	total time  =         50 seconds =       0.83 minutes
CURRENT ENERGY: -247.0054946332

			-----------------------------------------
			 OPTKING 2.0: for geometry optimizations 
			  - R.A. King,  Bethel University        
			-----------------------------------------

	Previous internal coordinate definitions found.
	---Fragment 1 Geometry and Gradient---
	 H           0.6178783097        0.9820615057       -3.0473056001
	 N          -0.4358524388        0.7145186627       -1.5159290520
	 C          -2.9720842814        1.7278301357       -1.5004157927
	 C           0.6283542013       -0.4391048721        0.5075680538
	 H          -4.0186290379        1.0632291541       -3.1317215105
	 H          -2.9620443546        3.7789530275       -1.5143440311
	 H          -3.9058630907        1.0868234480        0.1926151660
	 C           3.3310495982       -1.2965341135        0.1041918819
	 O          -0.4672675146       -0.7706785900        2.4652099031
	 H           4.5470777411        0.3105785449       -0.2797842452
	 H           3.9814494206       -2.2442939753        1.7898370046
	 H           3.4560476482       -2.5809171481       -1.4900446246
	             0.0000080100        0.0000266131        0.0000060372
	             0.0000319889        0.0000563645        0.0000607071
	             0.0000283471        0.0000990103       -0.0000786577
	            -0.0000355097       -0.0000683748       -0.0000183158
	            -0.0000354798       -0.0000955010        0.0000605501
	            -0.0000079022        0.0000041559       -0.0000091042
	             0.0000144552       -0.0000061236       -0.0000095406
	             0.0000177981        0.0000507516        0.0000214624
	            -0.0000077845       -0.0000320957       -0.0000149326
	             0.0000110233       -0.0000180009       -0.0000253461
	            -0.0000003059        0.0000001019       -0.0000002552
	            -0.0000246406       -0.0000169013        0.0000073953

	---Fragment 1 Intrafragment Coordinates---
	 - Coordinate -           - BOHR/RAD -       - ANG/DEG -
	 R(1,2)           =         1.878042	       0.993817
	 R(2,3)           =         2.731211	       1.445295
	 R(2,4)           =         2.560844	       1.355141
	 R(3,5)           =         2.048929	       1.084246
	 R(3,6)           =         2.051195	       1.085446
	 R(3,7)           =         2.036955	       1.077910
	 R(4,8)           =         2.863994	       1.515560
	 R(4,9)           =         2.267750	       1.200042
	 R(8,10)          =         2.051578	       1.085649
	 R(8,11)          =         2.040262	       1.079660
	 R(8,12)          =         2.051062	       1.085375
	 B(1,2,3)         =         2.063264	     118.216347
	 B(1,2,4)         =         2.066124	     118.380204
	 B(2,3,5)         =         1.927777	     110.453499
	 B(2,3,6)         =         1.945949	     111.494690
	 B(2,3,7)         =         1.889842	     108.279970
	 B(2,4,8)         =         1.999554	     114.566001
	 B(2,4,9)         =         2.149820	     123.175623
	 B(3,2,4)         =         2.151424	     123.267516
	 B(4,8,10)        =         1.929632	     110.559759
	 B(4,8,11)        =         1.900261	     108.876941
	 B(4,8,12)        =         1.933132	     110.760326
	 B(5,3,6)         =         1.898054	     108.750490
	 B(5,3,7)         =         1.902361	     108.997281
	 B(6,3,7)         =         1.899235	     108.818132
	 B(8,4,9)         =         2.133804	     122.257989
	 B(10,8,11)       =         1.906644	     109.242679
	 B(10,8,12)       =         1.884876	     107.995440
	 B(11,8,12)       =         1.909070	     109.381652
	 D(1,2,3,5)       =         0.947932	      54.312522
	 D(1,2,3,6)       =        -1.164564	     -66.724596
	 D(1,2,3,7)       =         3.029776	     173.593381
	 D(1,2,4,8)       =        -0.047132	      -2.700446
	 D(1,2,4,9)       =         3.098333	     177.521409
	 D(2,4,8,10)      =         1.081199	      61.948132
	 D(2,4,8,11)      =        -3.107308	    -178.035658
	 D(2,4,8,12)      =        -1.007489	     -57.724842
	 D(3,2,4,8)       =        -3.113340	    -178.381249
	 D(3,2,4,9)       =         0.032125	       1.840606
	*D(4,2,3,5)       =        -2.268928	    -130.000017
	 D(4,2,3,6)       =         1.901761	     108.962865
	 D(4,2,3,7)       =        -0.187085	     -10.719158
	 D(9,4,8,10)      =        -2.064226	    -118.271452
	 D(9,4,8,11)      =         0.030452	       1.744758
	 D(9,4,8,12)      =         2.130272	     122.055574

	Current energy   :      -247.0054946332

	Energy change for the previous step:
		Projected    :         0.0000000063
		Actual       :        -0.0000008950

	Performing BFGS update.
	Previous computed or guess Hessian on step 1.
	Steps to be used in Hessian update: 7 6
	Taking RFO optimization step.
	Going to follow RFO solution 1.
	Using RFO vector 1.

	Determining step-restricting scale parameter for RS-RFO.
	Maximum step size allowed    0.03125

	 Iter      |step|        alpha        rfo_root  
	------------------------------------------------
	    0     0.04500       1.00000           1
	    1     0.03593     124.80301           1
	    2     0.03208     218.32160           1
	    3     0.03128     242.49796           1
	    4     0.03125     243.56729           1
	------------------------------------------------
	Norm of target step-size    0.03125
	Projected energy change by RFO approximation:        -0.0000012800

	Back-transformation to cartesian coordinates...
	Successfully converged to displaced geometry.

	Back-transformation to cartesian coordinates to adjust frozen coordinates...
	Successfully converged to displaced geometry.

	--- Internal Coordinate Step in ANG or DEG, aJ/ANG or AJ/DEG ---
	 ---------------------------------------------------------------------------
	   Coordinate                Previous        Force       Change         New 
	   ----------                --------       ------       ------       ------
	    1 R(1,2)          =      0.993817    -0.000028     0.000002     0.993819
	    2 R(2,3)          =      1.445295    -0.000007     0.000004     1.445298
	    3 R(2,4)          =      1.355141     0.000017     0.000040     1.355180
	    4 R(3,5)          =      1.084246    -0.000007    -0.000002     1.084244
	    5 R(3,6)          =      1.085446    -0.000034    -0.000012     1.085433
	    6 R(3,7)          =      1.077910     0.000104     0.000026     1.077936
	    7 R(4,8)          =      1.515560     0.000013     0.000002     1.515562
	    8 R(4,9)          =      1.200042     0.000037     0.000000     1.200042
	    9 R(8,10)         =      1.085649     0.000023     0.000026     1.085675
	   10 R(8,11)         =      1.079660     0.000003    -0.000001     1.079659
	   11 R(8,12)         =      1.085375    -0.000027    -0.000025     1.085351
	   12 B(1,2,3)        =    118.216347     0.000001    -0.008897   118.207451
	   13 B(1,2,4)        =    118.380204    -0.000000    -0.003721   118.376483
	   14 B(2,3,5)        =    110.453499     0.000000     0.001965   110.455464
	   15 B(2,3,6)        =    111.494690    -0.000001    -0.002802   111.491888
	   16 B(2,3,7)        =    108.279970     0.000001     0.002686   108.282656
	   17 B(2,4,8)        =    114.566001     0.000001     0.001101   114.567102
	   18 B(2,4,9)        =    123.175623    -0.000001     0.001028   123.176650
	   19 B(3,2,4)        =    123.267516    -0.000000    -0.001256   123.266261
	   20 B(4,8,10)       =    110.559759    -0.000003    -0.046300   110.513459
	   21 B(4,8,11)       =    108.876941    -0.000000    -0.001119   108.875821
	   22 B(4,8,12)       =    110.760326     0.000003     0.047261   110.807587
	   23 B(5,3,6)        =    108.750490     0.000000     0.000161   108.750650
	   24 B(5,3,7)        =    108.997281    -0.000000     0.000463   108.997744
	   25 B(6,3,7)        =    108.818132    -0.000001    -0.002480   108.815652
	   26 B(8,4,9)        =    122.257989    -0.000000    -0.001971   122.256018
	   27 B(10,8,11)      =    109.242679     0.000000    -0.019508   109.223171
	   28 B(10,8,12)      =    107.995440     0.000000     0.002020   107.997460
	   29 B(11,8,12)      =    109.381652    -0.000000     0.017383   109.399035
	   30 D(1,2,3,5)      =     54.312522    -0.000000     0.214543    54.527065
	   31 D(1,2,3,6)      =    -66.724596    -0.000000     0.214879   -66.509717
	   32 D(1,2,3,7)      =    173.593381    -0.000000     0.217908   173.811289
	   33 D(1,2,4,8)      =     -2.700446     0.000000    -0.063517    -2.763963
	   34 D(1,2,4,9)      =    177.521409     0.000000    -0.114488   177.406921
	   35 D(2,4,8,10)     =     61.948132     0.000000     0.700942    62.649074
	   36 D(2,4,8,11)     =   -178.035658    -0.000000     0.647949  -177.387709
	   37 D(2,4,8,12)     =    -57.724842     0.000000     0.697928   -57.026914
	   38 D(3,2,4,8)      =   -178.381249     0.000000     0.151578  -178.229671
	   39 D(3,2,4,9)      =      1.840606    -0.000000     0.100606     1.941212
	   40 *D(4,2,3,5)     =   -130.000017    -0.000000     0.000000  -130.000017
	   41 D(4,2,3,6)      =    108.962865     0.000000     0.000336   108.963201
	   42 D(4,2,3,7)      =    -10.719158     0.000000     0.003365   -10.715793
	   43 D(9,4,8,10)     =   -118.271452     0.000001     0.751398  -117.520055
	   44 D(9,4,8,11)     =      1.744758     0.000000     0.698404     2.443162
	   45 D(9,4,8,12)     =    122.055574     0.000000     0.748383   122.803957
	 ---------------------------------------------------------------------------

  ==> Convergence Check <==

  Measures of convergence in internal coordinates in au.
  Criteria marked as inactive (o), active & met (*), and active & unmet ( ).
  ---------------------------------------------------------------------------------------------
   Step     Total Energy     Delta E     MAX Force     RMS Force      MAX Disp      RMS Disp   
  ---------------------------------------------------------------------------------------------
    Convergence Criteria    1.00e-06 *    3.00e-04 *             o    1.20e-03 *             o
  ---------------------------------------------------------------------------------------------
      8    -247.00549463   -8.95e-07 *    4.40e-05 *    1.35e-05 o    1.31e-02      4.66e-03 o  ~
  ---------------------------------------------------------------------------------------------


  **** Optimization is complete! (in 8 steps) ****

  ==> Optimization Summary <==

  Measures of convergence in internal coordinates in au.
  --------------------------------------------------------------------------------------------------------------- ~
   Step         Total Energy             Delta E       MAX Force       RMS Force        MAX Disp        RMS Disp  ~
  --------------------------------------------------------------------------------------------------------------- ~
      1    -247.004777108660   -247.004777108660      0.01099323      0.00259002      0.07875796      0.01883391  ~
      2    -247.005383866278     -0.000606757618      0.00409964      0.00090971      0.02795135      0.01063885  ~
      3    -247.005437969422     -0.000054103144      0.00081834      0.00035316      0.04166859      0.01262516  ~
      4    -247.005457328686     -0.000019359263      0.00110084      0.00037884      0.01586122      0.00465843  ~
      5    -247.005489997574     -0.000032668889      0.00011648      0.00004658      0.00743018      0.00260323  ~
      6    -247.005491944752     -0.000001947178      0.00007967      0.00002792      0.01272116      0.00465850  ~
      7    -247.005493738199     -0.000001793446      0.00003283      0.00001407      0.01049312      0.00465847  ~
      8    -247.005494633232     -0.000000895034      0.00004404      0.00001351      0.01311436      0.00465848  ~
  --------------------------------------------------------------------------------------------------------------- ~

	Writing optimization data to binary file.
	Final energy is   -247.0054946332321
	Final (previous) structure:
	Cartesian Geometry (in Angstrom)
	    H     0.3269671442   0.5196846059  -1.6125647943
	    N    -0.2306431945   0.3781070203  -0.8021951654
	    C    -1.5727593838   0.9143283979  -0.7939859016
	    C     0.3325107476  -0.2323643083   0.2685934664
	    H    -2.1265670590   0.5626366788  -1.6572357736
	    H    -1.5674464830   1.9997359672  -0.8013564084
	    H    -2.0668938853   0.5751222424   0.1019275637
	    C     1.7627156626  -0.6860963554   0.0551359734
	    O    -0.2472673379  -0.4078255761   1.3045329947
	    H     2.4062100900   0.1643511000  -0.1480554572
	    H     2.1068924514  -1.1876293118   0.9471410222
	    H     1.8288617869  -1.3657626363  -0.7884977153
	Saving final (previous) structure.
			--------------------------
			 OPTKING Finished Execution 
			--------------------------

    Final optimized geometry and variables:
    Molecular point group: c1
    Full point group: C1

    Geometry (in Angstrom), charge = 0, multiplicity = 1:

    H            0.326967119189     0.519684566232    -1.612564671171
    N           -0.230643176928     0.378106991408    -0.802195104178
    C           -1.572759263703     0.914328328125    -0.793985840926
    C            0.332510722257    -0.232364290508     0.268593445892
    H           -2.126566896649     0.562636635862    -1.657235647030
    H           -1.567446363303     1.999735814464    -0.801356347238
    H           -2.066893727486     0.575122198436     0.101927555890
    C            1.762715528042    -0.686096303009     0.055135969201
    O           -0.247267319053    -0.407825544994     1.304532895100
    H            2.406209906279     0.164351087453    -0.148055445902
    H            2.106892290554    -1.187629221105     0.947140949900
    H            1.828861647221    -1.365762532015    -0.788497655097

	Cleaning optimization helper files.


Properties will be evaluated at   0.000000,   0.000000,   0.000000 Bohr

Properties computed using the  density matrix

  Nuclear Dipole Moment: (a.u.)
     X:     0.8507      Y:     1.1858      Z:    -3.7025

  Electronic Dipole Moment: (a.u.)
     X:    -0.3629      Y:    -0.7969      Z:     2.2840

  Dipole Moment: (a.u.)
     X:     0.4879      Y:     0.3889      Z:    -1.4185     Total:     1.5497

  Dipole Moment: (Debye)
     X:     1.2401      Y:     0.9885      Z:    -3.6055     Total:     3.9389

  Quadrupole Moment: (Debye Ang)
    XX:   -27.4581     YY:   -30.4724     ZZ:   -32.9018
    XY:    -1.6542     XZ:     0.9969     YZ:     0.1878

  Traceless Quadrupole Moment: (Debye Ang)
    XX:     2.8194     YY:    -0.1950     ZZ:    -2.6244
    XY:    -1.6542     XZ:     0.9969     YZ:     0.1878

  Mulliken Charges: (a.u.)
   Center  Symbol    Alpha    Beta     Spin     Total
       1     H     0.31109  0.31109  0.00000  0.37783
       2     N     3.89146  3.89146  0.00000 -0.78291
       3     C     3.14199  3.14199  0.00000 -0.28397
       4     C     2.63073  2.63073  0.00000  0.73855
       5     H     0.41666  0.41666  0.00000  0.16668
       6     H     0.41664  0.41664  0.00000  0.16672
       7     H     0.38622  0.38622  0.00000  0.22757
       8     C     3.29525  3.29525  0.00000 -0.59050
       9     O     4.30236  4.30236  0.00000 -0.60472
      10     H     0.40783  0.40783  0.00000  0.18434
      11     H     0.39185  0.39185  0.00000  0.21631
      12     H     0.40794  0.40794  0.00000  0.18411

   Total alpha = 20.00000, Total beta = 20.00000, Total charge = -0.00000


*** PSI4 exiting successfully. Buy a developer a beer!
