    -----------------------------------------------------------------------
          Psi4: An Open-Source Ab Initio Electronic Structure Package
                              Psi4 (no tag) Driver

                          Git: Rev {detached?}  

    J. M. Turney, A. C. Simmonett, R. M. Parrish, E. G. Hohenstein,
    F. A. Evangelista, J. T. Fermann, B. J. Mintz, L. A. Burns, J. J. Wilke,
    M. L. Abrams, N. J. Russ, M. L. Leininger, C. L. Janssen, E. T. Seidl,
    W. D. Allen, H. F. Schaefer, R. A. King, E. F. Valeev, C. D. Sherrill,
    and T. D. Crawford, WIREs Comput. Mol. Sci. 2, 556-565 (2012)
    (doi: 10.1002/wcms.93)

                         Additional Contributions by
    A. E. DePrince, M. Saitow, U. Bozkaya, A. Yu. Sokolov
    -----------------------------------------------------------------------


    Psi4 started on: Thu Sep  1 22:23:44 2016

    Process ID:   2346
    PSI4DATADIR: /export131/home/mjharvey/miniconda3/share
    Memory level set to 256.000 MB

  ==> Input File <==

--------------------------------------------------------------------------
set {
	reference rhf
	basis 6-31G*
}


set_num_threads( 1 )
memory 2 gb

molecule MOL {
0 1

H	 -3.261111	 -0.295142	 1.469456
C	 -3.306842	 -0.277400	 0.373456
C	 -2.660244	 0.921717	 -0.272021
O	 -3.838538	 -1.161155	 -0.216482
C	 -3.675828	 1.825990	 -0.984155
H	 -2.108394	 1.463128	 0.487613
H	 -1.943435	 0.545049	 -1.000692
C	 -4.650675	 2.519385	 -0.029076
H	 -3.131091	 2.575524	 -1.550499
H	 -4.231665	 1.239879	 -1.714412
C	 -5.649317	 3.425946	 -0.751348
H	 -4.085473	 3.104587	 0.693373
H	 -5.195180	 1.774162	 0.547723
C	 -6.612331	 4.130227	 0.208100
H	 -5.099937	 4.161321	 -1.333704
H	 -6.221728	 2.835076	 -1.465212
C	 -7.684830	 4.985769	 -0.475906
H	 -6.043306	 4.751944	 0.897573
H	 -7.108294	 3.377811	 0.817694
C	 -7.143578	 6.205338	 -1.223782
H	 -8.386989	 5.325518	 0.281387
H	 -8.256924	 4.365103	 -1.162494
H	 -6.552962	 6.836568	 -0.565002
H	 -6.515403	 5.922479	 -2.061852
H	 -7.956787	 6.808293	 -1.616376

	symmetry c1
}
set optking {
	frozen_dihedral = ("
		6 3 5 8,
		3 5 8 12,
		12 8 11 14,
		8 11 14 18,
		20 17 14 18
	")
}

ee = energy('scf')
oeprop('DIPOLE', 'QUADRUPOLE', 'MULLIKEN_CHARGES')
f=open( 'psi4out.xyz', 'w' )
f.write( "25  " )
f.write( str(ee) + "\n" )
f.write( MOL.save_string_xyz() )
f.close()
--------------------------------------------------------------------------

  Memory set to   2.000 GiB by Python script.

*** tstart() called on cx1-3-4-3.cx1.hpc.ic.ac.uk
*** at Thu Sep  1 22:23:45 2016


         ---------------------------------------------------------
                                   SCF
            by Justin Turney, Rob Parrish, and Andy Simmonett
                              RHF Reference
                        1 Threads,   2000 MiB Core
         ---------------------------------------------------------

  ==> Geometry <==

    Molecular point group: c1
    Full point group: C1

    Geometry (in Angstrom), charge = 0, multiplicity = 1:

       Center              X                  Y                   Z               Mass       
    ------------   -----------------  -----------------  -----------------  -----------------
           H          1.771457311624    -2.804436752519     1.849191449679     1.007825032070
           C          1.725726311624    -2.786694752519     0.753191449679    12.000000000000
           C          2.372324311624    -1.587577752519     0.107714449679    12.000000000000
           O          1.194030311624    -3.670449752519     0.163253449679    15.994914619560
           C          1.356740311624    -0.683304752519    -0.604419550321    12.000000000000
           H          2.924174311624    -1.046166752519     0.867348449679     1.007825032070
           H          3.089133311624    -1.964245752519    -0.620956550321     1.007825032070
           C          0.381893311624     0.010090247481     0.350659449679    12.000000000000
           H          1.901477311624     0.066229247481    -1.170763550321     1.007825032070
           H          0.800903311624    -1.269415752519    -1.334676550321     1.007825032070
           C         -0.616748688376     0.916651247481    -0.371612550321    12.000000000000
           H          0.947095311624     0.595292247481     1.073108449679     1.007825032070
           H         -0.162611688376    -0.735132752519     0.927458449679     1.007825032070
           C         -1.579762688376     1.620932247481     0.587835449679    12.000000000000
           H         -0.067368688376     1.652026247481    -0.953968550321     1.007825032070
           H         -1.189159688376     0.325781247481    -1.085476550321     1.007825032070
           C         -2.652261688376     2.476474247481    -0.096170550321    12.000000000000
           H         -1.010737688376     2.242649247481     1.277308449679     1.007825032070
           H         -2.075725688376     0.868516247481     1.197429449679     1.007825032070
           C         -2.111009688376     3.696043247481    -0.844046550321    12.000000000000
           H         -3.354420688376     2.816223247481     0.661122449679     1.007825032070
           H         -3.224355688376     1.855808247481    -0.782758550321     1.007825032070
           H         -1.520393688376     4.327273247481    -0.185266550321     1.007825032070
           H         -1.482834688376     3.413184247481    -1.682116550321     1.007825032070
           H         -2.924218688376     4.298998247481    -1.236640550321     1.007825032070

  Running in c1 symmetry.

  Rotational constants: A =      0.15241  B =      0.01574  C =      0.01514 [cm^-1]
  Rotational constants: A =   4569.16272  B =    472.01612  C =    453.86802 [MHz]
  Nuclear repulsion =  440.695788489508061

  Charge       = 0
  Multiplicity = 1
  Electrons    = 72
  Nalpha       = 36
  Nbeta        = 36

  ==> Algorithm <==

  SCF Algorithm Type is DF.
  DIIS enabled.
  MOM disabled.
  Fractional occupation disabled.
  Guess Type is CORE.
  Energy threshold   = 1.00e-06
  Density threshold  = 1.00e-06
  Integral threshold = 0.00e+00

  ==> Primary Basis <==

  Basis Set: 6-31G*
    Number of shells: 86
    Number of basis function: 167
    Number of Cartesian functions: 167
    Spherical Harmonics?: false
    Max angular momentum: 2

  ==> Pre-Iterations <==

   -------------------------------------------------------
    Irrep   Nso     Nmo     Nalpha   Nbeta   Ndocc  Nsocc
   -------------------------------------------------------
     A        167     167       0       0       0       0
   -------------------------------------------------------
    Total     167     167      36      36      36       0
   -------------------------------------------------------

 OEINTS: Overlap, kinetic, potential, dipole, and quadrupole integrals
         stored in file 35.

  ==> Integral Setup <==

  ==> DFJK: Density-Fitted J/K Matrices <==

    J tasked:                  Yes
    K tasked:                  Yes
    wK tasked:                  No
    OpenMP threads:              1
    Integrals threads:           1
    Memory (MB):              1430
    Algorithm:                Core
    Integral Cache:           NONE
    Schwarz Cutoff:          1E-12
    Fitting Condition:       1E-12

   => Auxiliary Basis Set <=

  Basis Set: 
    Number of shells: 360
    Number of basis function: 1129
    Number of Cartesian functions: 1129
    Spherical Harmonics?: false
    Max angular momentum: 3

  Minimum eigenvalue in the overlap matrix is 2.9226080106E-03.
  Using Symmetric Orthogonalization.
  SCF Guess: Core (One-Electron) Hamiltonian.

  ==> Iterations <==

                           Total Energy        Delta E     RMS |[F,P]|

   @DF-RHF iter   1:  -291.31740171759333   -2.91317e+02   5.79772e-02 
   @DF-RHF iter   2:   -30.76153899373969    2.60556e+02   7.52941e-02 DIIS
   @DF-RHF iter   3:  -268.12227113457340   -2.37361e+02   4.68714e-02 DIIS
   @DF-RHF iter   4:  -216.83436538196253    5.12879e+01   6.36698e-02 DIIS
   @DF-RHF iter   5:  -366.16284535561653   -1.49328e+02   2.20129e-02 DIIS
   @DF-RHF iter   6:  -358.27163458421711    7.89121e+00   3.58717e-02 DIIS
   @DF-RHF iter   7:  -377.05692307713713   -1.87853e+01   2.09718e-02 DIIS
   @DF-RHF iter   8:  -386.34269438562916   -9.28577e+00   6.16213e-03 DIIS
   @DF-RHF iter   9:  -387.03577199383602   -6.93078e-01   1.88613e-03 DIIS
   @DF-RHF iter  10:  -387.10398823091833   -6.82162e-02   9.76777e-04 DIIS
   @DF-RHF iter  11:  -387.11699532323684   -1.30071e-02   3.65656e-04 DIIS
   @DF-RHF iter  12:  -387.11935508252890   -2.35976e-03   1.66054e-04 DIIS
   @DF-RHF iter  13:  -387.11993518984406   -5.80107e-04   4.20446e-05 DIIS
   @DF-RHF iter  14:  -387.11997015219532   -3.49624e-05   1.54431e-05 DIIS
   @DF-RHF iter  15:  -387.11997588605271   -5.73386e-06   2.97442e-06 DIIS
   @DF-RHF iter  16:  -387.11997617470723   -2.88655e-07   1.16693e-06 DIIS
   @DF-RHF iter  17:  -387.11997621356949   -3.88623e-08   4.05120e-07 DIIS

  ==> Post-Iterations <==

    Orbital Energies (a.u.)
    -----------------------

    Doubly Occupied:                                                      

       1A    -20.562338     2A    -11.326153     3A    -11.234433  
       4A    -11.231054     5A    -11.223564     6A    -11.218524  
       7A    -11.217393     8A    -11.216591     9A    -11.210105  
      10A     -1.402571    11A     -1.101738    12A     -1.067804  
      13A     -1.012405    14A     -0.942949    15A     -0.877534  
      16A     -0.824713    17A     -0.781515    18A     -0.768687  
      19A     -0.685179    20A     -0.652553    21A     -0.631965  
      22A     -0.622396    23A     -0.597434    24A     -0.592605  
      25A     -0.578138    26A     -0.549465    27A     -0.535655  
      28A     -0.523353    29A     -0.505978    30A     -0.494052  
      31A     -0.490423    32A     -0.477706    33A     -0.463987  
      34A     -0.458322    35A     -0.439652    36A     -0.408198  

    Virtual:                                                              

      37A      0.152215    38A      0.224911    39A      0.241516  
      40A      0.256810    41A      0.259548    42A      0.274147  
      43A      0.278752    44A      0.302914    45A      0.310975  
      46A      0.312251    47A      0.320710    48A      0.334108  
      49A      0.339405    50A      0.348093    51A      0.348959  
      52A      0.359476    53A      0.374302    54A      0.392692  
      55A      0.397706    56A      0.423504    57A      0.435230  
      58A      0.450799    59A      0.471967    60A      0.479051  
      61A      0.493472    62A      0.682561    63A      0.697143  
      64A      0.714788    65A      0.730774    66A      0.750178  
      67A      0.757113    68A      0.782321    69A      0.788717  
      70A      0.812689    71A      0.848585    72A      0.867543  
      73A      0.902491    74A      0.921783    75A      0.940890  
      76A      0.953882    77A      0.973358    78A      0.985160  
      79A      0.995946    80A      1.033942    81A      1.049357  
      82A      1.074512    83A      1.086031    84A      1.112940  
      85A      1.116747    86A      1.120175    87A      1.125296  
      88A      1.149223    89A      1.160231    90A      1.171099  
      91A      1.182129    92A      1.187083    93A      1.195933  
      94A      1.209219    95A      1.216043    96A      1.223211  
      97A      1.229966    98A      1.249789    99A      1.261969  
     100A      1.276950   101A      1.289994   102A      1.303226  
     103A      1.322402   104A      1.375968   105A      1.383579  
     106A      1.418587   107A      1.478089   108A      1.627994  
     109A      1.637903   110A      1.668973   111A      1.723351  
     112A      1.766548   113A      1.784559   114A      1.815075  
     115A      1.844284   116A      1.860525   117A      1.907525  
     118A      1.953074   119A      1.978789   120A      2.053235  
     121A      2.085745   122A      2.107485   123A      2.124800  
     124A      2.142525   125A      2.199751   126A      2.226712  
     127A      2.236298   128A      2.252484   129A      2.265184  
     130A      2.293868   131A      2.299133   132A      2.323424  
     133A      2.339808   134A      2.385227   135A      2.396892  
     136A      2.448998   137A      2.467870   138A      2.530737  
     139A      2.590057   140A      2.611112   141A      2.638641  
     142A      2.674272   143A      2.685343   144A      2.710527  
     145A      2.756608   146A      2.769807   147A      2.790196  
     148A      2.819923   149A      2.831205   150A      2.945397  
     151A      2.971846   152A      2.978672   153A      2.990592  
     154A      3.059001   155A      3.149087   156A      3.187347  
     157A      3.254787   158A      3.367572   159A      4.296895  
     160A      4.521186   161A      4.572905   162A      4.644053  
     163A      4.736767   164A      4.823018   165A      4.870186  
     166A      4.922641   167A      5.016811  

    Final Occupation by Irrep:
              A 
    DOCC [    36 ]

  Energy converged.

  @DF-RHF Final Energy:  -387.11997621356949

   => Energetics <=

    Nuclear Repulsion Energy =            440.6957884895080610
    One-Electron Energy =               -1397.7773951519825459
    Two-Electron Energy =                 569.9616304489061349
    DFT Exchange-Correlation Energy =       0.0000000000000000
    Empirical Dispersion Energy =           0.0000000000000000
    PCM Polarization Energy =               0.0000000000000000
    EFP Energy =                            0.0000000000000000
    Total Energy =                       -387.1199762135684068

    Alert: EFP and PCM quantities not currently incorporated into SCF psivars.

Properties will be evaluated at   0.000000,   0.000000,   0.000000 Bohr
  ==> Properties <==


Properties computed using the SCF density matrix

  Nuclear Dipole Moment: (a.u.)
     X:    -5.2231      Y:    13.7093      Z:    -1.1239

  Electronic Dipole Moment: (a.u.)
     X:     5.6397      Y:   -12.7073      Z:     1.4612

  Dipole Moment: (a.u.)
     X:     0.4166      Y:     1.0021      Z:     0.3373     Total:     1.1364

  Dipole Moment: (Debye)
     X:     1.0588      Y:     2.5470      Z:     0.8573     Total:     2.8885


  Saving occupied orbitals to File 180.

*** tstop() called on cx1-3-4-3.cx1.hpc.ic.ac.uk at Thu Sep  1 22:24:11 2016
Module time:
	user time   =      26.08 seconds =       0.43 minutes
	system time =       0.26 seconds =       0.00 minutes
	total time  =         26 seconds =       0.43 minutes
Total time:
	user time   =      26.08 seconds =       0.43 minutes
	system time =       0.26 seconds =       0.00 minutes
	total time  =         26 seconds =       0.43 minutes


Properties will be evaluated at   0.000000,   0.000000,   0.000000 Bohr

Properties computed using the  density matrix

  Nuclear Dipole Moment: (a.u.)
     X:    -5.2231      Y:    13.7093      Z:    -1.1239

  Electronic Dipole Moment: (a.u.)
     X:     5.6397      Y:   -12.7073      Z:     1.4612

  Dipole Moment: (a.u.)
     X:     0.4166      Y:     1.0021      Z:     0.3373     Total:     1.1364

  Dipole Moment: (Debye)
     X:     1.0588      Y:     2.5470      Z:     0.8573     Total:     2.8885

  Quadrupole Moment: (Debye Ang)
    XX:   -54.1226     YY:   -73.6175     ZZ:   -57.2067
    XY:    -0.3217     XZ:     1.6994     YZ:    -2.1247

  Traceless Quadrupole Moment: (Debye Ang)
    XX:     7.5263     YY:   -11.9686     ZZ:     4.4423
    XY:    -0.3217     XZ:     1.6994     YZ:    -2.1247

  Mulliken Charges: (a.u.)
   Center  Symbol    Alpha    Beta     Spin     Total
       1     H     0.42929  0.42929  0.00000  0.14142
       2     C     2.84178  2.84178  0.00000  0.31643
       3     C     3.20297  3.20297  0.00000 -0.40594
       4     O     4.23753  4.23753  0.00000 -0.47505
       5     C     3.15848  3.15848  0.00000 -0.31696
       6     H     0.41585  0.41585  0.00000  0.16830
       7     H     0.39919  0.39919  0.00000  0.20163
       8     C     3.15720  3.15720  0.00000 -0.31440
       9     H     0.41580  0.41580  0.00000  0.16840
      10     H     0.40614  0.40614  0.00000  0.18773
      11     C     3.15438  3.15438  0.00000 -0.30875
      12     H     0.42311  0.42311  0.00000  0.15377
      13     H     0.41993  0.41993  0.00000  0.16014
      14     C     3.15309  3.15309  0.00000 -0.30618
      15     H     0.42092  0.42092  0.00000  0.15816
      16     H     0.42061  0.42061  0.00000  0.15878
      17     C     3.15275  3.15275  0.00000 -0.30549
      18     H     0.42447  0.42447  0.00000  0.15107
      19     H     0.42116  0.42116  0.00000  0.15768
      20     C     3.24136  3.24136  0.00000 -0.48271
      21     H     0.42047  0.42047  0.00000  0.15906
      22     H     0.42225  0.42225  0.00000  0.15550
      23     H     0.42249  0.42249  0.00000  0.15501
      24     H     0.42018  0.42018  0.00000  0.15964
      25     H     0.41863  0.41863  0.00000  0.16274

   Total alpha = 36.00000, Total beta = 36.00000, Total charge = -0.00000


*** PSI4 exiting successfully. Buy a developer a beer!
