    -----------------------------------------------------------------------
          Psi4: An Open-Source Ab Initio Electronic Structure Package
                              Psi4 (no tag) Driver

                          Git: Rev {detached?}  

    J. M. Turney, A. C. Simmonett, R. M. Parrish, E. G. Hohenstein,
    F. A. Evangelista, J. T. Fermann, B. J. Mintz, L. A. Burns, J. J. Wilke,
    M. L. Abrams, N. J. Russ, M. L. Leininger, C. L. Janssen, E. T. Seidl,
    W. D. Allen, H. F. Schaefer, R. A. King, E. F. Valeev, C. D. Sherrill,
    and T. D. Crawford, WIREs Comput. Mol. Sci. 2, 556-565 (2012)
    (doi: 10.1002/wcms.93)

                         Additional Contributions by
    A. E. DePrince, M. Saitow, U. Bozkaya, A. Yu. Sokolov
    -----------------------------------------------------------------------


    Psi4 started on: Thu Sep  1 22:11:10 2016

    Process ID:  25704
    PSI4DATADIR: /export131/home/mjharvey/miniconda3/share
    Memory level set to 256.000 MB

  ==> Input File <==

--------------------------------------------------------------------------
set {
	reference rhf
	basis 6-31G*
}


set_num_threads( 1 )
memory 2 gb

molecule MOL {
0 1

H	 -2.499100	 -0.730091	 -0.745082
O	 -2.347518	 -0.290803	 0.079804
C	 -1.184022	 0.487508	 -0.006784
C	 0.062599	 -0.378592	 0.031606
H	 -1.176523	 1.099369	 -0.904519
H	 -1.187323	 1.153111	 0.844927
O	 1.171513	 0.459272	 -0.058250
H	 0.050699	 -1.089204	 -0.797170
H	 0.078739	 -0.954914	 0.954740
C	 1.520181	 1.085528	 1.135641
H	 1.773160	 0.359931	 1.906447
H	 2.384862	 1.704245	 0.939634
H	 0.712553	 1.714086	 1.505024

	symmetry c1
}
set optking {
	frozen_dihedral = ("
		8 4 3 5,
		1 2 3 5,
		4 7 10 13
	")
}

ee = energy('scf')
oeprop('DIPOLE', 'QUADRUPOLE', 'MULLIKEN_CHARGES')
f=open( 'psi4out.xyz', 'w' )
f.write( "13  " )
f.write( str(ee) + "\n" )
f.write( MOL.save_string_xyz() )
f.close()
--------------------------------------------------------------------------

  Memory set to   2.000 GiB by Python script.

*** tstart() called on cx1-3-16-4.cx1.hpc.ic.ac.uk
*** at Thu Sep  1 22:11:10 2016


         ---------------------------------------------------------
                                   SCF
            by Justin Turney, Rob Parrish, and Andy Simmonett
                              RHF Reference
                        1 Threads,   2000 MiB Core
         ---------------------------------------------------------

  ==> Geometry <==

    Molecular point group: c1
    Full point group: C1

    Geometry (in Angstrom), charge = 0, multiplicity = 1:

       Center              X                  Y                   Z               Mass       
    ------------   -----------------  -----------------  -----------------  -----------------
           H         -2.316504071039    -0.997143491037    -0.981804159117     1.007825032070
           O         -2.164922071039    -0.557855491037    -0.156918159117    15.994914619560
           C         -1.001426071039     0.220455508963    -0.243506159117    12.000000000000
           C          0.245194928961    -0.645644491037    -0.205116159117    12.000000000000
           H         -0.993927071039     0.832316508963    -1.141241159117     1.007825032070
           H         -1.004727071039     0.886058508963     0.608204840883     1.007825032070
           O          1.354108928961     0.192219508963    -0.294972159117    15.994914619560
           H          0.233294928961    -1.356256491037    -1.033892159117     1.007825032070
           H          0.261334928961    -1.221966491037     0.718017840883     1.007825032070
           C          1.702776928961     0.818475508963     0.898918840883    12.000000000000
           H          1.955755928961     0.092878508963     1.669724840883     1.007825032070
           H          2.567457928961     1.437192508963     0.702911840883     1.007825032070
           H          0.895148928961     1.447033508963     1.268301840883     1.007825032070

  Running in c1 symmetry.

  Rotational constants: A =      0.49298  B =      0.08503  C =      0.07982 [cm^-1]
  Rotational constants: A =  14779.19894  B =   2549.06153  C =   2393.07922 [MHz]
  Nuclear repulsion =  193.487835814775565

  Charge       = 0
  Multiplicity = 1
  Electrons    = 42
  Nalpha       = 21
  Nbeta        = 21

  ==> Algorithm <==

  SCF Algorithm Type is DF.
  DIIS enabled.
  MOM disabled.
  Fractional occupation disabled.
  Guess Type is CORE.
  Energy threshold   = 1.00e-06
  Density threshold  = 1.00e-06
  Integral threshold = 0.00e+00

  ==> Primary Basis <==

  Basis Set: 6-31G*
    Number of shells: 46
    Number of basis function: 91
    Number of Cartesian functions: 91
    Spherical Harmonics?: false
    Max angular momentum: 2

  ==> Pre-Iterations <==

   -------------------------------------------------------
    Irrep   Nso     Nmo     Nalpha   Nbeta   Ndocc  Nsocc
   -------------------------------------------------------
     A         91      91       0       0       0       0
   -------------------------------------------------------
    Total      91      91      21      21      21       0
   -------------------------------------------------------

 OEINTS: Overlap, kinetic, potential, dipole, and quadrupole integrals
         stored in file 35.

  ==> Integral Setup <==

  ==> DFJK: Density-Fitted J/K Matrices <==

    J tasked:                  Yes
    K tasked:                  Yes
    wK tasked:                  No
    OpenMP threads:              1
    Integrals threads:           1
    Memory (MB):              1430
    Algorithm:                Core
    Integral Cache:           NONE
    Schwarz Cutoff:          1E-12
    Fitting Condition:       1E-12

   => Auxiliary Basis Set <=

  Basis Set: 
    Number of shells: 192
    Number of basis function: 605
    Number of Cartesian functions: 605
    Spherical Harmonics?: false
    Max angular momentum: 3

  Minimum eigenvalue in the overlap matrix is 3.9952792535E-03.
  Using Symmetric Orthogonalization.
  SCF Guess: Core (One-Electron) Hamiltonian.

  ==> Iterations <==

                           Total Energy        Delta E     RMS |[F,P]|

   @DF-RHF iter   1:  -225.44173163163100   -2.25442e+02   7.74735e-02 
   @DF-RHF iter   2:  -172.21196097291312    5.32298e+01   7.20204e-02 DIIS
   @DF-RHF iter   3:  -238.06401237050960   -6.58521e+01   6.20482e-02 DIIS
   @DF-RHF iter   4:  -261.91774796305651   -2.38537e+01   3.41016e-02 DIIS
   @DF-RHF iter   5:  -267.73551142567766   -5.81776e+00   7.04751e-03 DIIS
   @DF-RHF iter   6:  -267.92092437583551   -1.85413e-01   2.55663e-03 DIIS
   @DF-RHF iter   7:  -267.94387982286185   -2.29554e-02   5.53844e-04 DIIS
   @DF-RHF iter   8:  -267.94533681395325   -1.45699e-03   2.06949e-04 DIIS
   @DF-RHF iter   9:  -267.94555390425688   -2.17090e-04   6.10989e-05 DIIS
   @DF-RHF iter  10:  -267.94558083268464   -2.69284e-05   1.54946e-05 DIIS
   @DF-RHF iter  11:  -267.94558292072492   -2.08804e-06   4.49796e-06 DIIS
   @DF-RHF iter  12:  -267.94558308183639   -1.61111e-07   1.68551e-06 DIIS
   @DF-RHF iter  13:  -267.94558310636847   -2.45321e-08   3.75573e-07 DIIS

  ==> Post-Iterations <==

    Orbital Energies (a.u.)
    -----------------------

    Doubly Occupied:                                                      

       1A    -20.561388     2A    -20.559990     3A    -11.271329  
       4A    -11.270485     5A    -11.268389     6A     -1.389995  
       7A     -1.365183     8A     -1.013751     9A     -0.928102  
      10A     -0.835383    11A     -0.710817    12A     -0.679864  
      13A     -0.654308    14A     -0.642470    15A     -0.591844  
      16A     -0.572509    17A     -0.532514    18A     -0.517465  
      19A     -0.465432    20A     -0.463004    21A     -0.404265  

    Virtual:                                                              

      22A      0.218652    23A      0.236364    24A      0.276775  
      25A      0.298260    26A      0.307867    27A      0.323095  
      28A      0.329101    29A      0.341780    30A      0.388699  
      31A      0.431233    32A      0.457708    33A      0.478707  
      34A      0.714027    35A      0.753026    36A      0.769096  
      37A      0.791538    38A      0.811241    39A      0.856724  
      40A      0.887074    41A      0.913928    42A      1.027091  
      43A      1.044587    44A      1.100254    45A      1.123185  
      46A      1.137163    47A      1.143393    48A      1.168897  
      49A      1.176604    50A      1.202997    51A      1.226316  
      52A      1.256087    53A      1.294646    54A      1.299361  
      55A      1.393551    56A      1.407831    57A      1.518896  
      58A      1.584546    59A      1.667316    60A      1.693011  
      61A      1.769411    62A      1.797724    63A      1.906546  
      64A      1.924874    65A      1.956708    66A      2.054356  
      67A      2.100514    68A      2.200225    69A      2.266530  
      70A      2.367839    71A      2.416442    72A      2.426507  
      73A      2.451754    74A      2.513015    75A      2.529607  
      76A      2.556339    77A      2.613611    78A      2.712179  
      79A      2.773590    80A      2.823203    81A      2.857189  
      82A      2.978528    83A      3.013139    84A      3.156595  
      85A      3.248945    86A      3.329424    87A      4.159601  
      88A      4.414267    89A      4.645889    90A      4.671039  
      91A      4.884931  

    Final Occupation by Irrep:
              A 
    DOCC [    21 ]

  Energy converged.

  @DF-RHF Final Energy:  -267.94558310636847

   => Energetics <=

    Nuclear Repulsion Energy =            193.4878358147755648
    One-Electron Energy =                -749.4698387742336081
    Two-Electron Energy =                 288.0364198530905924
    DFT Exchange-Correlation Energy =       0.0000000000000000
    Empirical Dispersion Energy =           0.0000000000000000
    PCM Polarization Energy =               0.0000000000000000
    EFP Energy =                            0.0000000000000000
    Total Energy =                       -267.9455831063673941

    Alert: EFP and PCM quantities not currently incorporated into SCF psivars.

Properties will be evaluated at   0.000000,   0.000000,   0.000000 Bohr
  ==> Properties <==


Properties computed using the SCF density matrix

  Nuclear Dipole Moment: (a.u.)
     X:     1.4940      Y:     1.0483      Z:     1.6949

  Electronic Dipole Moment: (a.u.)
     X:    -1.3541      Y:    -1.0632      Z:    -1.7639

  Dipole Moment: (a.u.)
     X:     0.1399      Y:    -0.0149      Z:    -0.0690     Total:     0.1567

  Dipole Moment: (Debye)
     X:     0.3555      Y:    -0.0379      Z:    -0.1755     Total:     0.3983


  Saving occupied orbitals to File 180.

*** tstop() called on cx1-3-16-4.cx1.hpc.ic.ac.uk at Thu Sep  1 22:11:15 2016
Module time:
	user time   =       3.88 seconds =       0.06 minutes
	system time =       0.02 seconds =       0.00 minutes
	total time  =          5 seconds =       0.08 minutes
Total time:
	user time   =       3.88 seconds =       0.06 minutes
	system time =       0.02 seconds =       0.00 minutes
	total time  =          5 seconds =       0.08 minutes


Properties will be evaluated at   0.000000,   0.000000,   0.000000 Bohr

Properties computed using the  density matrix

  Nuclear Dipole Moment: (a.u.)
     X:     1.4940      Y:     1.0483      Z:     1.6949

  Electronic Dipole Moment: (a.u.)
     X:    -1.3541      Y:    -1.0632      Z:    -1.7639

  Dipole Moment: (a.u.)
     X:     0.1399      Y:    -0.0149      Z:    -0.0690     Total:     0.1567

  Dipole Moment: (Debye)
     X:     0.3555      Y:    -0.0379      Z:    -0.1755     Total:     0.3983

  Quadrupole Moment: (Debye Ang)
    XX:   -36.0325     YY:   -29.6815     ZZ:   -29.0239
    XY:     1.1774     XZ:     6.2764     YZ:     2.9550

  Traceless Quadrupole Moment: (Debye Ang)
    XX:    -4.4532     YY:     1.8978     ZZ:     2.5554
    XY:     1.1774     XZ:     6.2764     YZ:     2.9550

  Mulliken Charges: (a.u.)
   Center  Symbol    Alpha    Beta     Spin     Total
       1     H     0.28105  0.28105  0.00000  0.43789
       2     O     4.37209  4.37209  0.00000 -0.74418
       3     C     3.00604  3.00604  0.00000 -0.01207
       4     C     3.00809  3.00809  0.00000 -0.01618
       5     H     0.42186  0.42186  0.00000  0.15629
       6     H     0.41491  0.41491  0.00000  0.17019
       7     O     4.30456  4.30456  0.00000 -0.60912
       8     H     0.41945  0.41945  0.00000  0.16109
       9     H     0.42252  0.42252  0.00000  0.15495
      10     C     3.08424  3.08424  0.00000 -0.16849
      11     H     0.42638  0.42638  0.00000  0.14725
      12     H     0.40955  0.40955  0.00000  0.18090
      13     H     0.42926  0.42926  0.00000  0.14148

   Total alpha = 21.00000, Total beta = 21.00000, Total charge = -0.00000


*** PSI4 exiting successfully. Buy a developer a beer!
