    -----------------------------------------------------------------------
          Psi4: An Open-Source Ab Initio Electronic Structure Package
                              Psi4 (no tag) Driver

                          Git: Rev {detached?}  

    J. M. Turney, A. C. Simmonett, R. M. Parrish, E. G. Hohenstein,
    F. A. Evangelista, J. T. Fermann, B. J. Mintz, L. A. Burns, J. J. Wilke,
    M. L. Abrams, N. J. Russ, M. L. Leininger, C. L. Janssen, E. T. Seidl,
    W. D. Allen, H. F. Schaefer, R. A. King, E. F. Valeev, C. D. Sherrill,
    and T. D. Crawford, WIREs Comput. Mol. Sci. 2, 556-565 (2012)
    (doi: 10.1002/wcms.93)

                         Additional Contributions by
    A. E. DePrince, M. Saitow, U. Bozkaya, A. Yu. Sokolov
    -----------------------------------------------------------------------


    Psi4 started on: Fri Sep  2 12:17:34 2016

    Process ID:  31907
    PSI4DATADIR: /export131/home/mjharvey/miniconda3/share
    Memory level set to 256.000 MB

  ==> Input File <==

--------------------------------------------------------------------------
set {
	reference rhf
	basis 6-31G*
}


set_num_threads( 4 )
memory 2 gb

molecule MOL {
0 1

O	 0.768493	 1.271167	 0.278635
C	 0.576249	 0.131685	 -0.000108
C	 -0.766779	 -0.556801	 -0.000461
O	 1.544598	 -0.702647	 -0.356273
C	 -1.945214	 0.412366	 0.000161
H	 -0.796911	 -1.211249	 -0.867467
H	 -0.796854	 -1.212390	 0.865687
C	 -3.287791	 -0.317055	 0.000105
H	 -1.876087	 1.060580	 -0.866812
H	 -1.875822	 1.059691	 0.867761
H	 -3.394745	 -0.949193	 -0.877058
H	 -4.111778	 0.388953	 0.000015
H	 -3.394954	 -0.949187	 0.877259
C	 2.860246	 -0.180495	 -0.396720
H	 2.925604	 0.630111	 -1.108188
H	 3.493094	 -0.998787	 -0.702934
H	 3.157023	 0.177936	 0.578452

	symmetry c1
}
set optking {
	frozen_dihedral = ("
		1 2 3 6
	")
}

ee = optimize('scf')
oeprop('DIPOLE', 'QUADRUPOLE', 'MULLIKEN_CHARGES')
f=open( 'psi4out.xyz', 'w' )
f.write( "17  " )
f.write( str(ee) + "\n" )
f.write( MOL.save_string_xyz() )
f.close()
--------------------------------------------------------------------------

  Memory set to   2.000 GiB by Python script.
gradient() will perform analytic gradient computation.

*** tstart() called on cx1-3-1-1.cx1.hpc.ic.ac.uk
*** at Fri Sep  2 12:17:34 2016


         ---------------------------------------------------------
                                   SCF
            by Justin Turney, Rob Parrish, and Andy Simmonett
                              RHF Reference
                        4 Threads,   2000 MiB Core
         ---------------------------------------------------------

  ==> Geometry <==

    Molecular point group: c1
    Full point group: C1

    Geometry (in Angstrom), charge = 0, multiplicity = 1:

       Center              X                  Y                   Z               Mass       
    ------------   -----------------  -----------------  -----------------  -----------------
           O          0.773248738557     1.261853450279     0.349656466331    15.994914619560
           C          0.581004738557     0.122371450279     0.070913466331    12.000000000000
           C         -0.762023261443    -0.566114549721     0.070560466331    12.000000000000
           O          1.549353738557    -0.711960549721    -0.285251533669    15.994914619560
           C         -1.940458261443     0.403052450279     0.071182466331    12.000000000000
           H         -0.792155261443    -1.220562549721    -0.796445533669     1.007825032070
           H         -0.792098261443    -1.221703549721     0.936708466331     1.007825032070
           C         -3.283035261443    -0.326368549721     0.071126466331    12.000000000000
           H         -1.871331261443     1.051266450279    -0.795790533669     1.007825032070
           H         -1.871066261443     1.050377450279     0.938782466331     1.007825032070
           H         -3.389989261443    -0.958506549721    -0.806036533669     1.007825032070
           H         -4.107022261443     0.379639450279     0.071036466331     1.007825032070
           H         -3.390198261443    -0.958500549721     0.948280466331     1.007825032070
           C          2.865001738557    -0.189808549721    -0.325698533669    12.000000000000
           H          2.930359738557     0.620797450279    -1.037166533669     1.007825032070
           H          3.497849738557    -1.008100549721    -0.631912533669     1.007825032070
           H          3.161778738557     0.168622450279     0.649473466331     1.007825032070

  Running in c1 symmetry.

  Rotational constants: A =      0.28139  B =      0.04013  C =      0.03621 [cm^-1]
  Rotational constants: A =   8435.86299  B =   1202.98383  C =   1085.56282 [MHz]
  Nuclear repulsion =  312.481552566308608

  Charge       = 0
  Multiplicity = 1
  Electrons    = 56
  Nalpha       = 28
  Nbeta        = 28

  ==> Algorithm <==

  SCF Algorithm Type is DF.
  DIIS enabled.
  MOM disabled.
  Fractional occupation disabled.
  Guess Type is CORE.
  Energy threshold   = 1.00e-08
  Density threshold  = 1.00e-08
  Integral threshold = 0.00e+00

  ==> Primary Basis <==

  Basis Set: 6-31G*
    Number of shells: 62
    Number of basis function: 125
    Number of Cartesian functions: 125
    Spherical Harmonics?: false
    Max angular momentum: 2

  ==> Pre-Iterations <==

   -------------------------------------------------------
    Irrep   Nso     Nmo     Nalpha   Nbeta   Ndocc  Nsocc
   -------------------------------------------------------
     A        125     125       0       0       0       0
   -------------------------------------------------------
    Total     125     125      28      28      28       0
   -------------------------------------------------------

 OEINTS: Overlap, kinetic, potential, dipole, and quadrupole integrals
         stored in file 35.

  ==> Integral Setup <==

  ==> DFJK: Density-Fitted J/K Matrices <==

    J tasked:                  Yes
    K tasked:                  Yes
    wK tasked:                  No
    OpenMP threads:              4
    Integrals threads:           4
    Memory (MB):              1430
    Algorithm:                Core
    Integral Cache:           NONE
    Schwarz Cutoff:          1E-12
    Fitting Condition:       1E-12

   => Auxiliary Basis Set <=

  Basis Set: 
    Number of shells: 258
    Number of basis function: 817
    Number of Cartesian functions: 817
    Spherical Harmonics?: false
    Max angular momentum: 3

  Minimum eigenvalue in the overlap matrix is 2.8086290227E-03.
  Using Symmetric Orthogonalization.
  SCF Guess: Core (One-Electron) Hamiltonian.

  ==> Iterations <==

                           Total Energy        Delta E     RMS |[F,P]|

   @DF-RHF iter   1:  -231.43131647471529   -2.31431e+02   7.90010e-02 
   @DF-RHF iter   2:  -131.13072072085777    1.00301e+02   8.97783e-02 DIIS
   @DF-RHF iter   3:  -220.99662346108840   -8.98659e+01   7.61191e-02 DIIS
   @DF-RHF iter   4:  -287.78175375472102   -6.67851e+01   6.35241e-02 DIIS
   @DF-RHF iter   5:  -338.55329096951294   -5.07715e+01   2.36966e-02 DIIS
   @DF-RHF iter   6:  -344.08907061030726   -5.53578e+00   1.04747e-02 DIIS
   @DF-RHF iter   7:  -344.79194117428671   -7.02871e-01   3.38408e-03 DIIS
   @DF-RHF iter   8:  -344.87854990380566   -8.66087e-02   1.71835e-03 DIIS
   @DF-RHF iter   9:  -344.90353154138467   -2.49816e-02   4.48691e-04 DIIS
   @DF-RHF iter  10:  -344.90614737796585   -2.61584e-03   1.52416e-04 DIIS
   @DF-RHF iter  11:  -344.90647667250124   -3.29295e-04   7.71000e-05 DIIS
   @DF-RHF iter  12:  -344.90655877309172   -8.21006e-05   2.04016e-05 DIIS
   @DF-RHF iter  13:  -344.90656630724180   -7.53415e-06   9.38651e-06 DIIS
   @DF-RHF iter  14:  -344.90656798938227   -1.68214e-06   2.41994e-06 DIIS
   @DF-RHF iter  15:  -344.90656810525110   -1.15869e-07   6.92996e-07 DIIS
   @DF-RHF iter  16:  -344.90656811490538   -9.65429e-09   1.90680e-07 DIIS
   @DF-RHF iter  17:  -344.90656811546529   -5.59908e-10   6.28135e-08 DIIS
   @DF-RHF iter  18:  -344.90656811552486   -5.95719e-11   1.39817e-08 DIIS
   @DF-RHF iter  19:  -344.90656811552884   -3.97904e-12   3.35881e-09 DIIS

  ==> Post-Iterations <==

    Orbital Energies (a.u.)
    -----------------------

    Doubly Occupied:                                                      

       1A    -20.604388     2A    -20.545583     3A    -11.372670  
       4A    -11.281098     5A    -11.235797     6A    -11.222719  
       7A    -11.214905     8A     -1.469816     9A     -1.363157  
      10A     -1.080876    11A     -1.001557    12A     -0.939896  
      13A     -0.827605    14A     -0.767933    15A     -0.700119  
      16A     -0.683332    17A     -0.672308    18A     -0.636878  
      19A     -0.595190    20A     -0.576701    21A     -0.567032  
      22A     -0.528435    23A     -0.522051    24A     -0.499459  
      25A     -0.487241    26A     -0.478550    27A     -0.456511  
      28A     -0.437692  

    Virtual:                                                              

      29A      0.198093    30A      0.230833    31A      0.261322  
      32A      0.284132    33A      0.291214    34A      0.303559  
      35A      0.311316    36A      0.317194    37A      0.327314  
      38A      0.334026    39A      0.342592    40A      0.366982  
      41A      0.403321    42A      0.424700    43A      0.471434  
      44A      0.522622    45A      0.565907    46A      0.723707  
      47A      0.729440    48A      0.741568    49A      0.743219  
      50A      0.770502    51A      0.771618    52A      0.794062  
      53A      0.844520    54A      0.875954    55A      0.899571  
      56A      0.945833    57A      0.965625    58A      1.002318  
      59A      1.055154    60A      1.071263    61A      1.092920  
      62A      1.112737    63A      1.127317    64A      1.136870  
      65A      1.141452    66A      1.168443    67A      1.173785  
      68A      1.204703    69A      1.206559    70A      1.219601  
      71A      1.229965    72A      1.241510    73A      1.260664  
      74A      1.293827    75A      1.330741    76A      1.380162  
      77A      1.404686    78A      1.540414    79A      1.600343  
      80A      1.628809    81A      1.669455    82A      1.723226  
      83A      1.758006    84A      1.802563    85A      1.879677  
      86A      1.880545    87A      1.962887    88A      2.028733  
      89A      2.046168    90A      2.132597    91A      2.141560  
      92A      2.161923    93A      2.208050    94A      2.261489  
      95A      2.279186    96A      2.296992    97A      2.346967  
      98A      2.363820    99A      2.396211   100A      2.428178  
     101A      2.447040   102A      2.497497   103A      2.563158  
     104A      2.654888   105A      2.664290   106A      2.679135  
     107A      2.684760   108A      2.738755   109A      2.805143  
     110A      2.841997   111A      2.899782   112A      2.959354  
     113A      3.048097   114A      3.091395   115A      3.156207  
     116A      3.348807   117A      3.446070   118A      3.572954  
     119A      4.414862   120A      4.553184   121A      4.625464  
     122A      4.678703   123A      4.745681   124A      4.844566  
     125A      4.992448  

    Final Occupation by Irrep:
              A 
    DOCC [    28 ]

  Energy converged.

  @DF-RHF Final Energy:  -344.90656811552884

   => Energetics <=

    Nuclear Repulsion Energy =            312.4815525663086078
    One-Electron Energy =               -1089.2372482802916238
    Two-Electron Energy =                 431.8491275984541744
    DFT Exchange-Correlation Energy =       0.0000000000000000
    Empirical Dispersion Energy =           0.0000000000000000
    PCM Polarization Energy =               0.0000000000000000
    EFP Energy =                            0.0000000000000000
    Total Energy =                       -344.9065681155287848

    Alert: EFP and PCM quantities not currently incorporated into SCF psivars.

Properties will be evaluated at   0.000000,   0.000000,   0.000000 Bohr
  ==> Properties <==


Properties computed using the SCF density matrix

  Nuclear Dipole Moment: (a.u.)
     X:    -6.1985      Y:    -1.9629      Z:    -0.4901

  Electronic Dipole Moment: (a.u.)
     X:     6.2873      Y:     1.2979      Z:     0.2999

  Dipole Moment: (a.u.)
     X:     0.0888      Y:    -0.6650      Z:    -0.1902     Total:     0.6973

  Dipole Moment: (Debye)
     X:     0.2256      Y:    -1.6902      Z:    -0.4833     Total:     1.7724


  Saving occupied orbitals to File 180.

*** tstop() called on cx1-3-1-1.cx1.hpc.ic.ac.uk at Fri Sep  2 12:17:40 2016
Module time:
	user time   =      16.33 seconds =       0.27 minutes
	system time =       0.18 seconds =       0.00 minutes
	total time  =          6 seconds =       0.10 minutes
Total time:
	user time   =      16.33 seconds =       0.27 minutes
	system time =       0.18 seconds =       0.00 minutes
	total time  =          6 seconds =       0.10 minutes

*** tstart() called on cx1-3-1-1.cx1.hpc.ic.ac.uk
*** at Fri Sep  2 12:17:40 2016


         ------------------------------------------------------------
                                   SCF GRAD                          
                          Rob Parrish, Justin Turney,                
                       Andy Simmonett, and Alex Sokolov              
         ------------------------------------------------------------

  ==> Geometry <==

    Molecular point group: c1
    Full point group: C1

    Geometry (in Angstrom), charge = 0, multiplicity = 1:

       Center              X                  Y                   Z               Mass       
    ------------   -----------------  -----------------  -----------------  -----------------
           O          0.773248738557     1.261853450279     0.349656466331    15.994914619560
           C          0.581004738557     0.122371450279     0.070913466331    12.000000000000
           C         -0.762023261443    -0.566114549721     0.070560466331    12.000000000000
           O          1.549353738557    -0.711960549721    -0.285251533669    15.994914619560
           C         -1.940458261443     0.403052450279     0.071182466331    12.000000000000
           H         -0.792155261443    -1.220562549721    -0.796445533669     1.007825032070
           H         -0.792098261443    -1.221703549721     0.936708466331     1.007825032070
           C         -3.283035261443    -0.326368549721     0.071126466331    12.000000000000
           H         -1.871331261443     1.051266450279    -0.795790533669     1.007825032070
           H         -1.871066261443     1.050377450279     0.938782466331     1.007825032070
           H         -3.389989261443    -0.958506549721    -0.806036533669     1.007825032070
           H         -4.107022261443     0.379639450279     0.071036466331     1.007825032070
           H         -3.390198261443    -0.958500549721     0.948280466331     1.007825032070
           C          2.865001738557    -0.189808549721    -0.325698533669    12.000000000000
           H          2.930359738557     0.620797450279    -1.037166533669     1.007825032070
           H          3.497849738557    -1.008100549721    -0.631912533669     1.007825032070
           H          3.161778738557     0.168622450279     0.649473466331     1.007825032070

  Nuclear repulsion =  312.481552566308608

  ==> Basis Set <==

  Basis Set: 6-31G*
    Number of shells: 62
    Number of basis function: 125
    Number of Cartesian functions: 125
    Spherical Harmonics?: false
    Max angular momentum: 2

  ==> DFJKGrad: Density-Fitted SCF Gradients <==

    Gradient:                    1
    J tasked:                  Yes
    K tasked:                  Yes
    wK tasked:                  No
    OpenMP threads:              4
    Integrals threads:           4
    Memory (MB):              1430
    Schwarz Cutoff:          0E+00
    Fitting Condition:       1E-12

   => Auxiliary Basis Set <=

  Basis Set: 
    Number of shells: 258
    Number of basis function: 817
    Number of Cartesian functions: 817
    Spherical Harmonics?: false
    Max angular momentum: 3


  -Total Gradient:
     Atom            X                  Y                   Z
    ------   -----------------  -----------------  -----------------
       1        0.000123217981    -0.000137404624    -0.000291310128
       2        0.000009172813     0.000071284564     0.000908346498
       3       -0.000374338622     0.001167758898     0.003753270338
       4       -0.000295977262    -0.000256291193    -0.000468320707
       5        0.000183365345    -0.000229005218    -0.002738164363
       6        0.000567505131    -0.000435567745    -0.000914868338
       7       -0.000070463061    -0.000252115370    -0.001061426022
       8        0.000052259191    -0.000048338234     0.000443694196
       9        0.000115941339    -0.000107756102     0.000616548319
      10       -0.000112913122     0.000179461093     0.000345804271
      11        0.000043847895     0.000024790117    -0.000038791739
      12       -0.000010141282    -0.000000698646    -0.000017437084
      13       -0.000130759041    -0.000088580179    -0.000017004462
      14       -0.000101763839     0.000102843475    -0.000541113879
      15        0.000109153532     0.000022494548    -0.000010624020
      16       -0.000020896146     0.000014331259     0.000005657492
      17       -0.000087210857    -0.000027206643     0.000025739626


*** tstop() called on cx1-3-1-1.cx1.hpc.ic.ac.uk at Fri Sep  2 12:17:45 2016
Module time:
	user time   =      18.16 seconds =       0.30 minutes
	system time =       0.19 seconds =       0.00 minutes
	total time  =          5 seconds =       0.08 minutes
Total time:
	user time   =      34.51 seconds =       0.58 minutes
	system time =       0.37 seconds =       0.01 minutes
	total time  =         11 seconds =       0.18 minutes
CURRENT ENERGY: -344.9065681155

			-----------------------------------------
			 OPTKING 2.0: for geometry optimizations 
			  - R.A. King,  Bethel University        
			-----------------------------------------

	Internal coordinates to be generated automatically.
	Detected frag with atoms:  1 2 3 4 5 6 7 8 9 10 11 12 13 14 15 16 17
	---Fragment 1 Bond Connectivity---
	 1 : 2
	 2 : 1 3 4
	 3 : 2 5 6 7
	 4 : 2 14
	 5 : 3 8 9 10
	 6 : 3
	 7 : 3
	 8 : 5 11 12 13
	 9 : 5
	 10 : 5
	 11 : 8
	 12 : 8
	 13 : 8
	 14 : 4 15 16 17
	 15 : 14
	 16 : 14
	 17 : 14

	Assuming in current code that numbering for constraints corresponds to unified fragment.
	Frozen dihedral atom list: 
	     1     2     3     6
	---Fragment 1 Geometry and Gradient---
	 O           1.4612283485        2.3845574409        0.6607549620
	 C           1.0979398378        0.2312485275        0.1340070305
	 C          -1.4400152710       -1.0698014588        0.1333399572
	 O           2.9278542488       -1.3454104564       -0.5390472776
	 C          -3.6669346864        0.7616587482        0.1345153668
	 H          -1.4969564989       -2.3065289470       -1.5050639384
	 H          -1.4968487845       -2.3086851245        1.7701224677
	 C          -6.2040375287       -0.6167471774        0.1344095422
	 H          -3.5363035880        1.9866056837       -1.5038261678
	 H          -3.5358028106        1.9849257172        1.7740417597
	 H          -6.4061512976       -1.8113148755       -1.5231883017
	 H          -7.7611472958        0.7174145903        0.1342394668
	 H          -6.4065462503       -1.8113035372        1.7919903785
	 C           5.4140686561       -0.3586861767       -0.6154810305
	 H           5.5375773767        1.1731371650       -1.9599607028
	 H           6.6099780599       -1.9050339534       -1.1941416286
	 H           5.9748959087        0.3186502509        1.2273269819
	             0.0001232180       -0.0001374046       -0.0002913101
	             0.0000091728        0.0000712846        0.0009083465
	            -0.0003743386        0.0011677589        0.0037532703
	            -0.0002959773       -0.0002562912       -0.0004683207
	             0.0001833653       -0.0002290052       -0.0027381644
	             0.0005675051       -0.0004355677       -0.0009148683
	            -0.0000704631       -0.0002521154       -0.0010614260
	             0.0000522592       -0.0000483382        0.0004436942
	             0.0001159413       -0.0001077561        0.0006165483
	            -0.0001129131        0.0001794611        0.0003458043
	             0.0000438479        0.0000247901       -0.0000387917
	            -0.0000101413       -0.0000006986       -0.0000174371
	            -0.0001307590       -0.0000885802       -0.0000170045
	            -0.0001017638        0.0001028435       -0.0005411139
	             0.0001091535        0.0000224945       -0.0000106240
	            -0.0000208961        0.0000143313        0.0000056575
	            -0.0000872109       -0.0000272066        0.0000257396

	Previous optimization step data not found.  Starting new optimization.

	---Fragment 1 Intrafragment Coordinates---
	 - Coordinate -           - BOHR/RAD -       - ANG/DEG -
	 R(1,2)           =         2.246371	       1.188728
	 R(2,3)           =         2.852008	       1.509218
	 R(2,4)           =         2.507477	       1.326900
	 R(3,5)           =         2.883300	       1.525777
	 R(3,6)           =         2.053559	       1.086697
	 R(3,7)           =         2.053563	       1.086699
	 R(4,14)          =         2.675954	       1.416054
	 R(5,8)           =         2.887368	       1.527929
	 R(5,9)           =         2.049810	       1.084713
	 R(5,10)          =         2.049786	       1.084700
	 R(8,11)          =         2.053162	       1.086486
	 R(8,12)          =         2.050507	       1.085082
	 R(8,13)          =         2.053180	       1.086496
	 R(14,15)         =         2.041902	       1.080528
	 R(14,16)         =         2.038686	       1.078826
	 R(14,17)         =         2.041875	       1.080514
	 B(1,2,3)         =         2.191070	     125.539048
	 B(1,2,4)         =         2.150353	     123.206136
	 B(2,3,5)         =         1.979624	     113.424111
	 B(2,3,6)         =         1.875063	     107.433215
	 B(2,3,7)         =         1.875125	     107.436742
	 B(2,4,14)        =         2.041876	     116.990877
	 B(3,2,4)         =         1.941763	     111.254816
	 B(3,5,8)         =         1.955646	     112.050281
	 B(3,5,9)         =         1.907143	     109.271230
	 B(3,5,10)        =         1.907086	     109.267981
	 B(4,14,15)       =         1.930108	     110.587062
	 B(4,14,16)       =         1.847757	     105.868689
	 B(4,14,17)       =         1.930213	     110.593039
	 B(5,3,6)         =         1.940616	     111.189111
	 B(5,3,7)         =         1.940677	     111.192591
	 B(5,8,11)        =         1.943660	     111.363500
	 B(5,8,12)        =         1.935469	     110.894195
	 B(5,8,13)        =         1.943771	     111.369894
	 B(6,3,7)         =         1.846084	     105.772847
	 B(8,5,9)         =         1.919046	     109.953232
	 B(8,5,10)        =         1.918925	     109.946284
	 B(9,5,10)        =         1.853120	     106.175969
	 B(11,8,12)       =         1.879412	     107.682364
	 B(11,8,13)       =         1.879231	     107.672032
	 B(12,8,13)       =         1.879392	     107.681252
	 B(15,14,16)      =         1.924793	     110.282490
	 B(15,14,17)      =         1.905809	     109.194831
	 B(16,14,17)      =         1.924805	     110.283216
	 D(1,2,3,5)       =         0.291594	      16.707087
	*D(1,2,3,6)       =         2.443461	     140.000025
	 D(1,2,3,7)       =        -1.860396	    -106.592839
	 D(1,2,4,14)      =         0.000100	       0.005702
	 D(2,3,5,8)       =        -3.141366	    -179.987002
	 D(2,3,5,9)       =         1.010468	      57.895562
	 D(2,3,5,10)      =        -1.010208	     -57.880647
	 D(2,4,14,15)     =        -1.056409	     -60.527762
	 D(2,4,14,16)     =        -3.141295	    -179.982963
	 D(2,4,14,17)     =         1.056932	      60.557747
	 D(3,2,4,14)      =         3.141593	     180.000000
	 D(3,5,8,11)      =        -1.048478	     -60.073363
	 D(3,5,8,12)      =        -3.141063	    -179.969664
	 D(3,5,8,13)      =         1.049487	      60.131187
	 D(4,2,3,5)       =        -2.849895	    -163.286956
	 D(4,2,3,6)       =        -0.698027	     -39.994019
	 D(4,2,3,7)       =         1.281301	      73.413117
	 D(6,3,5,8)       =         1.026367	      58.806521
	 D(6,3,5,9)       =        -1.104984	     -63.310915
	 D(6,3,5,10)      =        -3.125660	    -179.087124
	 D(7,3,5,8)       =        -1.025788	     -58.773347
	 D(7,3,5,9)       =         3.126046	     179.109217
	 D(7,3,5,10)      =         1.105370	      63.333008
	 D(9,5,8,11)      =         1.076065	      61.653991
	 D(9,5,8,12)      =        -1.016520	     -58.242310
	 D(9,5,8,13)      =        -3.109155	    -178.141459
	 D(10,5,8,11)     =         3.110321	     178.208290
	 D(10,5,8,12)     =         1.017736	      58.311989
	 D(10,5,8,13)     =        -1.074899	     -61.587160

	Current energy   :      -344.9065681155

	Generating empirical Hessian (Schlegel '84) for each fragment.
	Taking RFO optimization step.
	Going to follow RFO solution 1.
	Using RFO vector 1.
	Norm of target step-size    0.27569
	Projected energy change by RFO approximation:        -0.0010854372

	Back-transformation to cartesian coordinates...
	Successfully converged to displaced geometry.

	Back-transformation to cartesian coordinates to adjust frozen coordinates...
	Successfully converged to displaced geometry.

	--- Internal Coordinate Step in ANG or DEG, aJ/ANG or AJ/DEG ---
	 ---------------------------------------------------------------------------
	   Coordinate                Previous        Force       Change         New 
	   ----------                --------       ------       ------       ------
	    1 R(1,2)          =      1.188728     0.001484     0.000086     1.188814
	    2 R(2,3)          =      1.509218     0.002728     0.000556     1.509774
	    3 R(2,4)          =      1.326900    -0.000546    -0.000058     1.326842
	    4 R(3,5)          =      1.525777     0.002319     0.000499     1.526275
	    5 R(3,6)          =      1.086697    -0.008045    -0.001466     1.085231
	    6 R(3,7)          =      1.086699     0.005701     0.001039     1.087737
	    7 R(4,14)         =      1.416054     0.000307     0.000046     1.416100
	    8 R(5,8)          =      1.527929    -0.000768    -0.000166     1.527763
	    9 R(5,9)          =      1.084713     0.004530     0.000820     1.085533
	   10 R(5,10)         =      1.084700    -0.003102    -0.000561     1.084139
	   11 R(8,11)         =      1.086486    -0.000104    -0.000019     1.086468
	   12 R(8,12)         =      1.085082    -0.000060    -0.000011     1.085071
	   13 R(8,13)         =      1.086496    -0.000418    -0.000076     1.086420
	   14 R(14,15)        =      1.080528    -0.000251    -0.000045     1.080483
	   15 R(14,16)        =      1.078826     0.000204     0.000036     1.078862
	   16 R(14,17)        =      1.080514     0.000080     0.000014     1.080528
	   17 B(1,2,3)        =    125.539048    -0.000053    -0.323040   125.216008
	   18 B(1,2,4)        =    123.206136    -0.000022    -0.229192   122.976944
	   19 B(2,3,5)        =    113.424111    -0.000043    -0.187576   113.236536
	   20 B(2,3,6)        =    107.433215     0.000066     0.830693   108.263908
	   21 B(2,3,7)        =    107.436742    -0.000012    -0.620273   106.816469
	   22 B(2,4,14)       =    116.990877    -0.000006    -0.017297   116.973580
	   23 B(3,2,4)        =    111.254816     0.000075     0.062046   111.316862
	   24 B(3,5,8)        =    112.050281     0.000010     0.021152   112.071432
	   25 B(3,5,9)        =    109.271230    -0.000002    -0.088444   109.182786
	   26 B(3,5,10)       =    109.267981    -0.000006     0.046516   109.314496
	   27 B(4,14,15)      =    110.587062    -0.000015    -0.076611   110.510452
	   28 B(4,14,16)      =    105.868689     0.000002     0.008633   105.877322
	   29 B(4,14,17)      =    110.593039     0.000014     0.066461   110.659500
	   30 B(5,3,6)        =    111.189111     0.000014     0.483330   111.672441
	   31 B(5,3,7)        =    111.192591    -0.000036    -0.694434   110.498157
	   32 B(5,8,11)       =    111.363500     0.000010     0.061315   111.424816
	   33 B(5,8,12)       =    110.894195     0.000001     0.006942   110.901137
	   34 B(5,8,13)       =    111.369894    -0.000018    -0.101692   111.268202
	   35 B(6,3,7)        =    105.772847     0.000017     0.207490   105.980337
	   36 B(8,5,9)        =    109.953232    -0.000016    -0.173884   109.779349
	   37 B(8,5,10)       =    109.946284     0.000008     0.135800   110.082083
	   38 B(9,5,10)       =    106.175969     0.000006     0.060241   106.236210
	   39 B(11,8,12)      =    107.682364    -0.000002     0.021544   107.703908
	   40 B(11,8,13)      =    107.672032     0.000004     0.012589   107.684621
	   41 B(12,8,13)      =    107.681252     0.000006     0.001354   107.682607
	   42 B(15,14,16)     =    110.282490     0.000003     0.006317   110.288807
	   43 B(15,14,17)     =    109.194831    -0.000000    -0.004083   109.190748
	   44 B(16,14,17)     =    110.283216    -0.000002    -0.000379   110.282836
	   45 D(1,2,3,5)      =     16.707087    -0.000009    -1.103573    15.603514
	   46 *D(1,2,3,6)     =    140.000025     0.000000    -0.000000   140.000025
	   47 D(1,2,3,7)      =   -106.592839     0.000010     0.334072  -106.258768
	   48 D(1,2,4,14)     =      0.005702     0.000002    -1.951889    -1.946187
	   49 D(2,3,5,8)      =   -179.987002     0.000009     1.550815  -178.436187
	   50 D(2,3,5,9)      =     57.895562     0.000012     1.818609    59.714171
	   51 D(2,3,5,10)     =    -57.880647     0.000012     1.769921   -56.110727
	   52 D(2,4,14,15)    =    -60.527762     0.000000     0.204623   -60.323139
	   53 D(2,4,14,16)    =   -179.982963     0.000001     0.233190  -179.749774
	   54 D(2,4,14,17)    =     60.557747    -0.000000     0.192673    60.750421
	   55 D(3,2,4,14)     =    180.000000     0.000016     5.710911   185.710911
	   56 D(3,5,8,11)     =    -60.073363     0.000001     0.323417   -59.749946
	   57 D(3,5,8,12)     =   -179.969664     0.000000     0.250679  -179.718985
	   58 D(3,5,8,13)     =     60.131187     0.000001     0.311890    60.443077
	   59 D(4,2,3,5)      =   -163.286956    -0.000023    -8.973220  -172.260176
	   60 D(4,2,3,6)      =    -39.994019    -0.000015    -7.869647   -47.863665
	   61 D(4,2,3,7)      =     73.413117    -0.000004    -7.535575    65.877542
	   62 D(6,3,5,8)      =     58.806521    -0.000006     0.235168    59.041689
	   63 D(6,3,5,9)      =    -63.310915    -0.000003     0.502962   -62.807953
	   64 D(6,3,5,10)     =   -179.087124    -0.000003     0.454273  -178.632851
	   65 D(7,3,5,8)      =    -58.773347    -0.000008     0.115261   -58.658086
	   66 D(7,3,5,9)      =    179.109217    -0.000004     0.383055   179.492272
	   67 D(7,3,5,10)     =     63.333008    -0.000005     0.334366    63.667374
	   68 D(9,5,8,11)     =     61.653991    -0.000000     0.103727    61.757719
	   69 D(9,5,8,12)     =    -58.242310    -0.000001     0.030989   -58.211320
	   70 D(9,5,8,13)     =   -178.141459    -0.000000     0.092200  -178.049259
	   71 D(10,5,8,11)    =    178.208290     0.000000     0.154283   178.362573
	   72 D(10,5,8,12)    =     58.311989    -0.000001     0.081545    58.393534
	   73 D(10,5,8,13)    =    -61.587160     0.000000     0.142756   -61.444405
	 ---------------------------------------------------------------------------

  ==> Convergence Check <==

  Measures of convergence in internal coordinates in au.
  Criteria marked as inactive (o), active & met (*), and active & unmet ( ).
  --------------------------------------------------------------------------------------------- ~
   Step     Total Energy     Delta E     MAX Force     RMS Force      MAX Disp      RMS Disp    ~
  --------------------------------------------------------------------------------------------- ~
    Convergence Criteria    1.00e-06 *    3.00e-04 *             o    1.20e-03 *             o  ~
  --------------------------------------------------------------------------------------------- ~
      1    -344.90656812   -3.45e+02      1.33e-03      3.88e-04 o    1.57e-01      3.23e-02 o  ~
  ---------------------------------------------------------------------------------------------

	Writing optimization data to binary file.
	Structure for next step:
	Cartesian Geometry (in Angstrom)
	    O     0.7575376649   1.2800241258   0.2287864087
	    C     0.5707530238   0.1448651643  -0.0708885448
	    C    -0.7659470643  -0.5561608585  -0.0360608782
	    O     1.5562952819  -0.7079133062  -0.3198551110
	    C    -1.9476564230   0.4050179243   0.0599335014
	    H    -0.8383012663  -1.1941363045  -0.9109769703
	    H    -0.7482922898  -1.2249514862   0.8215987558
	    C    -3.2834661719  -0.3328789058   0.1319123720
	    H    -1.9396440917   1.0671656428  -0.8002280162
	    H    -1.8248386569   1.0384006541   0.9311966088
	    H    -3.4420338966  -0.9531324521  -0.7458994129
	    H    -4.1097645094   0.3676047000   0.1946208207
	    H    -3.3307800358  -0.9780009506   1.0047741936
	    C     2.8766281051  -0.1999540893  -0.2563194993
	    H     3.0118197073   0.5941264720  -0.9764605319
	    H     3.5240658635  -1.0308112639  -0.4896525618
	    H     3.0928437924   0.1770894278   0.7329377548
			--------------------------
			 OPTKING Finished Execution 
			--------------------------

    Structure for next step:
    Molecular point group: c1
    Full point group: C1

    Geometry (in Angstrom), charge = 0, multiplicity = 1:

    O            0.759921418451     1.274849348406     0.265562480756
    C            0.573136791644     0.139690473648    -0.034112449811
    C           -0.763563194375    -0.561335495668     0.000715214091
    O            1.558678974476    -0.713087931774    -0.283078997012
    C           -1.945272462884     0.399843213714     0.096709586383
    H           -0.835917390886    -1.199310892900    -0.874200811196
    H           -0.745908421230    -1.230126072289     0.858374782621
    C           -3.281082109746    -0.338053559966     0.168688451497
    H           -1.937260132138     1.061990881689    -0.763451865574
    H           -1.822454706086     1.033225895225     0.967972627207
    H           -3.439649822334    -0.958307058946    -0.709123266422
    H           -4.107380384088     0.362429992298     0.231396895348
    H           -3.328395970003    -0.983175555529     1.041550206414
    C            2.879011696842    -0.205128753644    -0.219543390179
    H            3.014203288774     0.588951747010    -0.939684367810
    H            3.526449405793    -1.035985864768    -0.452876434829
    H            3.095227367660     0.171914734705     0.769713788365

gradient() will perform analytic gradient computation.

*** tstart() called on cx1-3-1-1.cx1.hpc.ic.ac.uk
*** at Fri Sep  2 12:17:46 2016


         ---------------------------------------------------------
                                   SCF
            by Justin Turney, Rob Parrish, and Andy Simmonett
                              RHF Reference
                        4 Threads,   2000 MiB Core
         ---------------------------------------------------------

  ==> Geometry <==

    Molecular point group: c1
    Full point group: C1

    Geometry (in Angstrom), charge = 0, multiplicity = 1:

       Center              X                  Y                   Z               Mass       
    ------------   -----------------  -----------------  -----------------  -----------------
           O          0.759921418451     1.274849348406     0.265562480756    15.994914619560
           C          0.573136791644     0.139690473648    -0.034112449811    12.000000000000
           C         -0.763563194375    -0.561335495668     0.000715214091    12.000000000000
           O          1.558678974476    -0.713087931774    -0.283078997012    15.994914619560
           C         -1.945272462884     0.399843213714     0.096709586383    12.000000000000
           H         -0.835917390886    -1.199310892900    -0.874200811196     1.007825032070
           H         -0.745908421230    -1.230126072289     0.858374782621     1.007825032070
           C         -3.281082109746    -0.338053559966     0.168688451497    12.000000000000
           H         -1.937260132138     1.061990881689    -0.763451865574     1.007825032070
           H         -1.822454706086     1.033225895225     0.967972627207     1.007825032070
           H         -3.439649822334    -0.958307058946    -0.709123266422     1.007825032070
           H         -4.107380384088     0.362429992298     0.231396895348     1.007825032070
           H         -3.328395970003    -0.983175555529     1.041550206414     1.007825032070
           C          2.879011696842    -0.205128753644    -0.219543390179    12.000000000000
           H          3.014203288774     0.588951747010    -0.939684367810     1.007825032070
           H          3.526449405793    -1.035985864768    -0.452876434829     1.007825032070
           H          3.095227367660     0.171914734705     0.769713788365     1.007825032070

  Running in c1 symmetry.

  Rotational constants: A =      0.28603  B =      0.04005  C =      0.03611 [cm^-1]
  Rotational constants: A =   8574.95689  B =   1200.58118  C =   1082.40789 [MHz]
  Nuclear repulsion =  312.513856308760694

  Charge       = 0
  Multiplicity = 1
  Electrons    = 56
  Nalpha       = 28
  Nbeta        = 28

  ==> Algorithm <==

  SCF Algorithm Type is DF.
  DIIS enabled.
  MOM disabled.
  Fractional occupation disabled.
  Guess Type is READ.
  Energy threshold   = 1.00e-08
  Density threshold  = 1.00e-08
  Integral threshold = 0.00e+00

  ==> Primary Basis <==

  Basis Set: 6-31G*
    Number of shells: 62
    Number of basis function: 125
    Number of Cartesian functions: 125
    Spherical Harmonics?: false
    Max angular momentum: 2

  ==> Pre-Iterations <==

   -------------------------------------------------------
    Irrep   Nso     Nmo     Nalpha   Nbeta   Ndocc  Nsocc
   -------------------------------------------------------
     A        125     125       0       0       0       0
   -------------------------------------------------------
    Total     125     125      28      28      28       0
   -------------------------------------------------------

 OEINTS: Overlap, kinetic, potential, dipole, and quadrupole integrals
         stored in file 35.

  ==> Integral Setup <==

  ==> DFJK: Density-Fitted J/K Matrices <==

    J tasked:                  Yes
    K tasked:                  Yes
    wK tasked:                  No
    OpenMP threads:              4
    Integrals threads:           4
    Memory (MB):              1430
    Algorithm:                Core
    Integral Cache:           NONE
    Schwarz Cutoff:          1E-12
    Fitting Condition:       1E-12

   => Auxiliary Basis Set <=

  Basis Set: 
    Number of shells: 258
    Number of basis function: 817
    Number of Cartesian functions: 817
    Spherical Harmonics?: false
    Max angular momentum: 3

  Minimum eigenvalue in the overlap matrix is 2.8578325843E-03.
  Using Symmetric Orthogonalization.
  SCF Guess: Reading in previously saved MOs, projecting if necessary.

  Using orbitals from previous SCF, no projection.
  Recomputing DOCC and SOCC from number of alpha and beta electrons from previous calculation.
              A 
    DOCC [    28 ]

  ==> Iterations <==

                           Total Energy        Delta E     RMS |[F,P]|

   @DF-RHF iter   0:  -344.88750714711131   -3.44888e+02   1.59890e-03 
   @DF-RHF iter   1:  -344.90464329455079   -1.71361e-02   2.59901e-04 
   @DF-RHF iter   2:  -344.90566577663509   -1.02248e-03   9.54351e-05 DIIS
   @DF-RHF iter   3:  -344.90582017995456   -1.54403e-04   4.44886e-05 DIIS
   @DF-RHF iter   4:  -344.90583802703992   -1.78471e-05   1.09087e-05 DIIS
   @DF-RHF iter   5:  -344.90584037791126   -2.35087e-06   5.41455e-06 DIIS
   @DF-RHF iter   6:  -344.90584134544548   -9.67534e-07   2.23096e-06 DIIS
   @DF-RHF iter   7:  -344.90584153330980   -1.87864e-07   8.78871e-07 DIIS
   @DF-RHF iter   8:  -344.90584155394350   -2.06337e-08   2.27294e-07 DIIS
   @DF-RHF iter   9:  -344.90584155497623   -1.03273e-09   6.46365e-08 DIIS
   @DF-RHF iter  10:  -344.90584155505104   -7.48059e-11   1.99303e-08 DIIS
   @DF-RHF iter  11:  -344.90584155505888   -7.84439e-12   5.44521e-09 DIIS

  ==> Post-Iterations <==

    Orbital Energies (a.u.)
    -----------------------

    Doubly Occupied:                                                      

       1A    -20.604100     2A    -20.545711     3A    -11.372711  
       4A    -11.281038     5A    -11.236240     6A    -11.222143  
       7A    -11.214641     8A     -1.469950     9A     -1.362950  
      10A     -1.080616    11A     -1.001310    12A     -0.939868  
      13A     -0.827186    14A     -0.767575    15A     -0.700449  
      16A     -0.683340    17A     -0.672331    18A     -0.637159  
      19A     -0.595046    20A     -0.575567    21A     -0.568211  
      22A     -0.527427    23A     -0.522468    24A     -0.498769  
      25A     -0.486750    26A     -0.478704    27A     -0.456390  
      28A     -0.437948  

    Virtual:                                                              

      29A      0.194867    30A      0.232102    31A      0.261466  
      32A      0.284349    33A      0.292000    34A      0.304943  
      35A      0.310816    36A      0.317000    37A      0.326771  
      38A      0.334388    39A      0.342697    40A      0.368056  
      41A      0.402415    42A      0.424750    43A      0.473103  
      44A      0.522150    45A      0.564135    46A      0.724481  
      47A      0.729118    48A      0.741619    49A      0.743100  
      50A      0.769226    51A      0.774222    52A      0.792941  
      53A      0.844637    54A      0.874079    55A      0.897477  
      56A      0.945825    57A      0.966448    58A      1.000014  
      59A      1.060041    60A      1.069423    61A      1.094309  
      62A      1.112164    63A      1.127875    64A      1.135809  
      65A      1.140762    66A      1.169308    67A      1.173812  
      68A      1.203144    69A      1.206520    70A      1.220334  
      71A      1.231049    72A      1.243895    73A      1.261506  
      74A      1.295589    75A      1.322356    76A      1.378492  
      77A      1.409053    78A      1.545018    79A      1.607856  
      80A      1.628356    81A      1.665279    82A      1.727210  
      83A      1.754596    84A      1.800053    85A      1.878376  
      86A      1.881086    87A      1.959073    88A      2.031419  
      89A      2.051300    90A      2.132627    91A      2.144543  
      92A      2.163373    93A      2.214250    94A      2.249663  
      95A      2.277870    96A      2.299432    97A      2.351814  
      98A      2.360650    99A      2.398894   100A      2.431020  
     101A      2.445236   102A      2.504671   103A      2.555201  
     104A      2.654321   105A      2.663858   106A      2.677991  
     107A      2.688137   108A      2.734683   109A      2.782843  
     110A      2.860124   111A      2.902410   112A      2.960361  
     113A      3.049028   114A      3.082678   115A      3.160315  
     116A      3.348192   117A      3.446007   118A      3.573641  
     119A      4.415834   120A      4.553744   121A      4.618501  
     122A      4.680258   123A      4.739697   124A      4.837523  
     125A      4.989001  

    Final Occupation by Irrep:
              A 
    DOCC [    28 ]

  Energy converged.

  @DF-RHF Final Energy:  -344.90584155505888

   => Energetics <=

    Nuclear Repulsion Energy =            312.5138563087606940
    One-Electron Energy =               -1089.3061987854212020
    Two-Electron Energy =                 431.8865009216017370
    DFT Exchange-Correlation Energy =       0.0000000000000000
    Empirical Dispersion Energy =           0.0000000000000000
    PCM Polarization Energy =               0.0000000000000000
    EFP Energy =                            0.0000000000000000
    Total Energy =                       -344.9058415550587142

    Alert: EFP and PCM quantities not currently incorporated into SCF psivars.

Properties will be evaluated at   0.000000,   0.000000,   0.000000 Bohr
  ==> Properties <==


Properties computed using the SCF density matrix

  Nuclear Dipole Moment: (a.u.)
     X:    -6.1584      Y:    -2.0489      Z:     0.1215

  Electronic Dipole Moment: (a.u.)
     X:     6.2560      Y:     1.3814      Z:    -0.2761

  Dipole Moment: (a.u.)
     X:     0.0976      Y:    -0.6675      Z:    -0.1547     Total:     0.6921

  Dipole Moment: (Debye)
     X:     0.2480      Y:    -1.6966      Z:    -0.3931     Total:     1.7591


  Saving occupied orbitals to File 180.

*** tstop() called on cx1-3-1-1.cx1.hpc.ic.ac.uk at Fri Sep  2 12:17:51 2016
Module time:
	user time   =      14.19 seconds =       0.24 minutes
	system time =       0.14 seconds =       0.00 minutes
	total time  =          5 seconds =       0.08 minutes
Total time:
	user time   =      50.23 seconds =       0.84 minutes
	system time =       0.56 seconds =       0.01 minutes
	total time  =         17 seconds =       0.28 minutes

*** tstart() called on cx1-3-1-1.cx1.hpc.ic.ac.uk
*** at Fri Sep  2 12:17:51 2016


         ------------------------------------------------------------
                                   SCF GRAD                          
                          Rob Parrish, Justin Turney,                
                       Andy Simmonett, and Alex Sokolov              
         ------------------------------------------------------------

  ==> Geometry <==

    Molecular point group: c1
    Full point group: C1

    Geometry (in Angstrom), charge = 0, multiplicity = 1:

       Center              X                  Y                   Z               Mass       
    ------------   -----------------  -----------------  -----------------  -----------------
           O          0.759921418451     1.274849348406     0.265562480756    15.994914619560
           C          0.573136791644     0.139690473648    -0.034112449811    12.000000000000
           C         -0.763563194375    -0.561335495668     0.000715214091    12.000000000000
           O          1.558678974476    -0.713087931774    -0.283078997012    15.994914619560
           C         -1.945272462884     0.399843213714     0.096709586383    12.000000000000
           H         -0.835917390886    -1.199310892900    -0.874200811196     1.007825032070
           H         -0.745908421230    -1.230126072289     0.858374782621     1.007825032070
           C         -3.281082109746    -0.338053559966     0.168688451497    12.000000000000
           H         -1.937260132138     1.061990881689    -0.763451865574     1.007825032070
           H         -1.822454706086     1.033225895225     0.967972627207     1.007825032070
           H         -3.439649822334    -0.958307058946    -0.709123266422     1.007825032070
           H         -4.107380384088     0.362429992298     0.231396895348     1.007825032070
           H         -3.328395970003    -0.983175555529     1.041550206414     1.007825032070
           C          2.879011696842    -0.205128753644    -0.219543390179    12.000000000000
           H          3.014203288774     0.588951747010    -0.939684367810     1.007825032070
           H          3.526449405793    -1.035985864768    -0.452876434829     1.007825032070
           H          3.095227367660     0.171914734705     0.769713788365     1.007825032070

  Nuclear repulsion =  312.513856308760694

  ==> Basis Set <==

  Basis Set: 6-31G*
    Number of shells: 62
    Number of basis function: 125
    Number of Cartesian functions: 125
    Spherical Harmonics?: false
    Max angular momentum: 2

  ==> DFJKGrad: Density-Fitted SCF Gradients <==

    Gradient:                    1
    J tasked:                  Yes
    K tasked:                  Yes
    wK tasked:                  No
    OpenMP threads:              4
    Integrals threads:           4
    Memory (MB):              1430
    Schwarz Cutoff:          0E+00
    Fitting Condition:       1E-12

   => Auxiliary Basis Set <=

  Basis Set: 
    Number of shells: 258
    Number of basis function: 817
    Number of Cartesian functions: 817
    Spherical Harmonics?: false
    Max angular momentum: 3


  -Total Gradient:
     Atom            X                  Y                   Z
    ------   -----------------  -----------------  -----------------
       1        0.000961583143    -0.002693012383     0.007323906369
       2       -0.002431466766     0.005064817470    -0.020050414696
       3        0.001230546611    -0.001801703428     0.005412882704
       4        0.000414999454    -0.000580524264     0.005297054006
       5        0.000302890326     0.000058992629     0.000903524684
       6        0.000954245992     0.000270175007     0.000133381055
       7       -0.001604793505    -0.000298770420     0.000282204396
       8        0.000030079388    -0.000028392170    -0.000013016967
       9        0.000178746682    -0.000236658602    -0.000026355656
      10       -0.000176925556     0.000302622167     0.000118481737
      11       -0.000009988259    -0.000034259222    -0.000019344705
      12        0.000010140149     0.000024345211    -0.000025092834
      13        0.000075755403     0.000079436161    -0.000044630162
      14        0.000038556636    -0.000171037423     0.000783491519
      15       -0.000330446594    -0.000009111871    -0.000070167757
      16        0.000029856118     0.000002519444     0.000058029713
      17        0.000326220774     0.000050561696    -0.000063933407


*** tstop() called on cx1-3-1-1.cx1.hpc.ic.ac.uk at Fri Sep  2 12:17:56 2016
Module time:
	user time   =      18.43 seconds =       0.31 minutes
	system time =       0.19 seconds =       0.00 minutes
	total time  =          5 seconds =       0.08 minutes
Total time:
	user time   =      68.67 seconds =       1.14 minutes
	system time =       0.75 seconds =       0.01 minutes
	total time  =         22 seconds =       0.37 minutes
CURRENT ENERGY: -344.9058415551

			-----------------------------------------
			 OPTKING 2.0: for geometry optimizations 
			  - R.A. King,  Bethel University        
			-----------------------------------------

	Previous internal coordinate definitions found.
	---Fragment 1 Geometry and Gradient---
	 O           1.4360433634        2.4091161292        0.5018403598
	 C           1.0830715729        0.2639767386       -0.0644631879
	 C          -1.4429253225       -1.0607703555        0.0013515588
	 O           2.9454763908       -1.3475408997       -0.5349417783
	 C          -3.6760322087        0.7555941700        0.1827546327
	 H          -1.5796549385       -2.2663691358       -1.6520001183
	 H          -1.4095626363       -2.3246013855        1.6220932585
	 C          -6.2003466069       -0.6388286466        0.3187749751
	 H          -3.6608910979        2.0068719220       -1.4427149416
	 H          -3.4439402841        1.9525139754        1.8292031696
	 H          -6.4999961572       -1.8109378926       -1.3400487680
	 H          -7.7618240495        0.6848934278        0.4372767602
	 H          -6.2897568451       -1.8579325405        1.9682446438
	 C           5.4405436404       -0.3876371664       -0.4148768817
	 H           5.6960187246        1.1129575073       -1.7757461065
	 H           6.6640235984       -1.9577295620       -0.8558124339
	 H           5.8491320439        0.3248717668        1.4545482607
	             0.0009615831       -0.0026930124        0.0073239064
	            -0.0024314668        0.0050648175       -0.0200504147
	             0.0012305466       -0.0018017034        0.0054128827
	             0.0004149995       -0.0005805243        0.0052970540
	             0.0003028903        0.0000589926        0.0009035247
	             0.0009542460        0.0002701750        0.0001333811
	            -0.0016047935       -0.0002987704        0.0002822044
	             0.0000300794       -0.0000283922       -0.0000130170
	             0.0001787467       -0.0002366586       -0.0000263557
	            -0.0001769256        0.0003026222        0.0001184817
	            -0.0000099883       -0.0000342592       -0.0000193447
	             0.0000101401        0.0000243452       -0.0000250928
	             0.0000757554        0.0000794362       -0.0000446302
	             0.0000385566       -0.0001710374        0.0007834915
	            -0.0003304466       -0.0000091119       -0.0000701678
	             0.0000298561        0.0000025194        0.0000580297
	             0.0003262208        0.0000505617       -0.0000639334

	---Fragment 1 Intrafragment Coordinates---
	 - Coordinate -           - BOHR/RAD -       - ANG/DEG -
	 R(1,2)           =         2.246533	       1.188814
	 R(2,3)           =         2.853059	       1.509774
	 R(2,4)           =         2.507367	       1.326842
	 R(3,5)           =         2.884242	       1.526275
	 R(3,6)           =         2.050789	       1.085231
	 R(3,7)           =         2.055526	       1.087737
	 R(4,14)          =         2.676040	       1.416100
	 R(5,8)           =         2.887054	       1.527763
	 R(5,9)           =         2.051360	       1.085533
	 R(5,10)          =         2.048726	       1.084139
	 R(8,11)          =         2.053126	       1.086468
	 R(8,12)          =         2.050486	       1.085071
	 R(8,13)          =         2.053036	       1.086420
	 R(14,15)         =         2.041817	       1.080483
	 R(14,16)         =         2.038754	       1.078862
	 R(14,17)         =         2.041902	       1.080528
	 B(1,2,3)         =         2.185432	     125.216008
	 B(1,2,4)         =         2.146353	     122.976944
	 B(2,3,5)         =         1.976350	     113.236536
	 B(2,3,6)         =         1.889562	     108.263908
	 B(2,3,7)         =         1.864299	     106.816469
	 B(2,4,14)        =         2.041574	     116.973580
	 B(3,2,4)         =         1.942846	     111.316862
	 B(3,5,8)         =         1.956015	     112.071432
	 B(3,5,9)         =         1.905599	     109.182786
	 B(3,5,10)        =         1.907898	     109.314496
	 B(4,14,15)       =         1.928771	     110.510452
	 B(4,14,16)       =         1.847908	     105.877322
	 B(4,14,17)       =         1.931373	     110.659500
	 B(5,3,6)         =         1.949052	     111.672441
	 B(5,3,7)         =         1.928557	     110.498157
	 B(5,8,11)        =         1.944730	     111.424816
	 B(5,8,12)        =         1.935590	     110.901137
	 B(5,8,13)        =         1.941996	     111.268202
	 B(6,3,7)         =         1.849706	     105.980337
	 B(8,5,9)         =         1.916011	     109.779349
	 B(8,5,10)        =         1.921295	     110.082083
	 B(9,5,10)        =         1.854172	     106.236210
	 B(11,8,12)       =         1.879788	     107.703908
	 B(11,8,13)       =         1.879451	     107.684621
	 B(12,8,13)       =         1.879416	     107.682607
	 B(15,14,16)      =         1.924903	     110.288807
	 B(15,14,17)      =         1.905738	     109.190748
	 B(16,14,17)      =         1.924799	     110.282836
	 D(1,2,3,5)       =         0.272333	      15.603514
	*D(1,2,3,6)       =         2.443461	     140.000025
	 D(1,2,3,7)       =        -1.854565	    -106.258768
	 D(1,2,4,14)      =        -0.033967	      -1.946187
	 D(2,3,5,8)       =        -3.114299	    -178.436187
	 D(2,3,5,9)       =         1.042209	      59.714171
	 D(2,3,5,10)      =        -0.979317	     -56.110727
	 D(2,4,14,15)     =        -1.052837	     -60.323139
	 D(2,4,14,16)     =        -3.137225	    -179.749774
	 D(2,4,14,17)     =         1.060295	      60.750421
	 D(3,2,4,14)      =        -3.041918	    -174.289089
	 D(3,5,8,11)      =        -1.042833	     -59.749946
	 D(3,5,8,12)      =        -3.136688	    -179.718985
	 D(3,5,8,13)      =         1.054931	      60.443077
	 D(4,2,3,5)       =        -3.006507	    -172.260176
	 D(4,2,3,6)       =        -0.835379	     -47.863665
	 D(4,2,3,7)       =         1.149780	      65.877542
	 D(6,3,5,8)       =         1.030472	      59.041689
	 D(6,3,5,9)       =        -1.096206	     -62.807953
	 D(6,3,5,10)      =        -3.117731	    -178.632851
	 D(7,3,5,8)       =        -1.023777	     -58.658086
	 D(7,3,5,9)       =         3.132731	     179.492272
	 D(7,3,5,10)      =         1.111205	      63.667374
	 D(9,5,8,11)      =         1.077876	      61.757719
	 D(9,5,8,12)      =        -1.015979	     -58.211320
	 D(9,5,8,13)      =        -3.107546	    -178.049259
	 D(10,5,8,11)     =         3.113014	     178.362573
	 D(10,5,8,12)     =         1.019159	      58.393534
	 D(10,5,8,13)     =        -1.072407	     -61.444405

	Current energy   :      -344.9058415551

	Energy change for the previous step:
		Projected    :        -0.0010854372
		Actual       :         0.0007265605

	Performing BFGS update.
	Previous computed or guess Hessian on step 1.
	Steps to be used in Hessian update: 1
	Taking RFO optimization step.
	Going to follow RFO solution 1.
	Using RFO vector 1.
	Norm of target step-size    0.20216
	Projected energy change by RFO approximation:        -0.0017755877

	Back-transformation to cartesian coordinates...
	Successfully converged to displaced geometry.

	Back-transformation to cartesian coordinates to adjust frozen coordinates...
	Successfully converged to displaced geometry.

	--- Internal Coordinate Step in ANG or DEG, aJ/ANG or AJ/DEG ---
	 ---------------------------------------------------------------------------
	   Coordinate                Previous        Force       Change         New 
	   ----------                --------       ------       ------       ------
	    1 R(1,2)          =      1.188814     0.004731     0.000094     1.188909
	    2 R(2,3)          =      1.509774    -0.000417     0.000152     1.509926
	    3 R(2,4)          =      1.326842     0.002603     0.000050     1.326892
	    4 R(3,5)          =      1.526275     0.001295     0.000223     1.526499
	    5 R(3,6)          =      1.085231     0.002719    -0.000335     1.084896
	    6 R(3,7)          =      1.087737    -0.003132     0.000183     1.087921
	    7 R(4,14)         =      1.416100    -0.000379     0.000000     1.416100
	    8 R(5,8)          =      1.527763     0.000967    -0.000000     1.527763
	    9 R(5,9)          =      1.085533     0.001006     0.000300     1.085833
	   10 R(5,10)         =      1.084139    -0.002076    -0.000267     1.083872
	   11 R(8,11)         =      1.086468    -0.000302    -0.000019     1.086448
	   12 R(8,12)         =      1.085071    -0.000054    -0.000006     1.085065
	   13 R(8,13)         =      1.086420     0.000711     0.000008     1.086428
	   14 R(14,15)        =      1.080483     0.000010    -0.000013     1.080470
	   15 R(14,16)        =      1.078862    -0.000028     0.000010     1.078872
	   16 R(14,17)        =      1.080528    -0.000201    -0.000004     1.080524
	   17 B(1,2,3)        =    125.216008     0.000042     0.126643   125.342650
	   18 B(1,2,4)        =    122.976944     0.000023     0.143362   123.120305
	   19 B(2,3,5)        =    113.236536     0.000111     0.094373   113.330909
	   20 B(2,3,6)        =    108.263908     0.000002     0.402353   108.666261
	   21 B(2,3,7)        =    106.816469    -0.000173    -0.550522   106.265947
	   22 B(2,4,14)       =    116.973580     0.000011     0.002560   116.976140
	   23 B(3,2,4)        =    111.316862    -0.000015     0.205077   111.521939
	   24 B(3,5,8)        =    112.071432     0.000004     0.010989   112.082422
	   25 B(3,5,9)        =    109.182786     0.000019     0.023680   109.206466
	   26 B(3,5,10)       =    109.314496    -0.000022    -0.039183   109.275314
	   27 B(4,14,15)      =    110.510452     0.000048     0.033428   110.543880
	   28 B(4,14,16)      =    105.877322    -0.000004    -0.001926   105.875396
	   29 B(4,14,17)      =    110.659500    -0.000046    -0.034553   110.624947
	   30 B(5,3,6)        =    111.672441     0.000032     0.384575   112.057016
	   31 B(5,3,7)        =    110.498157     0.000093    -0.134418   110.363739
	   32 B(5,8,11)       =    111.424816    -0.000003     0.014629   111.439445
	   33 B(5,8,12)       =    110.901137     0.000001     0.003557   110.904693
	   34 B(5,8,13)       =    111.268202     0.000009    -0.020599   111.247603
	   35 B(6,3,7)        =    105.980337    -0.000086    -0.258485   105.721851
	   36 B(8,5,9)        =    109.779349    -0.000010    -0.047145   109.732204
	   37 B(8,5,10)       =    110.082083     0.000008     0.035078   110.117161
	   38 B(9,5,10)       =    106.236210     0.000000     0.016812   106.253022
	   39 B(11,8,12)      =    107.703908    -0.000000     0.004740   107.708649
	   40 B(11,8,13)      =    107.684621    -0.000003     0.001496   107.686117
	   41 B(12,8,13)      =    107.682607    -0.000005    -0.003704   107.678903
	   42 B(15,14,16)     =    110.288807    -0.000010    -0.004099   110.284708
	   43 B(15,14,17)     =    109.190748     0.000000    -0.000731   109.190017
	   44 B(16,14,17)     =    110.282836     0.000012     0.007918   110.290755
	   45 D(1,2,3,5)      =     15.603514    -0.000027    -0.870143    14.733371
	   46 *D(1,2,3,6)     =    140.000025    -0.000000     0.000000   140.000025
	   47 D(1,2,3,7)      =   -106.258768    -0.000042    -0.381208  -106.639975
	   48 D(1,2,4,14)     =     -1.946187     0.000039     3.407905     1.461718
	   49 D(2,3,5,8)      =   -178.436187     0.000015     0.678966  -177.757221
	   50 D(2,3,5,9)      =     59.714171     0.000014     0.714947    60.429118
	   51 D(2,3,5,10)     =    -56.110727     0.000014     0.703423   -55.407303
	   52 D(2,4,14,15)    =    -60.323139     0.000000     0.005938   -60.317201
	   53 D(2,4,14,16)    =   -179.749774    -0.000002    -0.006003  -179.755776
	   54 D(2,4,14,17)    =     60.750421     0.000001     0.004314    60.754735
	   55 D(3,2,4,14)     =   -174.289089    -0.000052    -2.903054  -177.192143
	   56 D(3,5,8,11)     =    -59.749946    -0.000003    -0.000689   -59.750634
	   57 D(3,5,8,12)     =   -179.718985    -0.000003    -0.018842  -179.737827
	   58 D(3,5,8,13)     =     60.443077    -0.000003    -0.002880    60.440197
	   59 D(4,2,3,5)      =   -172.260176     0.000066     5.611396  -166.648780
	   60 D(4,2,3,6)      =    -47.863665     0.000093     6.481539   -41.382127
	   61 D(4,2,3,7)      =     65.877542     0.000051     6.100331    71.977873
	   62 D(6,3,5,8)      =     59.041689    -0.000010    -0.223553    58.818136
	   63 D(6,3,5,9)      =    -62.807953    -0.000011    -0.187571   -62.995524
	   64 D(6,3,5,10)     =   -178.632851    -0.000011    -0.199095  -178.831946
	   65 D(7,3,5,8)      =    -58.658086    -0.000004    -0.056217   -58.714303
	   66 D(7,3,5,9)      =    179.492272    -0.000005    -0.020235   179.472037
	   67 D(7,3,5,10)     =     63.667374    -0.000004    -0.031759    63.635615
	   68 D(9,5,8,11)     =     61.757719     0.000001     0.003942    61.761661
	   69 D(9,5,8,12)     =    -58.211320     0.000002    -0.014211   -58.225532
	   70 D(9,5,8,13)     =   -178.049259     0.000001     0.001751  -178.047508
	   71 D(10,5,8,11)    =    178.362573     0.000001     0.017111   178.379684
	   72 D(10,5,8,12)    =     58.393534     0.000001    -0.001043    58.392491
	   73 D(10,5,8,13)    =    -61.444405     0.000001     0.014919   -61.429485
	 ---------------------------------------------------------------------------

  ==> Convergence Check <==

  Measures of convergence in internal coordinates in au.
  Criteria marked as inactive (o), active & met (*), and active & unmet ( ).
  ---------------------------------------------------------------------------------------------
   Step     Total Energy     Delta E     MAX Force     RMS Force      MAX Disp      RMS Disp   
  ---------------------------------------------------------------------------------------------
    Convergence Criteria    1.00e-06 *    3.00e-04 *             o    1.20e-03 *             o
  ---------------------------------------------------------------------------------------------
      2    -344.90584156    7.27e-04      5.32e-03      1.10e-03 o    1.13e-01      2.37e-02 o  ~
  ---------------------------------------------------------------------------------------------

	Writing optimization data to binary file.
	Structure for next step:
	Cartesian Geometry (in Angstrom)
	    O     0.7644137905   1.2620444162   0.3294696283
	    C     0.5791135214   0.1219665769   0.0477076681
	    C    -0.7629947000  -0.5698497698   0.0440798545
	    O     1.5577367401  -0.7124033448  -0.2790415034
	    C    -1.9422754547   0.3981966487   0.0928828947
	    H    -0.8118462912  -1.2284056446  -0.8166855404
	    H    -0.7721039235  -1.2218180649   0.9149564280
	    C    -3.2831905542  -0.3321822959   0.1434031414
	    H    -1.9097493903   1.0450368945  -0.7786516760
	    H    -1.8379134177   1.0460422750   0.9555434969
	    H    -3.4226007636  -0.9671135877  -0.7271120578
	    H    -4.1073112793   0.3730257600   0.1729445138
	    H    -3.3557131167  -0.9615492496   1.0259925588
	    C     2.8766702059  -0.1976020298  -0.2519621180
	    H     2.9762720108   0.6265826420  -0.9434921414
	    H     3.5179874627  -1.0133211661  -0.5473935316
	    H     3.1332489902   0.1397348738   0.7419708434
			--------------------------
			 OPTKING Finished Execution 
			--------------------------

    Structure for next step:
    Molecular point group: c1
    Full point group: C1

    Geometry (in Angstrom), charge = 0, multiplicity = 1:

    O            0.763344042991     1.265384146680     0.312637812709
    C            0.578043787999     0.125306394424     0.030875874023
    C           -0.764064330887    -0.566509899479     0.027248060754
    O            1.556666932009    -0.709063463576    -0.295873272475
    C           -1.943344995592     0.401536445141     0.076051097204
    H           -0.812915918386    -1.225065723954    -0.833517268437
    H           -0.773173553701    -1.218478144717     0.898124567700
    C           -3.284259992663    -0.328842443729     0.126571339998
    H           -1.910818933658     1.048376641525    -0.795483406969
    H           -1.838982966480     1.049382021928     0.938711633501
    H           -3.423670191411    -0.963773687000    -0.743943792700
    H           -4.108380654855     0.376365558310     0.156112710152
    H           -3.356782549604    -0.958209349310     1.009160690016
    C            2.875600297096    -0.194262187854    -0.268793889195
    H            2.975202094387     0.629922421012    -0.960323859755
    H            3.516917504880    -1.009981261925    -0.564225280220
    H            3.132179061800     0.143074689986     0.725138996283

gradient() will perform analytic gradient computation.

*** tstart() called on cx1-3-1-1.cx1.hpc.ic.ac.uk
*** at Fri Sep  2 12:17:57 2016


         ---------------------------------------------------------
                                   SCF
            by Justin Turney, Rob Parrish, and Andy Simmonett
                              RHF Reference
                        4 Threads,   2000 MiB Core
         ---------------------------------------------------------

  ==> Geometry <==

    Molecular point group: c1
    Full point group: C1

    Geometry (in Angstrom), charge = 0, multiplicity = 1:

       Center              X                  Y                   Z               Mass       
    ------------   -----------------  -----------------  -----------------  -----------------
           O          0.763344042991     1.265384146680     0.312637812709    15.994914619560
           C          0.578043787999     0.125306394424     0.030875874023    12.000000000000
           C         -0.764064330887    -0.566509899479     0.027248060754    12.000000000000
           O          1.556666932009    -0.709063463576    -0.295873272475    15.994914619560
           C         -1.943344995592     0.401536445141     0.076051097204    12.000000000000
           H         -0.812915918386    -1.225065723954    -0.833517268437     1.007825032070
           H         -0.773173553701    -1.218478144717     0.898124567700     1.007825032070
           C         -3.284259992663    -0.328842443729     0.126571339998    12.000000000000
           H         -1.910818933658     1.048376641525    -0.795483406969     1.007825032070
           H         -1.838982966480     1.049382021928     0.938711633501     1.007825032070
           H         -3.423670191411    -0.963773687000    -0.743943792700     1.007825032070
           H         -4.108380654855     0.376365558310     0.156112710152     1.007825032070
           H         -3.356782549604    -0.958209349310     1.009160690016     1.007825032070
           C          2.875600297096    -0.194262187854    -0.268793889195    12.000000000000
           H          2.975202094387     0.629922421012    -0.960323859755     1.007825032070
           H          3.516917504880    -1.009981261925    -0.564225280220     1.007825032070
           H          3.132179061800     0.143074689986     0.725138996283     1.007825032070

  Running in c1 symmetry.

  Rotational constants: A =      0.28491  B =      0.04003  C =      0.03612 [cm^-1]
  Rotational constants: A =   8541.29716  B =   1200.21835  C =   1082.80288 [MHz]
  Nuclear repulsion =  312.438455329589829

  Charge       = 0
  Multiplicity = 1
  Electrons    = 56
  Nalpha       = 28
  Nbeta        = 28

  ==> Algorithm <==

  SCF Algorithm Type is DF.
  DIIS enabled.
  MOM disabled.
  Fractional occupation disabled.
  Guess Type is READ.
  Energy threshold   = 1.00e-08
  Density threshold  = 1.00e-08
  Integral threshold = 0.00e+00

  ==> Primary Basis <==

  Basis Set: 6-31G*
    Number of shells: 62
    Number of basis function: 125
    Number of Cartesian functions: 125
    Spherical Harmonics?: false
    Max angular momentum: 2

  ==> Pre-Iterations <==

   -------------------------------------------------------
    Irrep   Nso     Nmo     Nalpha   Nbeta   Ndocc  Nsocc
   -------------------------------------------------------
     A        125     125       0       0       0       0
   -------------------------------------------------------
    Total     125     125      28      28      28       0
   -------------------------------------------------------

 OEINTS: Overlap, kinetic, potential, dipole, and quadrupole integrals
         stored in file 35.

  ==> Integral Setup <==

  ==> DFJK: Density-Fitted J/K Matrices <==

    J tasked:                  Yes
    K tasked:                  Yes
    wK tasked:                  No
    OpenMP threads:              4
    Integrals threads:           4
    Memory (MB):              1430
    Algorithm:                Core
    Integral Cache:           NONE
    Schwarz Cutoff:          1E-12
    Fitting Condition:       1E-12

   => Auxiliary Basis Set <=

  Basis Set: 
    Number of shells: 258
    Number of basis function: 817
    Number of Cartesian functions: 817
    Spherical Harmonics?: false
    Max angular momentum: 3

  Minimum eigenvalue in the overlap matrix is 2.8255690798E-03.
  Using Symmetric Orthogonalization.
  SCF Guess: Reading in previously saved MOs, projecting if necessary.

  Using orbitals from previous SCF, no projection.
  Recomputing DOCC and SOCC from number of alpha and beta electrons from previous calculation.
              A 
    DOCC [    28 ]

  ==> Iterations <==

                           Total Energy        Delta E     RMS |[F,P]|

   @DF-RHF iter   0:  -344.89908318939922   -3.44899e+02   9.56739e-04 
   @DF-RHF iter   1:  -344.90621231498665   -7.12913e-03   1.57692e-04 
   @DF-RHF iter   2:  -344.90658953721311   -3.77222e-04   5.72552e-05 DIIS
   @DF-RHF iter   3:  -344.90664689902576   -5.73618e-05   2.40757e-05 DIIS
   @DF-RHF iter   4:  -344.90665163306551   -4.73404e-06   5.74586e-06 DIIS
   @DF-RHF iter   5:  -344.90665234281664   -7.09751e-07   2.73439e-06 DIIS
   @DF-RHF iter   6:  -344.90665258563388   -2.42817e-07   1.22219e-06 DIIS
   @DF-RHF iter   7:  -344.90665264046834   -5.48345e-08   4.68098e-07 DIIS
   @DF-RHF iter   8:  -344.90665264594725   -5.47891e-09   1.18786e-07 DIIS
   @DF-RHF iter   9:  -344.90665264629104   -3.43789e-10   3.02952e-08 DIIS
   @DF-RHF iter  10:  -344.90665264631377   -2.27374e-11   7.54632e-09 DIIS

  ==> Post-Iterations <==

    Orbital Energies (a.u.)
    -----------------------

    Doubly Occupied:                                                      

       1A    -20.604361     2A    -20.545417     3A    -11.372788  
       4A    -11.281100     5A    -11.236128     6A    -11.222523  
       7A    -11.214755     8A     -1.469765     9A     -1.362970  
      10A     -1.080613    11A     -1.001351    12A     -0.940057  
      13A     -0.827435    14A     -0.767769    15A     -0.700327  
      16A     -0.683151    17A     -0.672295    18A     -0.636940  
      19A     -0.595051    20A     -0.576212    21A     -0.567766  
      22A     -0.527905    23A     -0.522240    24A     -0.498909  
      25A     -0.487013    26A     -0.478671    27A     -0.456510  
      28A     -0.437797  

    Virtual:                                                              

      29A      0.198148    30A      0.230954    31A      0.261328  
      32A      0.284034    33A      0.291711    34A      0.303968  
      35A      0.311268    36A      0.317050    37A      0.327190  
      38A      0.334157    39A      0.342548    40A      0.367453  
      41A      0.402593    42A      0.424429    43A      0.471385  
      44A      0.522823    45A      0.565362    46A      0.723338  
      47A      0.729605    48A      0.741417    49A      0.743675  
      50A      0.769904    51A      0.771536    52A      0.794483  
      53A      0.845704    54A      0.874929    55A      0.899274  
      56A      0.945737    57A      0.965706    58A      1.001861  
      59A      1.058545    60A      1.069941    61A      1.094012  
      62A      1.113881    63A      1.126746    64A      1.136684  
      65A      1.141464    66A      1.168479    67A      1.173657  
      68A      1.204536    69A      1.206642    70A      1.219297  
      71A      1.230595    72A      1.242361    73A      1.261109  
      74A      1.291934    75A      1.329586    76A      1.379932  
      77A      1.406531    78A      1.544748    79A      1.604976  
      80A      1.623586    81A      1.668423    82A      1.726322  
      83A      1.755764    84A      1.801592    85A      1.878478  
      86A      1.881060    87A      1.959898    88A      2.028824  
      89A      2.049765    90A      2.134309    91A      2.140635  
      92A      2.163486    93A      2.215016    94A      2.256908  
      95A      2.278656    96A      2.297610    97A      2.350099  
      98A      2.362462    99A      2.395761   100A      2.429584  
     101A      2.445368   102A      2.498093   103A      2.559967  
     104A      2.655306   105A      2.663782   106A      2.678832  
     107A      2.684301   108A      2.737846   109A      2.802718  
     110A      2.842839   111A      2.901598   112A      2.959370  
     113A      3.046164   114A      3.090562   115A      3.158094  
     116A      3.348692   117A      3.445819   118A      3.573819  
     119A      4.415160   120A      4.552916   121A      4.625499  
     122A      4.679343   123A      4.748650   124A      4.842969  
     125A      4.991540  

    Final Occupation by Irrep:
              A 
    DOCC [    28 ]

  Energy converged.

  @DF-RHF Final Energy:  -344.90665264631377

   => Energetics <=

    Nuclear Repulsion Energy =            312.4384553295898286
    One-Electron Energy =               -1089.1545695581312430
    Two-Electron Energy =                 431.8094615822276410
    DFT Exchange-Correlation Energy =       0.0000000000000000
    Empirical Dispersion Energy =           0.0000000000000000
    PCM Polarization Energy =               0.0000000000000000
    EFP Energy =                            0.0000000000000000
    Total Energy =                       -344.9066526463137734

    Alert: EFP and PCM quantities not currently incorporated into SCF psivars.

Properties will be evaluated at   0.000000,   0.000000,   0.000000 Bohr
  ==> Properties <==


Properties computed using the SCF density matrix

  Nuclear Dipole Moment: (a.u.)
     X:    -6.1766      Y:    -1.9926      Z:    -0.1595

  Electronic Dipole Moment: (a.u.)
     X:     6.2723      Y:     1.3227      Z:     0.0016

  Dipole Moment: (a.u.)
     X:     0.0957      Y:    -0.6699      Z:    -0.1579     Total:     0.6949

  Dipole Moment: (Debye)
     X:     0.2432      Y:    -1.7027      Z:    -0.4014     Total:     1.7662


  Saving occupied orbitals to File 180.

*** tstop() called on cx1-3-1-1.cx1.hpc.ic.ac.uk at Fri Sep  2 12:18:02 2016
Module time:
	user time   =      14.04 seconds =       0.23 minutes
	system time =       0.19 seconds =       0.00 minutes
	total time  =          5 seconds =       0.08 minutes
Total time:
	user time   =      83.31 seconds =       1.39 minutes
	system time =       0.95 seconds =       0.02 minutes
	total time  =         28 seconds =       0.47 minutes

*** tstart() called on cx1-3-1-1.cx1.hpc.ic.ac.uk
*** at Fri Sep  2 12:18:02 2016


         ------------------------------------------------------------
                                   SCF GRAD                          
                          Rob Parrish, Justin Turney,                
                       Andy Simmonett, and Alex Sokolov              
         ------------------------------------------------------------

  ==> Geometry <==

    Molecular point group: c1
    Full point group: C1

    Geometry (in Angstrom), charge = 0, multiplicity = 1:

       Center              X                  Y                   Z               Mass       
    ------------   -----------------  -----------------  -----------------  -----------------
           O          0.763344042991     1.265384146680     0.312637812709    15.994914619560
           C          0.578043787999     0.125306394424     0.030875874023    12.000000000000
           C         -0.764064330887    -0.566509899479     0.027248060754    12.000000000000
           O          1.556666932009    -0.709063463576    -0.295873272475    15.994914619560
           C         -1.943344995592     0.401536445141     0.076051097204    12.000000000000
           H         -0.812915918386    -1.225065723954    -0.833517268437     1.007825032070
           H         -0.773173553701    -1.218478144717     0.898124567700     1.007825032070
           C         -3.284259992663    -0.328842443729     0.126571339998    12.000000000000
           H         -1.910818933658     1.048376641525    -0.795483406969     1.007825032070
           H         -1.838982966480     1.049382021928     0.938711633501     1.007825032070
           H         -3.423670191411    -0.963773687000    -0.743943792700     1.007825032070
           H         -4.108380654855     0.376365558310     0.156112710152     1.007825032070
           H         -3.356782549604    -0.958209349310     1.009160690016     1.007825032070
           C          2.875600297096    -0.194262187854    -0.268793889195    12.000000000000
           H          2.975202094387     0.629922421012    -0.960323859755     1.007825032070
           H          3.516917504880    -1.009981261925    -0.564225280220     1.007825032070
           H          3.132179061800     0.143074689986     0.725138996283     1.007825032070

  Nuclear repulsion =  312.438455329589829

  ==> Basis Set <==

  Basis Set: 6-31G*
    Number of shells: 62
    Number of basis function: 125
[...]

			-----------------------------------------
			 OPTKING 2.0: for geometry optimizations 
			  - R.A. King,  Bethel University        
			-----------------------------------------

	Previous internal coordinate definitions found.
	---Fragment 1 Geometry and Gradient---
	 O           1.4480619801        2.3904963588        0.6092035737
	 C           1.0938995860        0.2368278443        0.0763484268
	 C          -1.4419380532       -1.0688960009        0.0764682504
	 O           2.9370664110       -1.3428458851       -0.5495714879
	 C          -3.6711781063        0.7598105109        0.1443791787
	 H          -1.5260432804       -2.3079278435       -1.5550470616
	 H          -1.4679725667       -2.3052540644        1.7194650972
	 C          -6.2058538928       -0.6212662340        0.2066697747
	 H          -3.5895848789        1.9885763754       -1.4964417431
	 H          -3.4933589529        1.9777695084        1.7815207368
	 H          -6.4500118924       -1.8140123002       -1.4464218888
	 H          -7.7637713886        0.7112171125        0.2494380915
	 H          -6.3629336868       -1.8178297842        1.8677203854
	 C           5.4285672892       -0.3661149212       -0.5399696295
	 H           5.5997254801        1.1742642356       -1.8691775700
	 H           6.6360918110       -1.9133286100       -1.0917381948
	 H           5.9338311905        0.2964897602        1.3241618013
	             0.0000978824       -0.0002099639        0.0006228738
	            -0.0001001260        0.0001936478       -0.0008898966
	            -0.0002486420        0.0005192591       -0.0000412401
	            -0.0000068097        0.0000136632       -0.0000762298
	             0.0000014372        0.0000005463       -0.0000526557
	             0.0002664592       -0.0004581077        0.0003317193
	            -0.0000183570       -0.0000296465        0.0000013488
	             0.0000042815       -0.0000044510        0.0000091049
	             0.0000051289       -0.0000071207        0.0000164432
	            -0.0000039007        0.0000033702        0.0000048894
	             0.0000037370        0.0000020905        0.0000015646
	             0.0000012955        0.0000016025       -0.0000034958
	            -0.0000054769       -0.0000034028        0.0000019290
	            -0.0000002336       -0.0000506597        0.0001564140
	            -0.0000358317        0.0000113609       -0.0000259465
	             0.0000041245        0.0000098170       -0.0000245159
	             0.0000350313        0.0000079947       -0.0000323064

	---Fragment 1 Intrafragment Coordinates---
	 - Coordinate -           - BOHR/RAD -       - ANG/DEG -
	 R(1,2)           =         2.246698	       1.188902
	 R(2,3)           =         2.852260	       1.509351
	 R(2,4)           =         2.506872	       1.326580
	 R(3,5)           =         2.884145	       1.526224
	 R(3,6)           =         2.050394	       1.085022
	 R(3,7)           =         2.056380	       1.088189
	 R(4,14)          =         2.676130	       1.416147
	 R(5,8)           =         2.887185	       1.527832
	 R(5,9)           =         2.051540	       1.085628
	 R(5,10)          =         2.048237	       1.083881
	 R(8,11)          =         2.053039	       1.086421
	 R(8,12)          =         2.050475	       1.085065
	 R(8,13)          =         2.053175	       1.086493
	 R(14,15)         =         2.041778	       1.080462
	 R(14,16)         =         2.038733	       1.078851
	 R(14,17)         =         2.041892	       1.080523
	 B(1,2,3)         =         2.188260	     125.378062
	 B(1,2,4)         =         2.150004	     123.186141
	 B(2,3,5)         =         1.978957	     113.385911
	 B(2,3,6)         =         1.889220	     108.244354
	 B(2,3,7)         =         1.861393	     106.649973
	 B(2,4,14)        =         2.041639	     116.977305
	 B(3,2,4)         =         1.944668	     111.421245
	 B(3,5,8)         =         1.956022	     112.071825
	 B(3,5,9)         =         1.907304	     109.280490
	 B(3,5,10)        =         1.905777	     109.192983
	 B(4,14,15)       =         1.929499	     110.552162
	 B(4,14,16)       =         1.847797	     105.870961
	 B(4,14,17)       =         1.930600	     110.615221
	 B(5,3,6)         =         1.950003	     111.726968
	 B(5,3,7)         =         1.931160	     110.647326
	 B(5,8,11)        =         1.944361	     111.403689
	 B(5,8,12)        =         1.935442	     110.892681
	 B(5,8,13)        =         1.942704	     111.308768
	 B(6,3,7)         =         1.846178	     105.778231
	 B(8,5,9)         =         1.916306	     109.796260
	 B(8,5,10)        =         1.921347	     110.085049
	 B(9,5,10)        =         1.854241	     106.240171
	 B(11,8,12)       =         1.879656	     107.696382
	 B(11,8,13)       =         1.879407	     107.682101
	 B(12,8,13)       =         1.879388	     107.680986
	 B(15,14,16)      =         1.924851	     110.285828
	 B(15,14,17)      =         1.905798	     109.194197
	 B(16,14,17)      =         1.924943	     110.291084
	 D(1,2,3,5)       =         0.269544	      15.443735
	*D(1,2,3,6)       =         2.443461	     140.000025
	 D(1,2,3,7)       =        -1.860224	    -106.582979
	 D(1,2,4,14)      =         0.011484	       0.657984
	 D(2,3,5,8)       =        -3.117715	    -178.631929
	 D(2,3,5,9)       =         1.037230	      59.428875
	 D(2,3,5,10)      =        -0.984148	     -56.387537
	 D(2,4,14,15)     =        -1.056530	     -60.534683
	 D(2,4,14,16)     =        -3.141181	    -179.976433
	 D(2,4,14,17)     =         1.056650	      60.541561
	 D(3,2,4,14)      =        -3.107052	    -178.020993
	 D(3,5,8,11)      =        -1.045678	     -59.912951
	 D(3,5,8,12)      =        -3.139022	    -179.852703
	 D(3,5,8,13)      =         1.052261	      60.290128
	 D(4,2,3,5)       =        -2.895714	    -165.912205
	 D(4,2,3,6)       =        -0.721797	     -41.355915
	 D(4,2,3,7)       =         1.257703	      72.061081
	 D(6,3,5,8)       =         1.024828	      58.718332
	 D(6,3,5,9)       =        -1.103412	     -63.220865
	 D(6,3,5,10)      =        -3.124790	    -179.037277
	 D(7,3,5,8)       =        -1.027300	     -58.859976
	 D(7,3,5,9)       =         3.127644	     179.200828
	 D(7,3,5,10)      =         1.106267	      63.384416
	 D(9,5,8,11)      =         1.077408	      61.730945
	 D(9,5,8,12)      =        -1.015935	     -58.208807
	 D(9,5,8,13)      =        -3.107838	    -178.065976
	 D(10,5,8,11)     =         3.112835	     178.352313
	 D(10,5,8,12)     =         1.019492	      58.412561
	 D(10,5,8,13)     =        -1.072411	     -61.444608

	Current energy   :      -344.9066761954

	Energy change for the previous step:
		Projected    :        -0.0000052299
		Actual       :        -0.0000003257
	Energy ratio indicates iffy step: Trust radius decreased to 3.125e-02.


	Performing BFGS update.
	Previous computed or guess Hessian on step 1.
	Steps to be used in Hessian update: 4 3
	Taking RFO optimization step.
	Going to follow RFO solution 1.
	Using RFO vector 1.
	Norm of target step-size    0.00572
	Projected energy change by RFO approximation:         0.0000003162

	Back-transformation to cartesian coordinates...
	Successfully converged to displaced geometry.

	Back-transformation to cartesian coordinates to adjust frozen coordinates...
	Successfully converged to displaced geometry.

	--- Internal Coordinate Step in ANG or DEG, aJ/ANG or AJ/DEG ---
	 ---------------------------------------------------------------------------
	   Coordinate                Previous        Force       Change         New 
	   ----------                --------       ------       ------       ------
	    1 R(1,2)          =      1.188902     0.000314     0.000012     1.188914
	    2 R(2,3)          =      1.509351     0.000135     0.000020     1.509371
	    3 R(2,4)          =      1.326580    -0.000023    -0.000005     1.326575
	    4 R(3,5)          =      1.526224     0.000084     0.000015     1.526238
	    5 R(3,6)          =      1.085022    -0.000016    -0.000008     1.085014
	    6 R(3,7)          =      1.088189    -0.000158    -0.000014     1.088176
	    7 R(4,14)         =      1.416147     0.000039     0.000005     1.416152
	    8 R(5,8)          =      1.527832     0.000010    -0.000000     1.527832
	    9 R(5,9)          =      1.085628     0.000142     0.000019     1.085647
	   10 R(5,10)         =      1.083881    -0.000046    -0.000007     1.083873
	   11 R(8,11)         =      1.086421     0.000024     0.000003     1.086424
	   12 R(8,12)         =      1.085065     0.000000     0.000000     1.085065
	   13 R(8,13)         =      1.086493    -0.000033    -0.000004     1.086489
	   14 R(14,15)        =      1.080462    -0.000185    -0.000019     1.080443
	   15 R(14,16)        =      1.078851    -0.000013    -0.000001     1.078850
	   16 R(14,17)        =      1.080523     0.000150     0.000015     1.080538
	   17 B(1,2,3)        =    125.378062    -0.000002    -0.004470   125.373593
	   18 B(1,2,4)        =    123.186141     0.000001     0.000393   123.186533
	   19 B(2,3,5)        =    113.385911    -0.000001    -0.002335   113.383576
	   20 B(2,3,6)        =    108.244354     0.000003     0.023869   108.268223
	   21 B(2,3,7)        =    106.649973    -0.000002    -0.022358   106.627615
	   22 B(2,4,14)       =    116.977305     0.000001     0.001536   116.978840
	   23 B(3,2,4)        =    111.421245     0.000001     0.003855   111.425100
	   24 B(3,5,8)        =    112.071825     0.000000     0.001073   112.072898
	   25 B(3,5,9)        =    109.280490     0.000000     0.000075   109.280565
	   26 B(3,5,10)       =    109.192983    -0.000000    -0.000636   109.192346
	   27 B(4,14,15)      =    110.552162     0.000007     0.019749   110.571911
	   28 B(4,14,16)      =    105.870961    -0.000001    -0.002177   105.868784
	   29 B(4,14,17)      =    110.615221    -0.000007    -0.020413   110.594808
	   30 B(5,3,6)        =    111.726968    -0.000000     0.013352   111.740319
	   31 B(5,3,7)        =    110.647326     0.000000    -0.012829   110.634497
	   32 B(5,8,11)       =    111.403689     0.000000     0.001965   111.405655
	   33 B(5,8,12)       =    110.892681     0.000000     0.001009   110.893690
	   34 B(5,8,13)       =    111.308768    -0.000001    -0.003138   111.305630
	   35 B(6,3,7)        =    105.778231     0.000000    -0.000634   105.777597
	   36 B(8,5,9)        =    109.796260    -0.000001    -0.003101   109.793159
	   37 B(8,5,10)       =    110.085049     0.000000     0.001728   110.086777
	   38 B(9,5,10)       =    106.240171     0.000000     0.000848   106.241018
	   39 B(11,8,12)      =    107.696382    -0.000000     0.000585   107.696967
	   40 B(11,8,13)      =    107.682101     0.000000     0.000085   107.682186
	   41 B(12,8,13)      =    107.680986     0.000000    -0.000496   107.680490
	   42 B(15,14,16)     =    110.285828     0.000001     0.005319   110.291147
	   43 B(15,14,17)     =    109.194197     0.000000     0.000919   109.195117
	   44 B(16,14,17)     =    110.291084     0.000000    -0.003456   110.287628
	   45 D(1,2,3,5)      =     15.443735    -0.000000    -0.033610    15.410124
	   46 *D(1,2,3,6)     =    140.000025    -0.000000     0.000000   140.000025
	   47 D(1,2,3,7)      =   -106.582979     0.000000    -0.000478  -106.583457
	   48 D(1,2,4,14)     =      0.657984    -0.000000    -0.056860     0.601124
	   49 D(2,3,5,8)      =   -178.631929     0.000000     0.044482  -178.587447
	   50 D(2,3,5,9)      =     59.428875     0.000000     0.047647    59.476522
	   51 D(2,3,5,10)     =    -56.387537     0.000000     0.046946   -56.340592
	   52 D(2,4,14,15)    =    -60.534683     0.000000    -0.160895   -60.695577
	   53 D(2,4,14,16)    =   -179.976433    -0.000001    -0.176599  -180.153032
	   54 D(2,4,14,17)    =     60.541561     0.000000    -0.160170    60.381391
	   55 D(3,2,4,14)     =   -178.020993    -0.000000    -0.046774  -178.067768
	   56 D(3,5,8,11)     =    -59.912951    -0.000000    -0.025769   -59.938721
	   57 D(3,5,8,12)     =   -179.852703    -0.000000    -0.028496  -179.881199
	   58 D(3,5,8,13)     =     60.290128    -0.000000    -0.026461    60.263667
	   59 D(4,2,3,5)      =   -165.912205    -0.000000    -0.043881  -165.956086
	   60 D(4,2,3,6)      =    -41.355915    -0.000000    -0.010271   -41.366186
	   61 D(4,2,3,7)      =     72.061081     0.000000    -0.010749    72.050332
	   62 D(6,3,5,8)      =     58.718332    -0.000000     0.004382    58.722714
	   63 D(6,3,5,9)      =    -63.220865    -0.000000     0.007547   -63.213318
	   64 D(6,3,5,10)     =   -179.037277    -0.000000     0.006845  -179.030431
	   65 D(7,3,5,8)      =    -58.859976    -0.000000     0.005013   -58.854963
	   66 D(7,3,5,9)      =    179.200828    -0.000000     0.008178   179.209006
	   67 D(7,3,5,10)     =     63.384416    -0.000000     0.007476    63.391892
	   68 D(9,5,8,11)     =     61.730945     0.000000    -0.027117    61.703828
	   69 D(9,5,8,12)     =    -58.208807    -0.000000    -0.029844   -58.238651
	   70 D(9,5,8,13)     =   -178.065976     0.000000    -0.027809  -178.093785
	   71 D(10,5,8,11)    =    178.352313     0.000000    -0.026902   178.325411
	   72 D(10,5,8,12)    =     58.412561    -0.000000    -0.029629    58.382932
	   73 D(10,5,8,13)    =    -61.444608     0.000000    -0.027594   -61.472202
	 ---------------------------------------------------------------------------

  ==> Convergence Check <==

  Measures of convergence in internal coordinates in au.
  Criteria marked as inactive (o), active & met (*), and active & unmet ( ).
  ---------------------------------------------------------------------------------------------
   Step     Total Energy     Delta E     MAX Force     RMS Force      MAX Disp      RMS Disp   
  ---------------------------------------------------------------------------------------------
    Convergence Criteria    1.00e-06 *    3.00e-04 *             o    1.20e-03 *             o
  ---------------------------------------------------------------------------------------------
      5    -344.90667620   -3.26e-07 *    8.84e-05 *    1.98e-05 o    3.08e-03      6.70e-04 o  ~
  ---------------------------------------------------------------------------------------------


  **** Optimization is complete! (in 5 steps) ****

  ==> Optimization Summary <==

  Measures of convergence in internal coordinates in au.
  --------------------------------------------------------------------------------------------------------------- ~
   Step         Total Energy             Delta E       MAX Force       RMS Force        MAX Disp        RMS Disp  ~
  --------------------------------------------------------------------------------------------------------------- ~
      1    -344.906568115529   -344.906568115529      0.00132689      0.00038843      0.15661223      0.03225117  ~
      2    -344.905841555059      0.000726560470      0.00532477      0.00110456      0.11312419      0.02365122  ~
      3    -344.906652646314     -0.000811091255      0.00056660      0.00020647      0.01752273      0.00569039  ~
      4    -344.906675869705     -0.000023223391      0.00014171      0.00003797      0.00783211      0.00168119  ~
      5    -344.906676195413     -0.000000325708      0.00008837      0.00001980      0.00308223      0.00066961  ~
  --------------------------------------------------------------------------------------------------------------- ~

	Writing optimization data to binary file.
	Final energy is   -344.9066761954130
	Final (previous) structure:
	Cartesian Geometry (in Angstrom)
	    O     0.7662814550   1.2649962869   0.3223766712
	    C     0.5788667736   0.1253239072   0.0404018505
	    C    -0.7630408122  -0.5656354452   0.0404652584
	    O     1.5542287235  -0.7106034913  -0.2908207281
	    C    -1.9427039309   0.4020744359   0.0764021766
	    H    -0.8075473850  -1.2213029071  -0.8228955261
	    H    -0.7768176844  -1.2198880041   0.9099018099
	    C    -3.2839966907  -0.3287599566   0.1093649428
	    H    -1.8995266513   1.0523093758  -0.7918829249
	    H    -1.8486060805   1.0465906276   0.9427402425
	    H    -3.4131995493  -0.9599340387  -0.7654135560
	    H    -4.1084111853   0.3763599150   0.1319969631
	    H    -3.3671197439  -0.9619541643   0.9883551354
	    C     2.8726743041  -0.1937396868  -0.2857396431
	    H     2.9632473247   0.6213939178  -0.9891262444
	    H     3.5116688087  -1.0124899703  -0.5777230145
	    H     3.1400484654   0.1568956356   0.7007162992
	Saving final (previous) structure.
			--------------------------
			 OPTKING Finished Execution 
			--------------------------

    Final optimized geometry and variables:
    Molecular point group: c1
    Full point group: C1

    Geometry (in Angstrom), charge = 0, multiplicity = 1:

    O            0.766281396497     1.264996190293     0.322376646602
    C            0.578866729392     0.125323897582     0.040401847380
    C           -0.763040753976    -0.565635402038     0.040465255293
    O            1.554228604824    -0.710603437044    -0.290820705905
    C           -1.942703782506     0.402074405222     0.076402170752
    H           -0.807547323327    -1.221302813861    -0.822895463305
    H           -0.776817625120    -1.219887910907     0.909901740406
    C           -3.283996439921    -0.328759931514     0.109364934487
    H           -1.899526506210     1.052309295418    -0.791882864448
    H           -1.848605939305     1.046590547702     0.942740170536
    H           -3.413199288612    -0.959933965355    -0.765413497536
    H           -4.108410871571     0.376359886295     0.131996952971
    H           -3.367119486804    -0.961954090883     0.988355059951
    C            2.872674084733    -0.193739672014    -0.285739621242
    H            2.963247098440     0.621393870342    -0.989126168867
    H            3.511668540493    -1.012489892944    -0.577722970414
    H            3.140048225613     0.156895623666     0.700716245708

	Cleaning optimization helper files.


Properties will be evaluated at   0.000000,   0.000000,   0.000000 Bohr

Properties computed using the  density matrix

  Nuclear Dipole Moment: (a.u.)
     X:    -6.1820      Y:    -1.9867      Z:    -0.2561

  Electronic Dipole Moment: (a.u.)
     X:     6.2773      Y:     1.3181      Z:     0.0865

  Dipole Moment: (a.u.)
     X:     0.0952      Y:    -0.6685      Z:    -0.1696     Total:     0.6963

  Dipole Moment: (Debye)
     X:     0.2421      Y:    -1.6993      Z:    -0.4311     Total:     1.7697

  Quadrupole Moment: (Debye Ang)
    XX:   -36.6079     YY:   -48.1939     ZZ:   -42.3817
    XY:    -1.0453     XZ:    -0.8233     YZ:    -1.6068

  Traceless Quadrupole Moment: (Debye Ang)
    XX:     5.7866     YY:    -5.7994     ZZ:     0.0128
    XY:    -1.0453     XZ:    -0.8233     YZ:    -1.6068

  Mulliken Charges: (a.u.)
   Center  Symbol    Alpha    Beta     Spin     Total
       1     O     4.28607  4.28607  0.00000 -0.57213
       2     C     2.60547  2.60547  0.00000  0.78906
       3     C     3.20660  3.20660  0.00000 -0.41319
       4     O     4.30683  4.30683  0.00000 -0.61367
       5     C     3.15297  3.15297  0.00000 -0.30595
       6     H     0.40116  0.40116  0.00000  0.19768
       7     H     0.40061  0.40061  0.00000  0.19879
       8     C     3.24264  3.24264  0.00000 -0.48528
       9     H     0.41413  0.41413  0.00000  0.17174
      10     H     0.40713  0.40713  0.00000  0.18575
      11     H     0.42128  0.42128  0.00000  0.15744
      12     H     0.41512  0.41512  0.00000  0.16977
      13     H     0.42112  0.42112  0.00000  0.15776
      14     C     3.09271  3.09271  0.00000 -0.18541
      15     H     0.40864  0.40864  0.00000  0.18272
      16     H     0.40835  0.40835  0.00000  0.18330
      17     H     0.40919  0.40919  0.00000  0.18162

   Total alpha = 28.00000, Total beta = 28.00000, Total charge =  0.00000


*** PSI4 exiting successfully. Buy a developer a beer!
