    -----------------------------------------------------------------------
          Psi4: An Open-Source Ab Initio Electronic Structure Package
                              Psi4 (no tag) Driver

                          Git: Rev {detached?}  

    J. M. Turney, A. C. Simmonett, R. M. Parrish, E. G. Hohenstein,
    F. A. Evangelista, J. T. Fermann, B. J. Mintz, L. A. Burns, J. J. Wilke,
    M. L. Abrams, N. J. Russ, M. L. Leininger, C. L. Janssen, E. T. Seidl,
    W. D. Allen, H. F. Schaefer, R. A. King, E. F. Valeev, C. D. Sherrill,
    and T. D. Crawford, WIREs Comput. Mol. Sci. 2, 556-565 (2012)
    (doi: 10.1002/wcms.93)

                         Additional Contributions by
    A. E. DePrince, M. Saitow, U. Bozkaya, A. Yu. Sokolov
    -----------------------------------------------------------------------


    Psi4 started on: Fri Sep  9 20:39:17 2016

    Process ID:  25062
    PSI4DATADIR: /export131/home/mjharvey/miniconda3/share
    Memory level set to 256.000 MB

  ==> Input File <==

--------------------------------------------------------------------------
set {
	reference rhf
	basis cc-pvtz
}


set_num_threads( 4 )
memory 2 gb

molecule MOL {
0 1

H	 -0.366580	 2.045936	 -0.305741
C	 0.351829	 1.335402	 0.083179
N	 -0.000018	 0.000080	 -0.334836
H	 1.327156	 1.599860	 -0.305475
H	 0.380566	 1.445403	 1.171445
C	 0.931321	 -0.525111	 -1.303939
C	 -0.169916	 -0.890119	 0.788071
H	 0.599423	 -1.496952	 -1.646666
H	 0.981722	 0.132529	 -2.162517
H	 1.943306	 -0.635578	 -0.902998
H	 -0.924664	 -0.499492	 1.458853
H	 -0.500409	 -1.861665	 0.443110
H	 0.751392	 -1.030365	 1.361336

	symmetry c1
}
set optking {
	frozen_dihedral = ("
		6 3 2 1
	")
}

ee = optimize('scf')
oeprop('DIPOLE', 'QUADRUPOLE', 'MULLIKEN_CHARGES')
f=open( 'psi4out.xyz', 'w' )
f.write( "13  " )
f.write( str(ee) + "\n" )
f.write( MOL.save_string_xyz() )
f.close()
--------------------------------------------------------------------------

  Memory set to   2.000 GiB by Python script.
gradient() will perform analytic gradient computation.

*** tstart() called on cx1-27-1-2
*** at Fri Sep  9 20:39:18 2016


         ---------------------------------------------------------
                                   SCF
            by Justin Turney, Rob Parrish, and Andy Simmonett
                              RHF Reference
                        4 Threads,   2000 MiB Core
         ---------------------------------------------------------

  ==> Geometry <==

    Molecular point group: c1
    Full point group: C1

    Geometry (in Angstrom), charge = 0, multiplicity = 1:

       Center              X                  Y                   Z               Mass       
    ------------   -----------------  -----------------  -----------------  -----------------
           H         -0.664230723265     2.067256724421    -0.123313885395     1.007825032070
           C          0.054178276735     1.356722724421     0.265606114605    12.000000000000
           N         -0.297668723265     0.021400724421    -0.152408885395    14.003074004780
           H          1.029505276735     1.621180724421    -0.123047885395     1.007825032070
           H          0.082915276735     1.466723724421     1.353872114605     1.007825032070
           C          0.633670276735    -0.503790275579    -1.121511885395    12.000000000000
           C         -0.467566723265    -0.868798275579     0.970498114605    12.000000000000
           H          0.301772276735    -1.475631275579    -1.464238885395     1.007825032070
           H          0.684071276735     0.153849724421    -1.980089885395     1.007825032070
           H          1.645655276735    -0.614257275579    -0.720570885395     1.007825032070
           H         -1.222314723265    -0.478171275579     1.641280114605     1.007825032070
           H         -0.798059723265    -1.840344275579     0.625537114605     1.007825032070
           H          0.453741276735    -1.009044275579     1.543763114605     1.007825032070

  Running in c1 symmetry.

  Rotational constants: A =      0.29433  B =      0.29420  C =      0.16598 [cm^-1]
  Rotational constants: A =   8823.90617  B =   8819.95855  C =   4975.99809 [MHz]
  Nuclear repulsion =  139.520539812607865

  Charge       = 0
  Multiplicity = 1
  Electrons    = 34
  Nalpha       = 17
  Nbeta        = 17

  ==> Algorithm <==

  SCF Algorithm Type is DF.
  DIIS enabled.
  MOM disabled.
  Fractional occupation disabled.
  Guess Type is CORE.
  Energy threshold   = 1.00e-08
  Density threshold  = 1.00e-08
  Integral threshold = 0.00e+00

  ==> Primary Basis <==

  Basis Set: CC-PVTZ
    Number of shells: 94
    Number of basis function: 246
    Number of Cartesian functions: 275
    Spherical Harmonics?: true
    Max angular momentum: 3

  ==> Pre-Iterations <==

   -------------------------------------------------------
    Irrep   Nso     Nmo     Nalpha   Nbeta   Ndocc  Nsocc
   -------------------------------------------------------
     A        246     246       0       0       0       0
   -------------------------------------------------------
    Total     246     246      17      17      17       0
   -------------------------------------------------------

 OEINTS: Overlap, kinetic, potential, dipole, and quadrupole integrals
         stored in file 35.

  ==> Integral Setup <==

  ==> DFJK: Density-Fitted J/K Matrices <==

    J tasked:                  Yes
    K tasked:                  Yes
    wK tasked:                  No
    OpenMP threads:              4
    Integrals threads:           4
    Memory (MB):              1430
    Algorithm:                Core
    Integral Cache:           NONE
    Schwarz Cutoff:          1E-12
    Fitting Condition:       1E-12

   => Auxiliary Basis Set <=

  Basis Set: 
    Number of shells: 190
    Number of basis function: 586
    Number of Cartesian functions: 699
    Spherical Harmonics?: true
    Max angular momentum: 4

  Minimum eigenvalue in the overlap matrix is 9.8822084860E-04.
  Using Symmetric Orthogonalization.
  SCF Guess: Core (One-Electron) Hamiltonian.

  ==> Iterations <==

                           Total Energy        Delta E     RMS |[F,P]|

   @DF-RHF iter   1:  -121.93917940099215   -1.21939e+02   4.45549e-02 
   @DF-RHF iter   2:  -137.90902667344170   -1.59698e+01   2.00795e-02 DIIS
   @DF-RHF iter   3:  -157.87276905925950   -1.99637e+01   2.41238e-02 DIIS
   @DF-RHF iter   4:  -169.25920560107312   -1.13864e+01   1.17038e-02 DIIS
   @DF-RHF iter   5:  -172.60460093578644   -3.34540e+00   4.89994e-03 DIIS
   @DF-RHF iter   6:  -173.29706751454131   -6.92467e-01   1.02085e-03 DIIS
   @DF-RHF iter   7:  -173.32569518444876   -2.86277e-02   1.56551e-04 DIIS
   @DF-RHF iter   8:  -173.32687081590922   -1.17563e-03   2.53021e-05 DIIS
   @DF-RHF iter   9:  -173.32691348100167   -4.26651e-05   7.47202e-06 DIIS
   @DF-RHF iter  10:  -173.32691691804985   -3.43705e-06   2.04645e-06 DIIS
   @DF-RHF iter  11:  -173.32691721703719   -2.98987e-07   5.73476e-07 DIIS
   @DF-RHF iter  12:  -173.32691723801872   -2.09815e-08   1.85804e-07 DIIS
   @DF-RHF iter  13:  -173.32691724034549   -2.32677e-09   4.43117e-08 DIIS
   @DF-RHF iter  14:  -173.32691724054638   -2.00885e-10   7.74018e-09 DIIS

  ==> Post-Iterations <==

    Orbital Energies (a.u.)
    -----------------------

    Doubly Occupied:                                                      

       1A    -15.535807     2A    -11.234279     3A    -11.233675  
       4A    -11.232377     5A     -1.226181     6A     -0.952452  
       7A     -0.951203     8A     -0.807122     9A     -0.641463  
      10A     -0.629771    11A     -0.629137    12A     -0.550933  
      13A     -0.548762    14A     -0.513930    15A     -0.500646  
      16A     -0.497416    17A     -0.345435  

    Virtual:                                                              

      18A      0.138224    19A      0.180043    20A      0.182430  
      21A      0.207622    22A      0.214789    23A      0.224140  
      24A      0.228237    25A      0.238620    26A      0.258307  
      27A      0.271824    28A      0.331290    29A      0.349399  
      30A      0.385983    31A      0.400042    32A      0.422237  
      33A      0.447768    34A      0.500384    35A      0.528193  
      36A      0.528879    37A      0.572656    38A      0.587105  
      39A      0.604405    40A      0.612998    41A      0.626631  
      42A      0.626693    43A      0.645281    44A      0.660122  
      45A      0.664172    46A      0.681513    47A      0.686572  
      48A      0.710661    49A      0.748823    50A      0.756947  
      51A      0.789005    52A      0.805083    53A      0.824000  
      54A      0.840489    55A      0.909201    56A      0.968131  
      57A      0.991490    58A      1.026426    59A      1.064044  
      60A      1.113118    61A      1.125217    62A      1.136568  
      63A      1.162471    64A      1.174328    65A      1.190214  
      66A      1.199611    67A      1.213591    68A      1.225781  
      69A      1.254898    70A      1.271308    71A      1.306266  
      72A      1.314902    73A      1.338445    74A      1.358252  
      75A      1.371312    76A      1.395830    77A      1.429925  
      78A      1.445414    79A      1.462684    80A      1.482524  
      81A      1.495996    82A      1.517868    83A      1.531682  
      84A      1.546052    85A      1.566722    86A      1.575386  
      87A      1.598044    88A      1.616070    89A      1.641897  
      90A      1.656339    91A      1.687546    92A      1.696356  
      93A      1.786179    94A      1.801599    95A      1.811362  
      96A      1.853723    97A      2.007836    98A      2.040164  
      99A      2.081885   100A      2.179206   101A      2.191137  
     102A      2.473205   103A      2.519929   104A      2.554661  
     105A      2.555217   106A      2.595844   107A      2.626289  
     108A      2.662052   109A      2.769977   110A      2.805551  
     111A      2.932663   112A      2.976027   113A      3.005480  
     114A      3.008216   115A      3.033647   116A      3.041741  
     117A      3.070131   118A      3.090850   119A      3.100171  
     120A      3.120380   121A      3.131301   122A      3.147566  
     123A      3.151842   124A      3.170445   125A      3.181163  
     126A      3.224146   127A      3.242075   128A      3.263774  
     129A      3.268485   130A      3.296664   131A      3.339162  
     132A      3.356490   133A      3.373003   134A      3.374567  
     135A      3.399146   136A      3.412005   137A      3.462620  
     138A      3.470517   139A      3.477321   140A      3.529197  
     141A      3.533072   142A      3.560098   143A      3.590627  
     144A      3.620984   145A      3.633876   146A      3.646767  
     147A      3.658756   148A      3.686792   149A      3.703415  
     150A      3.730960   151A      3.761972   152A      3.772798  
     153A      3.810612   154A      3.835849   155A      3.837354  
     156A      3.848535   157A      3.855671   158A      3.899826  
     159A      3.903999   160A      3.923707   161A      3.961136  
     162A      3.965990   163A      3.993413   164A      4.038630  
     165A      4.044657   166A      4.063857   167A      4.088976  
     168A      4.117035   169A      4.132718   170A      4.146750  
     171A      4.224904   172A      4.247075   173A      4.262844  
     174A      4.274240   175A      4.292462   176A      4.312799  
     177A      4.335349   178A      4.352033   179A      4.404168  
     180A      4.412241   181A      4.434658   182A      4.442716  
     183A      4.475775   184A      4.494344   185A      4.547981  
     186A      4.562795   187A      4.570461   188A      4.590038  
     189A      4.611769   190A      4.627280   191A      4.682240  
     192A      4.698233   193A      4.764392   194A      4.793899  
     195A      4.854310   196A      4.898526   197A      4.934945  
     198A      4.959067   199A      5.039468   200A      5.073731  
     201A      5.091572   202A      5.113831   203A      5.196951  
     204A      5.214549   205A      5.287752   206A      5.319526  
     207A      5.351905   208A      5.386807   209A      5.391751  
     210A      5.433060   211A      5.458852   212A      5.479791  
     213A      5.493758   214A      5.524573   215A      5.558702  
     216A      5.571142   217A      5.600092   218A      5.607107  
     219A      5.631372   220A      5.654259   221A      5.672700  
     222A      5.737426   223A      5.756979   224A      5.784014  
     225A      5.788135   226A      5.864455   227A      5.896064  
     228A      5.955843   229A      5.982798   230A      6.009121  
     231A      6.081493   232A      6.090153   233A      6.208410  
     234A      6.221330   235A      6.274653   236A      6.291946  
     237A      6.327556   238A      6.343321   239A      6.350189  
     240A      6.408409   241A      6.420670   242A      6.465303  
     243A     10.975659   244A     14.353906   245A     14.439632  
     246A     14.574135  

    Final Occupation by Irrep:
              A 
    DOCC [    17 ]

  Energy converged.

  @DF-RHF Final Energy:  -173.32691724054638

   => Energetics <=

    Nuclear Repulsion Energy =            139.5205398126078649
    One-Electron Energy =                -509.6337455682362929
    Two-Electron Energy =                 196.7862885150821057
    DFT Exchange-Correlation Energy =       0.0000000000000000
    Empirical Dispersion Energy =           0.0000000000000000
    PCM Polarization Energy =               0.0000000000000000
    EFP Energy =                            0.0000000000000000
    Total Energy =                       -173.3269172405463223

    Alert: EFP and PCM quantities not currently incorporated into SCF psivars.

Properties will be evaluated at   0.000000,   0.000000,   0.000000 Bohr
  ==> Properties <==


Properties computed using the SCF density matrix

  Nuclear Dipole Moment: (a.u.)
     X:     1.4193      Y:    -0.1017      Z:     0.7065

  Electronic Dipole Moment: (a.u.)
     X:    -1.1695      Y:     0.0893      Z:    -0.5749

  Dipole Moment: (a.u.)
     X:     0.2498      Y:    -0.0124      Z:     0.1316     Total:     0.2826

  Dipole Moment: (Debye)
     X:     0.6349      Y:    -0.0315      Z:     0.3346     Total:     0.7184


  Saving occupied orbitals to File 180.

*** tstop() called on cx1-27-1-2 at Fri Sep  9 20:39:24 2016
Module time:
	user time   =      16.40 seconds =       0.27 minutes
	system time =       0.23 seconds =       0.00 minutes
	total time  =          6 seconds =       0.10 minutes
Total time:
	user time   =      16.40 seconds =       0.27 minutes
	system time =       0.23 seconds =       0.00 minutes
	total time  =          6 seconds =       0.10 minutes

*** tstart() called on cx1-27-1-2
*** at Fri Sep  9 20:39:24 2016


         ------------------------------------------------------------
                                   SCF GRAD                          
                          Rob Parrish, Justin Turney,                
                       Andy Simmonett, and Alex Sokolov              
         ------------------------------------------------------------

  ==> Geometry <==

    Molecular point group: c1
    Full point group: C1

    Geometry (in Angstrom), charge = 0, multiplicity = 1:

       Center              X                  Y                   Z               Mass       
    ------------   -----------------  -----------------  -----------------  -----------------
           H         -0.664230723265     2.067256724421    -0.123313885395     1.007825032070
           C          0.054178276735     1.356722724421     0.265606114605    12.000000000000
           N         -0.297668723265     0.021400724421    -0.152408885395    14.003074004780
           H          1.029505276735     1.621180724421    -0.123047885395     1.007825032070
           H          0.082915276735     1.466723724421     1.353872114605     1.007825032070
           C          0.633670276735    -0.503790275579    -1.121511885395    12.000000000000
           C         -0.467566723265    -0.868798275579     0.970498114605    12.000000000000
           H          0.301772276735    -1.475631275579    -1.464238885395     1.007825032070
           H          0.684071276735     0.153849724421    -1.980089885395     1.007825032070
           H          1.645655276735    -0.614257275579    -0.720570885395     1.007825032070
           H         -1.222314723265    -0.478171275579     1.641280114605     1.007825032070
           H         -0.798059723265    -1.840344275579     0.625537114605     1.007825032070
           H          0.453741276735    -1.009044275579     1.543763114605     1.007825032070

  Nuclear repulsion =  139.520539812607865

  ==> Basis Set <==

  Basis Set: CC-PVTZ
    Number of shells: 94
    Number of basis function: 246
    Number of Cartesian functions: 275
    Spherical Harmonics?: true
    Max angular momentum: 3

  ==> DFJKGrad: Density-Fitted SCF Gradients <==

    Gradient:                    1
    J tasked:                  Yes
    K tasked:                  Yes
    wK tasked:                  No
    OpenMP threads:              4
    Integrals threads:           4
    Memory (MB):              1430
    Schwarz Cutoff:          0E+00
    Fitting Condition:       1E-12

   => Auxiliary Basis Set <=

  Basis Set: 
    Number of shells: 190
    Number of basis function: 586
    Number of Cartesian functions: 699
    Spherical Harmonics?: true
    Max angular momentum: 4


  -Total Gradient:
     Atom            X                  Y                   Z
    ------   -----------------  -----------------  -----------------
       1       -0.000444965770    -0.003663862864    -0.000879447544
       2        0.000459432642    -0.008831281501    -0.001192626588
       3       -0.001028275406     0.009289119418    -0.004815258812
       4       -0.002265844364    -0.004380527987    -0.002834108117
       5        0.000261414787     0.001911965324     0.007344006381
       6        0.001620173865     0.001609643471     0.001119725732
       7        0.000892563730     0.002529524895     0.000728554404
       8        0.000067072677    -0.000018495355     0.000504308585
       9        0.000073818766     0.000324818308     0.000265924956
      10       -0.000037145592     0.000018131804     0.000020064560
      11        0.000118938717     0.000490034115     0.000283576017
      12        0.000257824892     0.000377224665    -0.000324879637
      13        0.000024991056     0.000343705707    -0.000219839937


*** tstop() called on cx1-27-1-2 at Fri Sep  9 20:39:33 2016
Module time:
	user time   =      35.89 seconds =       0.60 minutes
	system time =       0.42 seconds =       0.01 minutes
	total time  =          9 seconds =       0.15 minutes
Total time:
	user time   =      52.31 seconds =       0.87 minutes
	system time =       0.66 seconds =       0.01 minutes
	total time  =         15 seconds =       0.25 minutes
CURRENT ENERGY: -173.3269172405

			-----------------------------------------
			 OPTKING 2.0: for geometry optimizations 
			  - R.A. King,  Bethel University        
			-----------------------------------------

	Internal coordinates to be generated automatically.
	Detected frag with atoms:  1 2 3 4 5 6 7 8 9 10 11 12 13
	---Fragment 1 Bond Connectivity---
	 1 : 2
	 2 : 1 3 4 5
	 3 : 2 6 7
	 4 : 2
	 5 : 2
	 6 : 3 8 9 10
	 7 : 3 11 12 13
	 8 : 6
	 9 : 6
	 10 : 6
	 11 : 7
	 12 : 7
	 13 : 7

	Assuming in current code that numbering for constraints corresponds to unified fragment.
	Frozen dihedral atom list: 
	     6     3     2     1
	---Fragment 1 Geometry and Gradient---
	 H          -1.2552141560        3.9065490555       -0.2330294718
	 C           0.1023821054        2.5638343874        0.5019228158
	 N          -0.5625123653        0.0404415082       -0.2880110536
	 H           1.9454830254        3.0635875811       -0.2325268046
	 H           0.1566871653        2.7717061518        2.5584475156
	 C           1.1974632816       -0.9520256493       -2.1193503182
	 C          -0.8835730558       -1.6417908056        1.8339756491
	 H           0.5702669575       -2.7885389840       -2.7670104865
	 H           1.2927073684        0.2907338448       -3.7418276019
	 H           3.1098377822       -1.1607780260       -1.3616816327
	 H          -2.3098400752       -0.9036127555        3.1015699240
	 H          -1.5081143147       -3.4777466711        1.1820938326
	 H           0.8574467482       -1.9068173368        2.9172895007
	            -0.0004449658       -0.0036638629       -0.0008794475
	             0.0004594326       -0.0088312815       -0.0011926266
	            -0.0010282754        0.0092891194       -0.0048152588
	            -0.0022658444       -0.0043805280       -0.0028341081
	             0.0002614148        0.0019119653        0.0073440064
	             0.0016201739        0.0016096435        0.0011197257
	             0.0008925637        0.0025295249        0.0007285544
	             0.0000670727       -0.0000184954        0.0005043086
	             0.0000738188        0.0003248183        0.0002659250
	            -0.0000371456        0.0000181318        0.0000200646
	             0.0001189387        0.0004900341        0.0002835760
	             0.0002578249        0.0003772247       -0.0003248796
	             0.0000249911        0.0003437057       -0.0002198399

	Previous optimization step data not found.  Starting new optimization.

	---Fragment 1 Intrafragment Coordinates---
	 - Coordinate -           - BOHR/RAD -       - ANG/DEG -
	 R(1,2)           =         2.045997	       1.082695
	 R(2,3)           =         2.726461	       1.442781
	 R(2,4)           =         2.046018	       1.082706
	 R(2,5)           =         2.067717	       1.094189
	 R(3,6)           =         2.726960	       1.443045
	 R(3,7)           =         2.726869	       1.442997
	 R(6,8)           =         2.045879	       1.082633
	 R(6,9)           =         2.045961	       1.082676
	 R(6,10)          =         2.067563	       1.094107
	 R(7,11)          =         2.045957	       1.082674
	 R(7,12)          =         2.045907	       1.082647
	 R(7,13)          =         2.067597	       1.094125
	 B(1,2,3)         =         1.919304	     109.968005
	 B(1,2,4)         =         1.884399	     107.968122
	 B(1,2,5)         =         1.884645	     107.982195
	 B(2,3,6)         =         1.954137	     111.963783
	 B(2,3,7)         =         1.954346	     111.975788
	 B(3,2,4)         =         1.919567	     109.983092
	 B(3,2,5)         =         1.968833	     112.805833
	 B(3,6,8)         =         1.919247	     109.964749
	 B(3,6,9)         =         1.919351	     109.970703
	 B(3,6,10)        =         1.968825	     112.805392
	 B(3,7,11)        =         1.919443	     109.975958
	 B(3,7,12)        =         1.919411	     109.974126
	 B(3,7,13)        =         1.968886	     112.808845
	 B(4,2,5)         =         1.884736	     107.987417
	 B(6,3,7)         =         1.954186	     111.966587
	 B(8,6,9)         =         1.884400	     107.968162
	 B(8,6,10)        =         1.884864	     107.994773
	 B(9,6,10)        =         1.884806	     107.991427
	 B(11,7,12)       =         1.884284	     107.961525
	 B(11,7,13)       =         1.884554	     107.977005
	 B(12,7,13)       =         1.884900	     107.996837
	*D(1,2,3,6)       =         1.919862	     110.000004
	 D(1,2,3,7)       =        -2.151917	    -123.295787
	 D(2,3,6,8)       =        -3.072081	    -176.017273
	 D(2,3,6,9)       =        -0.999236	     -57.251987
	 D(2,3,6,10)      =         1.105934	      63.365331
	 D(2,3,7,11)      =         0.999498	      57.267014
	 D(2,3,7,12)      =         3.072358	     176.033131
	 D(2,3,7,13)      =        -1.105455	     -63.337922
	 D(4,2,3,6)       =        -0.153150	      -8.774839
	 D(4,2,3,7)       =         2.058256	     117.929369
	 D(5,2,3,6)       =        -2.258387	    -129.396057
	 D(5,2,3,7)       =        -0.046982	      -2.691848
	 D(6,3,7,11)      =        -3.072308	    -176.030294
	 D(6,3,7,12)      =        -0.999448	     -57.264177
	 D(6,3,7,13)      =         1.105924	      63.364770
	 D(7,3,6,8)       =         0.999612	      57.273539
	 D(7,3,6,9)       =         3.072457	     176.038825
	 D(7,3,6,10)      =        -1.105559	     -63.343857

	Current energy   :      -173.3269172405

	Generating empirical Hessian (Schlegel '84) for each fragment.
	Taking RFO optimization step.
	Going to follow RFO solution 1.
	Using RFO vector 1.
	Norm of target step-size    0.16315
	Projected energy change by RFO approximation:        -0.0002174366

	Back-transformation to cartesian coordinates...
	Successfully converged to displaced geometry.

	Back-transformation to cartesian coordinates to adjust frozen coordinates...
	Successfully converged to displaced geometry.

	--- Internal Coordinate Step in ANG or DEG, aJ/ANG or AJ/DEG ---
	 ---------------------------------------------------------------------------
	   Coordinate                Previous        Force       Change         New 
	   ----------                --------       ------       ------       ------
	    1 R(1,2)          =      1.082695     0.014775     0.002644     1.085340
	    2 R(2,3)          =      1.442781     0.112279     0.018293     1.461074
	    3 R(2,4)          =      1.082706     0.017250     0.003087     1.085794
	    4 R(2,5)          =      1.094189    -0.061818    -0.011492     1.082697
	    5 R(3,6)          =      1.443045     0.007201     0.001174     1.444219
	    6 R(3,7)          =      1.442997     0.017270     0.002816     1.445813
	    7 R(6,8)          =      1.082633     0.001348     0.000241     1.082874
	    8 R(6,9)          =      1.082676     0.000084     0.000015     1.082691
	    9 R(6,10)         =      1.094107     0.000238     0.000044     1.094151
	   10 R(7,11)         =      1.082674    -0.002221    -0.000397     1.082276
	   11 R(7,12)         =      1.082647     0.002585     0.000462     1.083110
	   12 R(7,13)         =      1.094125     0.001139     0.000212     1.094337
	   13 B(1,2,3)        =    109.968005     0.000341     1.721480   111.689485
	   14 B(1,2,4)        =    107.968122    -0.000289    -0.168940   107.799182
	   15 B(1,2,5)        =    107.982195    -0.000062    -1.093821   106.888374
	   16 B(2,3,6)        =    111.963783     0.000099     1.361579   113.325362
	   17 B(2,3,7)        =    111.975788     0.000215     1.862323   113.838112
	   18 B(3,2,4)        =    109.983092     0.000520     2.804250   112.787342
	   19 B(3,2,5)        =    112.805833    -0.000323    -2.105067   110.700766
	   20 B(3,6,8)        =    109.964749     0.000018     0.066785   110.031533
	   21 B(3,6,9)        =    109.970703     0.000019     0.065959   110.036663
	   22 B(3,6,10)       =    112.805392     0.000003     0.057809   112.863201
	   23 B(3,7,11)       =    109.975958     0.000007     0.021287   109.997245
	   24 B(3,7,12)       =    109.974126     0.000030     0.103341   110.077467
	   25 B(3,7,13)       =    112.808845     0.000037     0.219480   113.028324
	   26 B(4,2,5)        =    107.987417    -0.000210    -1.322528   106.664889
	   27 B(6,3,7)        =    111.966587    -0.000165    -0.065662   111.900924
	   28 B(8,6,9)        =    107.968162    -0.000039    -0.268655   107.699507
	   29 B(8,6,10)       =    107.994773    -0.000001     0.039959   108.034732
	   30 B(9,6,10)       =    107.991427    -0.000003     0.020422   108.011849
	   31 B(11,7,12)      =    107.961525    -0.000041    -0.288015   107.673509
	   32 B(11,7,13)      =    107.977005    -0.000007     0.037868   108.014873
	   33 B(12,7,13)      =    107.996837    -0.000031    -0.121439   107.875398
	   34 *D(1,2,3,6)     =    110.000004    -0.000000     0.000000   110.000004
	   35 D(1,2,3,7)      =   -123.295787     0.000007     2.686633  -120.609154
	   36 D(2,3,6,8)      =   -176.017273     0.000030     2.140838  -173.876435
	   37 D(2,3,6,9)      =    -57.251987     0.000025     1.892272   -55.359716
	   38 D(2,3,6,10)     =     63.365331     0.000027     2.003786    65.369116
	   39 D(2,3,7,11)     =     57.267014    -0.000015    -1.138531    56.128484
	   40 D(2,3,7,12)     =    176.033131    -0.000021    -1.415887   174.617244
	   41 D(2,3,7,13)     =    -63.337922    -0.000020    -1.349962   -64.687884
	   42 D(4,2,3,6)      =     -8.774839    -0.000040    -2.820231   -11.595071
	   43 D(4,2,3,7)      =    117.929369    -0.000033    -0.133598   117.795771
	   44 D(5,2,3,6)      =   -129.396057    -0.000013    -1.623012  -131.019069
	   45 D(5,2,3,7)      =     -2.691848    -0.000006     1.063621    -1.628227
	   46 D(6,3,7,11)     =   -176.030294     0.000025     2.263097  -173.767197
	   47 D(6,3,7,12)     =    -57.264177     0.000018     1.985741   -55.278436
	   48 D(6,3,7,13)     =     63.364770     0.000020     2.051666    65.416436
	   49 D(7,3,6,8)      =     57.273539    -0.000024    -1.518808    55.754731
	   50 D(7,3,6,9)      =    176.038825    -0.000029    -1.767374   174.271451
	   51 D(7,3,6,10)     =    -63.343857    -0.000027    -1.655861   -64.999718
	 ---------------------------------------------------------------------------

  ==> Convergence Check <==

  Measures of convergence in internal coordinates in au.
  Criteria marked as inactive (o), active & met (*), and active & unmet ( ).
  --------------------------------------------------------------------------------------------- ~
   Step     Total Energy     Delta E     MAX Force     RMS Force      MAX Disp      RMS Disp    ~
  --------------------------------------------------------------------------------------------- ~
    Convergence Criteria    1.00e-06 *    3.00e-04 *             o    1.20e-03 *             o  ~
  --------------------------------------------------------------------------------------------- ~
      1    -173.32691724   -1.73e+02      1.36e-02      2.84e-03 o    4.92e-02      2.28e-02 o  ~
  ---------------------------------------------------------------------------------------------

	Writing optimization data to binary file.
	Structure for next step:
	Cartesian Geometry (in Angstrom)
	    H    -0.6728204077   2.0996447995  -0.1120892040
	    C     0.0582457261   1.3874185614   0.2570150295
	    N    -0.2710343106   0.0205634247  -0.1405011064
	    H     1.0359972590   1.7034350546  -0.0938173988
	    H     0.0706244477   1.4798314694   1.3356895631
	    C     0.6356947167  -0.5229682243  -1.1244650053
	    C    -0.4626398332  -0.8816856847   0.9728757923
	    H     0.2832363147  -1.4906298741  -1.4591581397
	    H     0.6794638747   0.1282331548  -1.9883170785
	    H     1.6533957488  -0.6467931103  -0.7422097281
	    H    -1.2270325889  -0.4957131708   1.6347300728
	    H    -0.7950267747  -1.8484469726   0.6150788000
	    H     0.4475645345  -1.0357920181   1.5605429475
			--------------------------
			 OPTKING Finished Execution 
			--------------------------

    Structure for next step:
    Molecular point group: c1
    Full point group: C1

    Geometry (in Angstrom), charge = 0, multiplicity = 1:

    H           -0.680729846276     2.100083667457    -0.113003049135
    C            0.050336231720     1.387857483787     0.256101156215
    N           -0.278943779880     0.021002451390    -0.141414949284
    H            1.028087689948     1.703873952827    -0.094731245307
    H            0.062714952348     1.480270384689     1.334775607503
    C            0.627785178165    -0.522529156051    -1.125378773039
    C           -0.470549287805    -0.881246589128     0.971961864394
    H            0.275326803107    -1.490190731950    -1.460071881944
    H            0.671554332833     0.128672173342    -1.989230780298
    H            1.645486132518    -0.646354032588    -0.743123525056
    H           -1.234941985155    -0.495274104690     1.633816094350
    H           -0.802936203940    -1.848007803201     0.614164899383
    H            0.439655010326    -1.035352910669     1.559628974699

gradient() will perform analytic gradient computation.

*** tstart() called on cx1-27-1-2
*** at Fri Sep  9 20:39:34 2016


         ---------------------------------------------------------
                                   SCF
            by Justin Turney, Rob Parrish, and Andy Simmonett
                              RHF Reference
                        4 Threads,   2000 MiB Core
         ---------------------------------------------------------

  ==> Geometry <==

    Molecular point group: c1
    Full point group: C1

    Geometry (in Angstrom), charge = 0, multiplicity = 1:

       Center              X                  Y                   Z               Mass       
    ------------   -----------------  -----------------  -----------------  -----------------
           H         -0.680729846276     2.100083667457    -0.113003049135     1.007825032070
           C          0.050336231720     1.387857483787     0.256101156215    12.000000000000
           N         -0.278943779880     0.021002451390    -0.141414949284    14.003074004780
           H          1.028087689948     1.703873952827    -0.094731245307     1.007825032070
           H          0.062714952348     1.480270384689     1.334775607503     1.007825032070
           C          0.627785178165    -0.522529156051    -1.125378773039    12.000000000000
           C         -0.470549287805    -0.881246589128     0.971961864394    12.000000000000
           H          0.275326803107    -1.490190731950    -1.460071881944     1.007825032070
           H          0.671554332833     0.128672173342    -1.989230780298     1.007825032070
           H          1.645486132518    -0.646354032588    -0.743123525056     1.007825032070
           H         -1.234941985155    -0.495274104690     1.633816094350     1.007825032070
           H         -0.802936203940    -1.848007803201     0.614164899383     1.007825032070
           H          0.439655010326    -1.035352910669     1.559628974699     1.007825032070

  Running in c1 symmetry.

  Rotational constants: A =      0.29506  B =      0.28474  C =      0.16244 [cm^-1]
  Rotational constants: A =   8845.56697  B =   8536.19820  C =   4869.85162 [MHz]
  Nuclear repulsion =  138.684444565563297

  Charge       = 0
  Multiplicity = 1
  Electrons    = 34
  Nalpha       = 17
  Nbeta        = 17

  ==> Algorithm <==

  SCF Algorithm Type is DF.
  DIIS enabled.
  MOM disabled.
  Fractional occupation disabled.
  Guess Type is READ.
  Energy threshold   = 1.00e-08
  Density threshold  = 1.00e-08
  Integral threshold = 0.00e+00

  ==> Primary Basis <==

  Basis Set: CC-PVTZ
    Number of shells: 94
    Number of basis function: 246
    Number of Cartesian functions: 275
    Spherical Harmonics?: true
    Max angular momentum: 3

  ==> Pre-Iterations <==

   -------------------------------------------------------
    Irrep   Nso     Nmo     Nalpha   Nbeta   Ndocc  Nsocc
   -------------------------------------------------------
     A        246     246       0       0       0       0
   -------------------------------------------------------
    Total     246     246      17      17      17       0
   -------------------------------------------------------

 OEINTS: Overlap, kinetic, potential, dipole, and quadrupole integrals
         stored in file 35.

  ==> Integral Setup <==

  ==> DFJK: Density-Fitted J/K Matrices <==

    J tasked:                  Yes
    K tasked:                  Yes
    wK tasked:                  No
    OpenMP threads:              4
    Integrals threads:           4
    Memory (MB):              1430
    Algorithm:                Core
    Integral Cache:           NONE
    Schwarz Cutoff:          1E-12
    Fitting Condition:       1E-12

   => Auxiliary Basis Set <=

  Basis Set: 
    Number of shells: 190
    Number of basis function: 586
    Number of Cartesian functions: 699
    Spherical Harmonics?: true
    Max angular momentum: 4

  Minimum eigenvalue in the overlap matrix is 1.0237571188E-03.
  Using Symmetric Orthogonalization.
  SCF Guess: Reading in previously saved MOs, projecting if necessary.

  Using orbitals from previous SCF, no projection.
  Recomputing DOCC and SOCC from number of alpha and beta electrons from previous calculation.
              A 
    DOCC [    17 ]

  ==> Iterations <==

                           Total Energy        Delta E     RMS |[F,P]|

   @DF-RHF iter   0:  -173.32116632924703   -1.73321e+02   3.12869e-04 
   @DF-RHF iter   1:  -173.32747714447345   -6.31082e-03   4.19792e-05 
   @DF-RHF iter   2:  -173.32756449712343   -8.73526e-05   1.43568e-05 DIIS
   @DF-RHF iter   3:  -173.32757583803976   -1.13409e-05   6.73951e-06 DIIS
   @DF-RHF iter   4:  -173.32757749486206   -1.65682e-06   1.19501e-06 DIIS
   @DF-RHF iter   5:  -173.32757758248266   -8.76206e-08   3.20980e-07 DIIS
   @DF-RHF iter   6:  -173.32757759079226   -8.30960e-09   8.74805e-08 DIIS
   @DF-RHF iter   7:  -173.32757759141333   -6.21071e-10   3.02384e-08 DIIS
   @DF-RHF iter   8:  -173.32757759148279   -6.94627e-11   7.15869e-09 DIIS

  ==> Post-Iterations <==

    Orbital Energies (a.u.)
    -----------------------

    Doubly Occupied:                                                      

       1A    -15.536420     2A    -11.234441     3A    -11.234177  
       4A    -11.233721     5A     -1.218540     6A     -0.951739  
       7A     -0.950340     8A     -0.807387     9A     -0.637557  
      10A     -0.628831    11A     -0.626106    12A     -0.550189  
      13A     -0.546625    14A     -0.514144    15A     -0.502108  
      16A     -0.499218    17A     -0.342534  

    Virtual:                                                              

      18A      0.137436    19A      0.180403    20A      0.181516  
      21A      0.208373    22A      0.214331    23A      0.226221  
      24A      0.227129    25A      0.238885    26A      0.256825  
      27A      0.271369    28A      0.331115    29A      0.350272  
      30A      0.388903    31A      0.401456    32A      0.419837  
      33A      0.445409    34A      0.494800    35A      0.525575  
      36A      0.528251    37A      0.572404    38A      0.582035  
      39A      0.605445    40A      0.613370    41A      0.625372  
      42A      0.629971    43A      0.648357    44A      0.659286  
      45A      0.662436    46A      0.682043    47A      0.685099  
      48A      0.712195    49A      0.744936    50A      0.754252  
      51A      0.787500    52A      0.796593    53A      0.821000  
      54A      0.843598    55A      0.911599    56A      0.974236  
      57A      1.001049    58A      1.026279    59A      1.060427  
      60A      1.109840    61A      1.121920    62A      1.135371  
      63A      1.156033    64A      1.173769    65A      1.192541  
      66A      1.196034    67A      1.211325    68A      1.223770  
      69A      1.249896    70A      1.264621    71A      1.295774  
      72A      1.310772    73A      1.336650    74A      1.352708  
      75A      1.372331    76A      1.400910    77A      1.436215  
      78A      1.443280    79A      1.458621    80A      1.476660  
      81A      1.495279    82A      1.522047    83A      1.532778  
      84A      1.541261    85A      1.562607    86A      1.571708  
      87A      1.595934    88A      1.613984    89A      1.639085  
      90A      1.652067    91A      1.679991    92A      1.694502  
      93A      1.787049    94A      1.803312    95A      1.811449  
      96A      1.851440    97A      2.006739    98A      2.048032  
      99A      2.081035   100A      2.177953   101A      2.185343  
     102A      2.479505   103A      2.508445   104A      2.533874  
     105A      2.552199   106A      2.587564   107A      2.617109  
     108A      2.644646   109A      2.770190   110A      2.797850  
     111A      2.926328   112A      2.972992   113A      3.001701  
     114A      3.006174   115A      3.035778   116A      3.041263  
     117A      3.066998   118A      3.085406   119A      3.101897  
     120A      3.119520   121A      3.130238   122A      3.151025  
     123A      3.152809   124A      3.167501   125A      3.177539  
     126A      3.224807   127A      3.245456   128A      3.257980  
     129A      3.266404   130A      3.289292   131A      3.345333  
     132A      3.357187   133A      3.368510   134A      3.372986  
     135A      3.394918   136A      3.404386   137A      3.454978  
     138A      3.465045   139A      3.478159   140A      3.519301  
     141A      3.537586   142A      3.554634   143A      3.589662  
     144A      3.627494   145A      3.631336   146A      3.648602  
     147A      3.656191   148A      3.689353   149A      3.702856  
     150A      3.729337   151A      3.756398   152A      3.772562  
     153A      3.818462   154A      3.823692   155A      3.832452  
     156A      3.846081   157A      3.854138   158A      3.899231  
     159A      3.899841   160A      3.911036   161A      3.936773  
     162A      3.965399   163A      3.991727   164A      4.017288  
     165A      4.037531   166A      4.046778   167A      4.093281  
     168A      4.108962   169A      4.130441   170A      4.133572  
     171A      4.218358   172A      4.238659   173A      4.255297  
     174A      4.259078   175A      4.288440   176A      4.314058  
     177A      4.330646   178A      4.350063   179A      4.379758  
     180A      4.403749   181A      4.433258   182A      4.439103  
     183A      4.469442   184A      4.493610   185A      4.542378  
     186A      4.558547   187A      4.579259   188A      4.583357  
     189A      4.611164   190A      4.629681   191A      4.660434  
     192A      4.692152   193A      4.754650   194A      4.802119  
     195A      4.851751   196A      4.904012   197A      4.919081  
     198A      4.955977   199A      5.012079   200A      5.070702  
     201A      5.094551   202A      5.097438   203A      5.188183  
     204A      5.195180   205A      5.286863   206A      5.299436  
     207A      5.351303   208A      5.372677   209A      5.384610  
     210A      5.432334   211A      5.451058   212A      5.473251  
     213A      5.482436   214A      5.500268   215A      5.546323  
     216A      5.570076   217A      5.594240   218A      5.608766  
     219A      5.626635   220A      5.652802   221A      5.679389  
     222A      5.729968   223A      5.745737   224A      5.775523  
     225A      5.777831   226A      5.884530   227A      5.887676  
     228A      5.946488   229A      5.974845   230A      5.998653  
     231A      6.068578   232A      6.081729   233A      6.203614  
     234A      6.219635   235A      6.266366   236A      6.290903  
     237A      6.332918   238A      6.338319   239A      6.350828  
     240A      6.391690   241A      6.395729   242A      6.462954  
     243A     10.823201   244A     14.233973   245A     14.395430  
     246A     14.537989  

    Final Occupation by Irrep:
              A 
    DOCC [    17 ]

  Energy converged.

  @DF-RHF Final Energy:  -173.32757759148279

   => Energetics <=

    Nuclear Repulsion Energy =            138.6844445655632967
    One-Electron Energy =                -507.9958877476865382
    Two-Electron Energy =                 195.9838655906405336
    DFT Exchange-Correlation Energy =       0.0000000000000000
    Empirical Dispersion Energy =           0.0000000000000000
    PCM Polarization Energy =               0.0000000000000000
    EFP Energy =                            0.0000000000000000
    Total Energy =                       -173.3275775914827079

    Alert: EFP and PCM quantities not currently incorporated into SCF psivars.

Properties will be evaluated at   0.000000,   0.000000,   0.000000 Bohr
  ==> Properties <==


Properties computed using the SCF density matrix

  Nuclear Dipole Moment: (a.u.)
     X:     1.3172      Y:    -0.0959      Z:     0.6962

  Electronic Dipole Moment: (a.u.)
     X:    -1.0836      Y:     0.0987      Z:    -0.5632

  Dipole Moment: (a.u.)
     X:     0.2336      Y:     0.0028      Z:     0.1330     Total:     0.2689

  Dipole Moment: (Debye)
     X:     0.5938      Y:     0.0071      Z:     0.3381     Total:     0.6834


  Saving occupied orbitals to File 180.

*** tstop() called on cx1-27-1-2 at Fri Sep  9 20:39:39 2016
Module time:
	user time   =      15.35 seconds =       0.26 minutes
	system time =       0.20 seconds =       0.00 minutes
	total time  =          5 seconds =       0.08 minutes
Total time:
	user time   =      68.70 seconds =       1.15 minutes
	system time =       0.89 seconds =       0.01 minutes
	total time  =         21 seconds =       0.35 minutes

*** tstart() called on cx1-27-1-2
*** at Fri Sep  9 20:39:39 2016


         ------------------------------------------------------------
                                   SCF GRAD                          
                          Rob Parrish, Justin Turney,                
                       Andy Simmonett, and Alex Sokolov              
         ------------------------------------------------------------

  ==> Geometry <==

    Molecular point group: c1
    Full point group: C1

    Geometry (in Angstrom), charge = 0, multiplicity = 1:

       Center              X                  Y                   Z               Mass       
    ------------   -----------------  -----------------  -----------------  -----------------
           H         -0.680729846276     2.100083667457    -0.113003049135     1.007825032070
           C          0.050336231720     1.387857483787     0.256101156215    12.000000000000
           N         -0.278943779880     0.021002451390    -0.141414949284    14.003074004780
           H          1.028087689948     1.703873952827    -0.094731245307     1.007825032070
           H          0.062714952348     1.480270384689     1.334775607503     1.007825032070
           C          0.627785178165    -0.522529156051    -1.125378773039    12.000000000000
           C         -0.470549287805    -0.881246589128     0.971961864394    12.000000000000
           H          0.275326803107    -1.490190731950    -1.460071881944     1.007825032070
           H          0.671554332833     0.128672173342    -1.989230780298     1.007825032070
           H          1.645486132518    -0.646354032588    -0.743123525056     1.007825032070
           H         -1.234941985155    -0.495274104690     1.633816094350     1.007825032070
           H         -0.802936203940    -1.848007803201     0.614164899383     1.007825032070
           H          0.439655010326    -1.035352910669     1.559628974699     1.007825032070

  Nuclear repulsion =  138.684444565563297

  ==> Basis Set <==

  Basis Set: CC-PVTZ
    Number of shells: 94
    Number of basis function: 246
    Number of Cartesian functions: 275
    Spherical Harmonics?: true
    Max angular momentum: 3

  ==> DFJKGrad: Density-Fitted SCF Gradients <==

    Gradient:                    1
    J tasked:                  Yes
    K tasked:                  Yes
    wK tasked:                  No
    OpenMP threads:              4
    Integrals threads:           4
    Memory (MB):              1430
    Schwarz Cutoff:          0E+00
    Fitting Condition:       1E-12

   => Auxiliary Basis Set <=

  Basis Set: 
    Number of shells: 190
    Number of basis function: 586
    Number of Cartesian functions: 699
    Spherical Harmonics?: true
    Max angular momentum: 4


  -Total Gradient:
     Atom            X                  Y                   Z
    ------   -----------------  -----------------  -----------------
       1       -0.000321196239     0.001316863400     0.002051712720
       2        0.002442545945     0.002854298995    -0.002400545337
       3       -0.001838858662    -0.000611270211     0.000089443865
       4       -0.000265736990     0.002070544059     0.000999157514
       5       -0.000037423036    -0.000059457567    -0.001149125274
       6        0.000927304652    -0.002246205156    -0.000133049152
       7       -0.000814248607    -0.003021223341    -0.000009293050
       8        0.000133280021    -0.000082869694    -0.000138473670
       9       -0.000201818041    -0.000078741673     0.000135051820
      10       -0.000129398011     0.000175192649     0.000264618536
      11        0.000095259066     0.000028717832    -0.000260828820
      12       -0.000084063329    -0.000556747335     0.000619536266
      13        0.000094353230     0.000210898042    -0.000068205418


*** tstop() called on cx1-27-1-2 at Fri Sep  9 20:39:49 2016
Module time:
	user time   =      36.16 seconds =       0.60 minutes
	system time =       0.36 seconds =       0.01 minutes
	total time  =         10 seconds =       0.17 minutes
Total time:
	user time   =     104.87 seconds =       1.75 minutes
	system time =       1.25 seconds =       0.02 minutes
	total time  =         31 seconds =       0.52 minutes
CURRENT ENERGY: -173.3275775915

			-----------------------------------------
			 OPTKING 2.0: for geometry optimizations 
			  - R.A. King,  Bethel University        
			-----------------------------------------

	Previous internal coordinate definitions found.
	---Fragment 1 Geometry and Gradient---
	 H          -1.2863929799        3.9685829876       -0.2135448150
	 C           0.0951216925        2.6226705558        0.4839610476
	 N          -0.5271273504        0.0396888812       -0.2672355252
	 H           1.9428041746        3.2198551358       -0.1790161099
	 H           0.1185140844        2.7973056297        2.5223603470
	 C           1.1863420570       -0.9874370014       -2.1266576768
	 C          -0.8892092860       -1.6653147090        1.8367417353
	 H           0.5202922549       -2.8160523692       -2.7591359912
	 H           1.2690537724        0.2431551685       -3.7591013899
	 H           3.1095181459       -1.2214321065       -1.4042999453
	 H          -2.3337021419       -0.9359324186        3.0874649698
	 H          -1.5173295276       -3.4922286395        1.1606034603
	 H           0.8308275625       -1.9565334520        2.9472716311
	            -0.0003211962        0.0013168634        0.0020517127
	             0.0024425459        0.0028542990       -0.0024005453
	            -0.0018388587       -0.0006112702        0.0000894439
	            -0.0002657370        0.0020705441        0.0009991575
	            -0.0000374230       -0.0000594576       -0.0011491253
	             0.0009273047       -0.0022462052       -0.0001330492
	            -0.0008142486       -0.0030212233       -0.0000092931
	             0.0001332800       -0.0000828697       -0.0001384737
	            -0.0002018180       -0.0000787417        0.0001350518
	            -0.0001293980        0.0001751926        0.0002646185
	             0.0000952591        0.0000287178       -0.0002608288
	            -0.0000840633       -0.0005567473        0.0006195363
	             0.0000943532        0.0002108980       -0.0000682054

	---Fragment 1 Intrafragment Coordinates---
	 - Coordinate -           - BOHR/RAD -       - ANG/DEG -
	 R(1,2)           =         2.050994	       1.085340
	 R(2,3)           =         2.761030	       1.461074
	 R(2,4)           =         2.051853	       1.085794
	 R(2,5)           =         2.046000	       1.082697
	 R(3,6)           =         2.729179	       1.444219
	 R(3,7)           =         2.732190	       1.445813
	 R(6,8)           =         2.046335	       1.082874
	 R(6,9)           =         2.045989	       1.082691
	 R(6,10)          =         2.067646	       1.094151
	 R(7,11)          =         2.045206	       1.082276
	 R(7,12)          =         2.046781	       1.083110
	 R(7,13)          =         2.067997	       1.094337
	 B(1,2,3)         =         1.949349	     111.689485
	 B(1,2,4)         =         1.881451	     107.799182
	 B(1,2,5)         =         1.865554	     106.888374
	 B(2,3,6)         =         1.977901	     113.325362
	 B(2,3,7)         =         1.986850	     113.838112
	 B(3,2,4)         =         1.968510	     112.787342
	 B(3,2,5)         =         1.932093	     110.700766
	 B(3,6,8)         =         1.920413	     110.031533
	 B(3,6,9)         =         1.920502	     110.036663
	 B(3,6,10)        =         1.969834	     112.863201
	 B(3,7,11)        =         1.919814	     109.997245
	 B(3,7,12)        =         1.921214	     110.077467
	 B(3,7,13)        =         1.972716	     113.028324
	 B(4,2,5)         =         1.861654	     106.664889
	 B(6,3,7)         =         1.953040	     111.900924
	 B(8,6,9)         =         1.879711	     107.699507
	 B(8,6,10)        =         1.885562	     108.034732
	 B(9,6,10)        =         1.885162	     108.011849
	 B(11,7,12)       =         1.879257	     107.673509
	 B(11,7,13)       =         1.885215	     108.014873
	 B(12,7,13)       =         1.882781	     107.875398
	*D(1,2,3,6)       =         1.919862	     110.000004
	 D(1,2,3,7)       =        -2.105027	    -120.609154
	 D(2,3,6,8)       =        -3.034716	    -173.876435
	 D(2,3,6,9)       =        -0.966209	     -55.359716
	 D(2,3,6,10)      =         1.140906	      65.369116
	 D(2,3,7,11)      =         0.979627	      56.128484
	 D(2,3,7,12)      =         3.047646	     174.617244
	 D(2,3,7,13)      =        -1.129017	     -64.687884
	 D(4,2,3,6)       =        -0.202372	     -11.595071
	 D(4,2,3,7)       =         2.055924	     117.795771
	 D(5,2,3,6)       =        -2.286714	    -131.019069
	 D(5,2,3,7)       =        -0.028418	      -1.628227
	 D(6,3,7,11)      =        -3.032810	    -173.767197
	 D(6,3,7,12)      =        -0.964791	     -55.278436
	 D(6,3,7,13)      =         1.141732	      65.416436
	 D(7,3,6,8)       =         0.973104	      55.754731
	 D(7,3,6,9)       =         3.041611	     174.271451
	 D(7,3,6,10)      =        -1.134459	     -64.999718

	Current energy   :      -173.3275775915

	Energy change for the previous step:
		Projected    :        -0.0002174366
		Actual       :        -0.0006603509
	Energy ratio indicates good step: Trust radius increased to 1.000e+00.


	Performing BFGS update.
	Previous computed or guess Hessian on step 1.
	Steps to be used in Hessian update: 1
	Taking RFO optimization step.
	Going to follow RFO solution 1.
	Using RFO vector 1.
	Norm of target step-size    0.04395
	Projected energy change by RFO approximation:        -0.0001440021

	Back-transformation to cartesian coordinates...
	Successfully converged to displaced geometry.

	Back-transformation to cartesian coordinates to adjust frozen coordinates...
	Successfully converged to displaced geometry.

	--- Internal Coordinate Step in ANG or DEG, aJ/ANG or AJ/DEG ---
	 ---------------------------------------------------------------------------
	   Coordinate                Previous        Force       Change         New 
	   ----------                --------       ------       ------       ------
	    1 R(1,2)          =      1.085340    -0.003153    -0.000366     1.084973
	    2 R(2,3)          =      1.461074    -0.049907    -0.005662     1.455412
	    3 R(2,4)          =      1.085794    -0.000334     0.000016     1.085810
	    4 R(2,5)          =      1.082697     0.009477     0.001080     1.083777
	    5 R(3,6)          =      1.444219    -0.009976    -0.001181     1.443038
	    6 R(3,7)          =      1.445813    -0.019721    -0.002325     1.443488
	    7 R(6,8)          =      1.082874    -0.000605    -0.000075     1.082798
	    8 R(6,9)          =      1.082691     0.001345     0.000178     1.082869
	    9 R(6,10)         =      1.094151     0.000393     0.000055     1.094206
	   10 R(7,11)         =      1.082276     0.001784     0.000229     1.082505
	   11 R(7,12)         =      1.083110    -0.002621    -0.000338     1.082772
	   12 R(7,13)         =      1.094337    -0.000100    -0.000010     1.094327
	   13 B(1,2,3)        =    111.689485    -0.000140    -0.452087   111.237397
	   14 B(1,2,4)        =    107.799182     0.000180     0.413127   108.212309
	   15 B(1,2,5)        =    106.888374     0.000044     0.310349   107.198722
	   16 B(2,3,6)        =    113.325362    -0.000046    -0.304093   113.021269
	   17 B(2,3,7)        =    113.838112    -0.000117    -0.518201   113.319911
	   18 B(3,2,4)        =    112.787342    -0.000214    -0.775957   112.011384
	   19 B(3,2,5)        =    110.700766     0.000067     0.290572   110.991338
	   20 B(3,6,8)        =    110.031533    -0.000032    -0.121123   109.910411
	   21 B(3,6,9)        =    110.036663     0.000013     0.053997   110.090660
	   22 B(3,6,10)       =    112.863201     0.000039     0.141809   113.005010
	   23 B(3,7,11)       =    109.997245     0.000030     0.129514   110.126759
	   24 B(3,7,12)       =    110.077467    -0.000098    -0.379964   109.697503
	   25 B(3,7,13)       =    113.028324     0.000039     0.156706   113.185030
	   26 B(4,2,5)        =    106.664889     0.000089     0.296922   106.961811
	   27 B(6,3,7)        =    111.900924     0.000121     0.269726   112.170651
	   28 B(8,6,9)        =    107.699507     0.000005    -0.002584   107.696923
	   29 B(8,6,10)       =    108.034732    -0.000006    -0.032784   108.001948
	   30 B(9,6,10)       =    108.011849    -0.000020    -0.045244   107.966605
	   31 B(11,7,12)      =    107.673509     0.000022     0.033009   107.706518
	   32 B(11,7,13)      =    108.014873    -0.000013     0.036273   108.051147
	   33 B(12,7,13)      =    107.875398     0.000021     0.024274   107.899672
	   34 *D(1,2,3,6)     =    110.000004     0.000000     0.000000   110.000004
	   35 D(1,2,3,7)      =   -120.609154     0.000005    -0.365295  -120.974449
	   36 D(2,3,6,8)      =   -173.876435    -0.000010     0.075394  -173.801040
	   37 D(2,3,6,9)      =    -55.359716    -0.000011     0.031026   -55.328689
	   38 D(2,3,6,10)     =     65.369116    -0.000009     0.107463    65.476579
	   39 D(2,3,7,11)     =     56.128484     0.000009     0.063587    56.192071
	   40 D(2,3,7,12)     =    174.617244     0.000006    -0.049256   174.567989
	   41 D(2,3,7,13)     =    -64.687884     0.000002    -0.182538   -64.870422
	   42 D(4,2,3,6)      =    -11.595071     0.000006     0.344752   -11.250319
	   43 D(4,2,3,7)      =    117.795771     0.000011    -0.020544   117.775227
	   44 D(5,2,3,6)      =   -131.019069     0.000002     0.286873  -130.732196
	   45 D(5,2,3,7)      =     -1.628227     0.000007    -0.078422    -1.706649
	   46 D(6,3,7,11)     =   -173.767197    -0.000004    -0.581777  -174.348974
	   47 D(6,3,7,12)     =    -55.278436    -0.000008    -0.694620   -55.973056
	   48 D(6,3,7,13)     =     65.416436    -0.000011    -0.827902    64.588534
	   49 D(7,3,6,8)      =     55.754731     0.000012     0.830418    56.585150
	   50 D(7,3,6,9)      =    174.271451     0.000011     0.786050   175.057501
	   51 D(7,3,6,10)     =    -64.999718     0.000013     0.862487   -64.137231
	 ---------------------------------------------------------------------------

  ==> Convergence Check <==

  Measures of convergence in internal coordinates in au.
  Criteria marked as inactive (o), active & met (*), and active & unmet ( ).
  ---------------------------------------------------------------------------------------------
   Step     Total Energy     Delta E     MAX Force     RMS Force      MAX Disp      RMS Disp   
  ---------------------------------------------------------------------------------------------
    Convergence Criteria    1.00e-06 *    3.00e-04 *             o    1.20e-03 *             o
  ---------------------------------------------------------------------------------------------
      2    -173.32757759   -6.60e-04      6.06e-03      1.23e-03 o    1.51e-02      6.15e-03 o  ~
  ---------------------------------------------------------------------------------------------

	Writing optimization data to binary file.
	Structure for next step:
	Cartesian Geometry (in Angstrom)
	    H    -0.6844463481   2.0879437889  -0.1166945521
	    C     0.0474950309   1.3794904028   0.2568326521
	    N    -0.2829895755   0.0197294499  -0.1432343735
	    H     1.0266712635   1.6825025165  -0.1014691085
	    H     0.0627724380   1.4736967246   1.3363989016
	    C     0.6287149556  -0.5171805847  -1.1244998232
	    C    -0.4698377713  -0.8751538780   0.9738731541
	    H     0.2765938764  -1.4826087384  -1.4656907639
	    H     0.6773669713   0.1383784633  -1.9850120223
	    H     1.6449575592  -0.6446519183  -0.7394161561
	    H    -1.2314373409  -0.4875063681   1.6383372471
	    H    -0.8052811810  -1.8404724351   0.6160567003
	    H     0.4422654515  -1.0313626455   1.5580125905
			--------------------------
			 OPTKING Finished Execution 
			--------------------------

    Structure for next step:
    Molecular point group: c1
    Full point group: C1

    Geometry (in Angstrom), charge = 0, multiplicity = 1:

    H           -0.683333011478     2.087651634194    -0.116949610443
    C            0.048608311606     1.379198302216     0.256577565209
    N           -0.281876269611     0.019437453134    -0.143489429776
    H            1.027784469410     1.682210392802    -0.101724168054
    H            0.063885717563     1.473404616884     1.336143732245
    C            0.629828191939    -0.517472540453    -1.124754804542
    C           -0.468724451118    -0.875445806390     0.973618012497
    H            0.277707139574    -1.482900620438    -1.465945719181
    H            0.678480203927     0.138086457479    -1.985266937941
    H            1.646070717940    -0.644943864301    -0.739671166900
    H           -1.230323962567    -0.487798326144     1.638082054782
    H           -0.804167835225    -1.840764289757     0.615801585994
    H            0.443378702011    -1.031654561984     1.557757404262

gradient() will perform analytic gradient computation.

*** tstart() called on cx1-27-1-2
*** at Fri Sep  9 20:39:49 2016


         ---------------------------------------------------------
                                   SCF
            by Justin Turney, Rob Parrish, and Andy Simmonett
                              RHF Reference
                        4 Threads,   2000 MiB Core
         ---------------------------------------------------------

  ==> Geometry <==

    Molecular point group: c1
    Full point group: C1

    Geometry (in Angstrom), charge = 0, multiplicity = 1:

       Center              X                  Y                   Z               Mass       
    ------------   -----------------  -----------------  -----------------  -----------------
           H         -0.683333011478     2.087651634194    -0.116949610443     1.007825032070
           C          0.048608311606     1.379198302216     0.256577565209    12.000000000000
           N         -0.281876269611     0.019437453134    -0.143489429776    14.003074004780
           H          1.027784469410     1.682210392802    -0.101724168054     1.007825032070
           H          0.063885717563     1.473404616884     1.336143732245     1.007825032070
           C          0.629828191939    -0.517472540453    -1.124754804542    12.000000000000
           C         -0.468724451118    -0.875445806390     0.973618012497    12.000000000000
           H          0.277707139574    -1.482900620438    -1.465945719181     1.007825032070
           H          0.678480203927     0.138086457479    -1.985266937941     1.007825032070
           H          1.646070717940    -0.644943864301    -0.739671166900     1.007825032070
           H         -1.230323962567    -0.487798326144     1.638082054782     1.007825032070
           H         -0.804167835225    -1.840764289757     0.615801585994     1.007825032070
           H          0.443378702011    -1.031654561984     1.557757404262     1.007825032070

  Running in c1 symmetry.

  Rotational constants: A =      0.29457  B =      0.28789  C =      0.16345 [cm^-1]
  Rotational constants: A =   8830.87412  B =   8630.81680  C =   4900.11406 [MHz]
  Nuclear repulsion =  138.955479261047174

  Charge       = 0
  Multiplicity = 1
  Electrons    = 34
  Nalpha       = 17
  Nbeta        = 17

  ==> Algorithm <==

  SCF Algorithm Type is DF.
  DIIS enabled.
  MOM disabled.
  Fractional occupation disabled.
  Guess Type is READ.
  Energy threshold   = 1.00e-08
  Density threshold  = 1.00e-08
  Integral threshold = 0.00e+00

  ==> Primary Basis <==

  Basis Set: CC-PVTZ
    Number of shells: 94
    Number of basis function: 246
    Number of Cartesian functions: 275
    Spherical Harmonics?: true
    Max angular momentum: 3

  ==> Pre-Iterations <==

   -------------------------------------------------------
    Irrep   Nso     Nmo     Nalpha   Nbeta   Ndocc  Nsocc
   -------------------------------------------------------
     A        246     246       0       0       0       0
   -------------------------------------------------------
    Total     246     246      17      17      17       0
   -------------------------------------------------------

 OEINTS: Overlap, kinetic, potential, dipole, and quadrupole integrals
         stored in file 35.

  ==> Integral Setup <==

  ==> DFJK: Density-Fitted J/K Matrices <==

    J tasked:                  Yes
    K tasked:                  Yes
    wK tasked:                  No
    OpenMP threads:              4
    Integrals threads:           4
    Memory (MB):              1430
    Algorithm:                Core
    Integral Cache:           NONE
    Schwarz Cutoff:          1E-12
    Fitting Condition:       1E-12

   => Auxiliary Basis Set <=

  Basis Set: 
    Number of shells: 190
    Number of basis function: 586
    Number of Cartesian functions: 699
    Spherical Harmonics?: true
    Max angular momentum: 4

  Minimum eigenvalue in the overlap matrix is 1.0144078537E-03.
  Using Symmetric Orthogonalization.
  SCF Guess: Reading in previously saved MOs, projecting if necessary.

  Using orbitals from previous SCF, no projection.
  Recomputing DOCC and SOCC from number of alpha and beta electrons from previous calculation.
              A 
    DOCC [    17 ]

  ==> Iterations <==

                           Total Energy        Delta E     RMS |[F,P]|

   @DF-RHF iter   0:  -173.33111223572115   -1.73331e+02   7.94020e-05 
   @DF-RHF iter   1:  -173.32769787391669    3.41436e-03   1.05824e-05 
   @DF-RHF iter   2:  -173.32770294714561   -5.07323e-06   3.99732e-06 DIIS
   @DF-RHF iter   3:  -173.32770360815715   -6.61012e-07   1.95221e-06 DIIS
   @DF-RHF iter   4:  -173.32770376201609   -1.53859e-07   3.20094e-07 DIIS
   @DF-RHF iter   5:  -173.32770376868376   -6.66768e-09   8.29795e-08 DIIS
   @DF-RHF iter   6:  -173.32770376925367   -5.69912e-10   2.07191e-08 DIIS
   @DF-RHF iter   7:  -173.32770376929210   -3.84262e-11   6.60738e-09 DIIS

  ==> Post-Iterations <==

    Orbital Energies (a.u.)
    -----------------------

    Doubly Occupied:                                                      

       1A    -15.535938     2A    -11.233917     3A    -11.233879  
       4A    -11.233642     5A     -1.221052     6A     -0.951733  
       7A     -0.951211     8A     -0.807106     9A     -0.638762  
      10A     -0.629157    11A     -0.627386    12A     -0.550655  
      13A     -0.547311    14A     -0.513978    15A     -0.501178  
      16A     -0.499443    17A     -0.343044  

    Virtual:                                                              

      18A      0.137597    19A      0.180268    20A      0.181960  
      21A      0.208294    22A      0.214412    23A      0.225888  
      24A      0.227344    25A      0.238788    26A      0.257301  
      27A      0.271182    28A      0.331080    29A      0.349881  
      30A      0.388819    31A      0.400791    32A      0.420013  
      33A      0.446585    34A      0.495365    35A      0.526957  
      36A      0.528405    37A      0.572877    38A      0.583625  
      39A      0.605114    40A      0.613506    41A      0.625784  
      42A      0.629212    43A      0.647389    44A      0.659471  
      45A      0.663193    46A      0.682317    47A      0.685924  
      48A      0.712275    49A      0.746307    50A      0.755402  
      51A      0.788170    52A      0.798509    53A      0.822424  
      54A      0.842430    55A      0.912092    56A      0.972916  
      57A      0.997188    58A      1.027305    59A      1.061471  
      60A      1.110889    61A      1.122161    62A      1.135719  
      63A      1.158382    64A      1.173304    65A      1.193447  
      66A      1.196210    67A      1.210491    68A      1.225305  
      69A      1.252213    70A      1.267096    71A      1.298107  
      72A      1.312288    73A      1.336721    74A      1.353242  
      75A      1.374376    76A      1.398653    77A      1.435245  
      78A      1.444076    79A      1.461032    80A      1.477945  
      81A      1.495434    82A      1.521572    83A      1.533852  
      84A      1.542046    85A      1.564447    86A      1.573376  
      87A      1.597008    88A      1.613293    89A      1.639869  
      90A      1.652689    91A      1.681966    92A      1.695395  
      93A      1.786290    94A      1.802794    95A      1.811116  
      96A      1.852499    97A      2.008129    98A      2.046045  
      99A      2.080994   100A      2.178808   101A      2.187503  
     102A      2.477802   103A      2.510326   104A      2.538898  
     105A      2.553843   106A      2.591226   107A      2.620256  
     108A      2.649074   109A      2.769500   110A      2.799971  
     111A      2.927838   112A      2.974405   113A      3.002835  
     114A      3.005795   115A      3.035550   116A      3.042557  
     117A      3.068180   118A      3.087538   119A      3.102193  
     120A      3.119676   121A      3.130214   122A      3.150633  
     123A      3.153441   124A      3.169107   125A      3.179090  
     126A      3.225062   127A      3.243995   128A      3.259248  
     129A      3.266222   130A      3.292735   131A      3.344437  
     132A      3.357964   133A      3.369188   134A      3.373280  
     135A      3.396879   136A      3.406755   137A      3.457978  
     138A      3.467251   139A      3.477709   140A      3.521473  
     141A      3.539309   142A      3.555096   143A      3.591727  
     144A      3.625842   145A      3.632391   146A      3.648592  
     147A      3.656101   148A      3.689575   149A      3.702962  
     150A      3.730001   151A      3.756236   152A      3.771923  
     153A      3.815891   154A      3.827533   155A      3.833107  
     156A      3.848138   157A      3.854280   158A      3.900045  
     159A      3.902876   160A      3.915676   161A      3.944429  
     162A      3.964354   163A      3.992398   164A      4.022150  
     165A      4.042854   166A      4.051795   167A      4.094239  
     168A      4.112436   169A      4.131964   170A      4.138316  
     171A      4.220398   172A      4.242159   173A      4.259515  
     174A      4.260303   175A      4.288784   176A      4.313869  
     177A      4.332199   178A      4.350492   179A      4.385350  
     180A      4.406243   181A      4.434146   182A      4.440390  
     183A      4.472755   184A      4.491297   185A      4.543337  
     186A      4.560599   187A      4.576829   188A      4.585363  
     189A      4.610885   190A      4.628633   191A      4.667736  
     192A      4.694609   193A      4.757053   194A      4.802313  
     195A      4.853834   196A      4.904029   197A      4.923685  
     198A      4.957896   199A      5.019072   200A      5.071425  
     201A      5.096295   202A      5.100867   203A      5.191047  
     204A      5.199208   205A      5.290082   206A      5.303606  
     207A      5.354068   208A      5.378103   209A      5.387413  
     210A      5.437511   211A      5.450222   212A      5.476639  
     213A      5.486532   214A      5.507069   215A      5.549602  
     216A      5.570592   217A      5.597208   218A      5.607184  
     219A      5.627063   220A      5.656254   221A      5.680087  
     222A      5.730724   223A      5.749790   224A      5.776943  
     225A      5.781199   226A      5.880598   227A      5.891009  
     228A      5.949582   229A      5.978650   230A      6.000719  
     231A      6.073556   232A      6.084162   233A      6.205425  
     234A      6.221208   235A      6.270107   236A      6.290728  
     237A      6.331692   238A      6.343545   239A      6.350097  
     240A      6.397637   241A      6.402190   242A      6.465944  
     243A     10.875956   244A     14.282619   245A     14.413424  
     246A     14.550467  

    Final Occupation by Irrep:
              A 
    DOCC [    17 ]

  Energy converged.

  @DF-RHF Final Energy:  -173.32770376929210

   => Energetics <=

    Nuclear Repulsion Energy =            138.9554792610471736
    One-Electron Energy =                -508.5275854363308099
    Two-Electron Energy =                 196.2444024059915364
    DFT Exchange-Correlation Energy =       0.0000000000000000
    Empirical Dispersion Energy =           0.0000000000000000
    PCM Polarization Energy =               0.0000000000000000
    EFP Energy =                            0.0000000000000000
    Total Energy =                       -173.3277037692920999

    Alert: EFP and PCM quantities not currently incorporated into SCF psivars.

Properties will be evaluated at   0.000000,   0.000000,   0.000000 Bohr
  ==> Properties <==


Properties computed using the SCF density matrix

  Nuclear Dipole Moment: (a.u.)
     X:     1.3315      Y:    -0.1001      Z:     0.6925

  Electronic Dipole Moment: (a.u.)
     X:    -1.0963      Y:     0.1009      Z:    -0.5607

  Dipole Moment: (a.u.)
     X:     0.2352      Y:     0.0008      Z:     0.1318     Total:     0.2696

  Dipole Moment: (Debye)
     X:     0.5978      Y:     0.0019      Z:     0.3349     Total:     0.6852


  Saving occupied orbitals to File 180.

*** tstop() called on cx1-27-1-2 at Fri Sep  9 20:39:54 2016
Module time:
	user time   =      15.23 seconds =       0.25 minutes
	system time =       0.21 seconds =       0.00 minutes
	total time  =          5 seconds =       0.08 minutes
Total time:
	user time   =     120.56 seconds =       2.01 minutes
	system time =       1.46 seconds =       0.02 minutes
	total time  =         36 seconds =       0.60 minutes

*** tstart() called on cx1-27-1-2
*** at Fri Sep  9 20:39:54 2016


         ------------------------------------------------------------
                                   SCF GRAD                          
                          Rob Parrish, Justin Turney,                
                       Andy Simmonett, and Alex Sokolov              
         ------------------------------------------------------------

  ==> Geometry <==

    Molecular point group: c1
    Full point group: C1

    Geometry (in Angstrom), charge = 0, multiplicity = 1:

       Center              X                  Y                   Z               Mass       
    ------------   -----------------  -----------------  -----------------  -----------------
           H         -0.683333011478     2.087651634194    -0.116949610443     1.007825032070
           C          0.048608311606     1.379198302216     0.256577565209    12.000000000000
           N         -0.281876269611     0.019437453134    -0.143489429776    14.003074004780
           H          1.027784469410     1.682210392802    -0.101724168054     1.007825032070
           H          0.063885717563     1.473404616884     1.336143732245     1.007825032070
           C          0.629828191939    -0.517472540453    -1.124754804542    12.000000000000
           C         -0.468724451118    -0.875445806390     0.973618012497    12.000000000000
           H          0.277707139574    -1.482900620438    -1.465945719181     1.007825032070
           H          0.678480203927     0.138086457479    -1.985266937941     1.007825032070
           H          1.646070717940    -0.644943864301    -0.739671166900     1.007825032070
           H         -1.230323962567    -0.487798326144     1.638082054782     1.007825032070
           H         -0.804167835225    -1.840764289757     0.615801585994     1.007825032070
           H          0.443378702011    -1.031654561984     1.557757404262     1.007825032070

  Nuclear repulsion =  138.955479261047174

  ==> Basis Set <==

  Basis Set: CC-PVTZ
    Number of shells: 94
    Number of basis function: 246
    Number of Cartesian functions: 275
    Spherical Harmonics?: true
    Max angular momentum: 3

  ==> DFJKGrad: Density-Fitted SCF Gradients <==

    Gradient:                    1
    J tasked:                  Yes
    K tasked:                  Yes
    wK tasked:                  No
    OpenMP threads:              4
    Integrals threads:           4
    Memory (MB):              1430
    Schwarz Cutoff:          0E+00
    Fitting Condition:       1E-12

   => Auxiliary Basis Set <=

  Basis Set: 
    Number of shells: 190
    Number of basis function: 586
    Number of Cartesian functions: 699
    Spherical Harmonics?: true
    Max angular momentum: 4


  -Total Gradient:
     Atom            X                  Y                   Z
    ------   -----------------  -----------------  -----------------
       1       -0.000946929309    -0.000052476996     0.001436153322
       2        0.001483658569     0.000127876726    -0.001469088770
       3       -0.001606497197     0.000336961585    -0.000958532956
       4        0.000077637335     0.000124839598     0.000088062470
       5       -0.000049735682    -0.000179786058    -0.000173846334
       6        0.001151719994    -0.000513490445     0.000556080891
       7       -0.000007318846    -0.000070287810     0.000643222798
       8       -0.000065883170     0.000114714304     0.000093448449
       9        0.000018674608    -0.000025202255    -0.000060114045
      10       -0.000041867056    -0.000015853349    -0.000018999994
      11       -0.000041060934    -0.000026778126     0.000046084215
      12        0.000046163312     0.000230183374    -0.000165099544
      13       -0.000018561625    -0.000050700548    -0.000017370502


*** tstop() called on cx1-27-1-2 at Fri Sep  9 20:40:03 2016
Module time:
	user time   =      35.57 seconds =       0.59 minutes
	system time =       0.34 seconds =       0.01 minutes
	total time  =          9 seconds =       0.15 minutes
Total time:
	user time   =     156.15 seconds =       2.60 minutes
	system time =       1.80 seconds =       0.03 minutes
	total time  =         45 seconds =       0.75 minutes
CURRENT ENERGY: -173.3277037693

			-----------------------------------------
			 OPTKING 2.0: for geometry optimizations 
			  - R.A. King,  Bethel University        
			-----------------------------------------

	Previous internal coordinate definitions found.
	---Fragment 1 Geometry and Gradient---
	 H          -1.2913122493        3.9450898495       -0.2210027351
	 C           0.0918563967        2.6063070741        0.4848613301
	 N          -0.5326689529        0.0367314631       -0.2711557252
	 H           1.9422311708        3.1789169403       -0.1922308187
	 H           0.1207265100        2.7843312088        2.5249457281
	 C           1.1902027935       -0.9778813827       -2.1254785472
	 C          -0.8857608444       -1.6543528183        1.8398714017
	 H           0.5247904389       -2.8022760549       -2.7702359349
	 H           1.2821417720        0.2609455873       -3.7516108134
	 H           3.1106228523       -1.2187672746       -1.3977759338
	 H          -2.3249753440       -0.9218052445        3.0955264667
	 H          -1.5196569735       -3.4785403828        1.1636963497
	 H           0.8378643200       -1.9495445859        2.9437348755
	            -0.0009469293       -0.0000524770        0.0014361533
	             0.0014836586        0.0001278767       -0.0014690888
	            -0.0016064972        0.0003369616       -0.0009585330
	             0.0000776373        0.0001248396        0.0000880625
[...]
	total time  =         51 seconds =       0.85 minutes

*** tstart() called on cx1-27-1-2
*** at Fri Sep  9 20:40:09 2016


         ------------------------------------------------------------
                                   SCF GRAD                          
                          Rob Parrish, Justin Turney,                
                       Andy Simmonett, and Alex Sokolov              
         ------------------------------------------------------------

  ==> Geometry <==

    Molecular point group: c1
    Full point group: C1

    Geometry (in Angstrom), charge = 0, multiplicity = 1:

       Center              X                  Y                   Z               Mass       
    ------------   -----------------  -----------------  -----------------  -----------------
           H         -0.682961139888     2.087097117172    -0.117047023345     1.007825032070
           C          0.049176069005     1.379263646181     0.256854084486    12.000000000000
           N         -0.281830966888     0.019737156198    -0.143191038566    14.003074004780
           H          1.027741491657     1.681120240350    -0.103812993968     1.007825032070
           H          0.066237648798     1.475533272153     1.336437280265     1.007825032070
           C          0.629288287438    -0.517246118823    -1.124113863619    12.000000000000
           C         -0.468934677989    -0.876115642670     0.972518615597    12.000000000000
           H          0.277952201367    -1.482794182656    -1.466264297540     1.007825032070
           H          0.677947878011     0.139014562378    -1.984034221289     1.007825032070
           H          1.645611590797    -0.644379718572    -0.738948980777     1.007825032070
           H         -1.231186720412    -0.488741448018     1.636285353146     1.007825032070
           H         -0.803151817241    -1.842579779718     0.615954341192     1.007825032070
           H          0.442833051810    -1.030641180819     1.557678054196     1.007825032070

  Nuclear repulsion =  138.977177800878479

  ==> Basis Set <==

  Basis Set: CC-PVTZ
    Number of shells: 94
    Number of basis function: 246
    Number of Cartesian functions: 275
    Spherical Harmonics?: true
    Max angular momentum: 3

  ==> DFJKGrad: Density-Fitted SCF Gradients <==

    Gradient:                    1
    J tasked:                  Yes
    K tasked:                  Yes
    wK tasked:                  No
    OpenMP threads:              4
    Integrals threads:           4
    Memory (MB):              1430
    Schwarz Cutoff:          0E+00
    Fitting Condition:       1E-12

   => Auxiliary Basis Set <=

  Basis Set: 
    Number of shells: 190
    Number of basis function: 586
    Number of Cartesian functions: 699
    Spherical Harmonics?: true
    Max angular momentum: 4


  -Total Gradient:
     Atom            X                  Y                   Z
    ------   -----------------  -----------------  -----------------
       1       -0.000894972793    -0.000183280842     0.001372940249
       2        0.001429968193     0.000108864508    -0.001336286806
       3       -0.001305440674     0.000727271427    -0.000915808995
       4        0.000027720145     0.000007067710     0.000006704465
       5       -0.000003528613     0.000051407259    -0.000034357191
       6        0.000796011524    -0.000588238683     0.000919871973
       7        0.000049454958    -0.000204754601     0.000022970503
       8       -0.000003877066    -0.000013801614    -0.000012557488
       9       -0.000042555182     0.000026616863     0.000052214143
      10       -0.000044293440     0.000028240846     0.000008094078
      11        0.000026697983     0.000034670453    -0.000070565678
      12       -0.000014323855    -0.000036445422     0.000019075914
      13       -0.000020861180     0.000042382095    -0.000032295169


*** tstop() called on cx1-27-1-2 at Fri Sep  9 20:40:19 2016
Module time:
	user time   =      35.86 seconds =       0.60 minutes
	system time =       0.35 seconds =       0.01 minutes
	total time  =         10 seconds =       0.17 minutes
Total time:
	user time   =     209.01 seconds =       3.48 minutes
	system time =       2.39 seconds =       0.04 minutes
	total time  =         61 seconds =       1.02 minutes
CURRENT ENERGY: -173.3277059328

			-----------------------------------------
			 OPTKING 2.0: for geometry optimizations 
			  - R.A. King,  Bethel University        
			-----------------------------------------

	Previous internal coordinate definitions found.
	---Fragment 1 Geometry and Gradient---
	 H          -1.2906095138        3.9440419642       -0.2211868188
	 C           0.0929293027        2.6064305563        0.4853838758
	 N          -0.5325833432        0.0372978199       -0.2705918476
	 H           1.9421499546        3.1768568507       -0.1961781276
	 H           0.1251710159        2.7883537843        2.5255004535
	 C           1.1891825219       -0.9774535079       -2.1242673444
	 C          -0.8861581156       -1.6556186254        1.8377938426
	 H           0.5252535386       -2.8020749167       -2.7708379608
	 H           1.2811358218        0.2626994514       -3.7492813165
	 H           3.1097552277       -1.2177011937       -1.3964111998
	 H          -2.3266057200       -0.9235874865        3.0921311927
	 H          -1.5177369777       -3.4819711617        1.1639850152
	 H           0.8368331905       -1.9476295730        2.9435849256
	            -0.0008949728       -0.0001832808        0.0013729402
	             0.0014299682        0.0001088645       -0.0013362868
	            -0.0013054407        0.0007272714       -0.0009158090
	             0.0000277201        0.0000070677        0.0000067045
	            -0.0000035286        0.0000514073       -0.0000343572
	             0.0007960115       -0.0005882387        0.0009198720
	             0.0000494550       -0.0002047546        0.0000229705
	            -0.0000038771       -0.0000138016       -0.0000125575
	            -0.0000425552        0.0000266169        0.0000522141
	            -0.0000442934        0.0000282408        0.0000080941
	             0.0000266980        0.0000346705       -0.0000705657
	            -0.0000143239       -0.0000364454        0.0000190759
	            -0.0000208612        0.0000423821       -0.0000322952

	---Fragment 1 Intrafragment Coordinates---
	 - Coordinate -           - BOHR/RAD -       - ANG/DEG -
	 R(1,2)           =         2.050031	       1.084830
	 R(2,3)           =         2.750129	       1.455306
	 R(2,4)           =         2.051714	       1.085720
	 R(2,5)           =         2.048466	       1.084001
	 R(3,6)           =         2.725860	       1.442463
	 R(3,7)           =         2.726953	       1.443041
	 R(6,8)           =         2.046484	       1.082953
	 R(6,9)           =         2.046242	       1.082825
	 R(6,10)          =         2.067872	       1.094271
	 R(7,11)          =         2.045512	       1.082439
	 R(7,12)          =         2.046576	       1.083002
	 R(7,13)          =         2.068029	       1.094354
	 B(1,2,3)         =         1.940453	     111.179785
	 B(1,2,4)         =         1.888492	     108.202631
	 B(1,2,5)         =         1.871230	     107.213571
	 B(2,3,6)         =         1.972552	     113.018899
	 B(2,3,7)         =         1.978943	     113.385058
	 B(3,2,4)         =         1.953480	     111.926184
	 B(3,2,5)         =         1.939398	     111.119332
	 B(3,6,8)         =         1.919672	     109.989110
	 B(3,6,9)         =         1.920705	     110.048268
	 B(3,6,10)        =         1.972013	     112.988009
	 B(3,7,11)        =         1.921173	     110.075130
	 B(3,7,12)        =         1.917144	     109.844260
	 B(3,7,13)        =         1.974744	     113.144469
	 B(4,2,5)         =         1.867072	     106.975357
	 B(6,3,7)         =         1.956886	     112.121319
	 B(8,6,9)         =         1.879721	     107.700063
	 B(8,6,10)        =         1.884870	     107.995080
	 B(9,6,10)        =         1.884099	     107.950938
	 B(11,7,12)       =         1.879620	     107.694276
	 B(11,7,13)       =         1.885305	     108.020048
	 B(12,7,13)       =         1.882995	     107.887655
	*D(1,2,3,6)       =         1.919862	     110.000004
	 D(1,2,3,7)       =        -2.111635	    -120.987764
	 D(2,3,6,8)       =        -3.033432	    -173.802843
	 D(2,3,6,9)       =        -0.965243	     -55.304335
	 D(2,3,6,10)      =         1.142129	      65.439182
	 D(2,3,7,11)      =         0.981745	      56.249863
	 D(2,3,7,12)      =         3.048550	     174.669042
	 D(2,3,7,13)      =        -1.129364	     -64.707786
	 D(4,2,3,6)       =        -0.194390	     -11.137725
	 D(4,2,3,7)       =         2.057298	     117.874507
	 D(5,2,3,6)       =        -2.280567	    -130.666875
	 D(5,2,3,7)       =        -0.028879	      -1.654643
	 D(6,3,7,11)      =        -3.041779	    -174.281122
	 D(6,3,7,12)      =        -0.974975	     -55.861942
	 D(6,3,7,13)      =         1.130297	      64.761230
	 D(7,3,6,8)       =         0.986777	      56.538177
	 D(7,3,6,9)       =         3.054966	     175.036686
	 D(7,3,6,10)      =        -1.120847	     -64.219798

	Current energy   :      -173.3277059328

	Energy change for the previous step:
		Projected    :        -0.0000072844
		Actual       :        -0.0000021635

	Performing BFGS update.
	Previous computed or guess Hessian on step 1.
	Steps to be used in Hessian update: 3 2
	Taking RFO optimization step.
	Going to follow RFO solution 1.
	Using RFO vector 1.
	Norm of target step-size    0.00230
	Projected energy change by RFO approximation:        -0.0000009317

	Back-transformation to cartesian coordinates...
	Successfully converged to displaced geometry.

	Back-transformation to cartesian coordinates to adjust frozen coordinates...
	Successfully converged to displaced geometry.

	--- Internal Coordinate Step in ANG or DEG, aJ/ANG or AJ/DEG ---
	 ---------------------------------------------------------------------------
	   Coordinate                Previous        Force       Change         New 
	   ----------                --------       ------       ------       ------
	    1 R(1,2)          =      1.084830    -0.000092    -0.000023     1.084807
	    2 R(2,3)          =      1.455306    -0.000946    -0.000103     1.455203
	    3 R(2,4)          =      1.085720    -0.000204    -0.000039     1.085682
	    4 R(2,5)          =      1.084001     0.000245     0.000050     1.084052
	    5 R(3,6)          =      1.442463     0.000073    -0.000024     1.442439
	    6 R(3,7)          =      1.443041    -0.000408    -0.000074     1.442967
	    7 R(6,8)          =      1.082953    -0.000144    -0.000010     1.082943
	    8 R(6,9)          =      1.082825     0.000224     0.000030     1.082854
	    9 R(6,10)         =      1.094271     0.000342     0.000059     1.094329
	   10 R(7,11)         =      1.082439     0.000409     0.000056     1.082495
	   11 R(7,12)         =      1.083002    -0.000253    -0.000019     1.082982
	   12 R(7,13)         =      1.094354     0.000335     0.000055     1.094409
	   13 B(1,2,3)        =    111.179785     0.000001     0.006166   111.185951
	   14 B(1,2,4)        =    108.202631     0.000000    -0.007122   108.195509
	   15 B(1,2,5)        =    107.213571     0.000002     0.014174   107.227745
	   16 B(2,3,6)        =    113.018899    -0.000001     0.000793   113.019691
	   17 B(2,3,7)        =    113.385058    -0.000007    -0.013875   113.371182
	   18 B(3,2,4)        =    111.926184     0.000000    -0.003643   111.922541
	   19 B(3,2,5)        =    111.119332    -0.000006    -0.013584   111.105747
	   20 B(3,6,8)        =    109.989110    -0.000003    -0.008651   109.980459
	   21 B(3,6,9)        =    110.048268     0.000007     0.030327   110.078595
	   22 B(3,6,10)       =    112.988009     0.000002     0.006278   112.994287
	   23 B(3,7,11)       =    110.075130     0.000008     0.031365   110.106495
	   24 B(3,7,12)       =    109.844260    -0.000006    -0.015184   109.829075
	   25 B(3,7,13)       =    113.144469     0.000003     0.009413   113.153883
	   26 B(4,2,5)        =    106.975357     0.000002     0.004795   106.980152
	   27 B(6,3,7)        =    112.121319     0.000008     0.032687   112.154006
	   28 B(8,6,9)        =    107.700063    -0.000002    -0.008586   107.691477
	   29 B(8,6,10)       =    107.995080    -0.000001    -0.013785   107.981294
	   30 B(9,6,10)       =    107.950938    -0.000003    -0.007027   107.943910
	   31 B(11,7,12)      =    107.694276    -0.000001    -0.007006   107.687270
	   32 B(11,7,13)      =    108.020048    -0.000004    -0.006706   108.013343
	   33 B(12,7,13)      =    107.887655    -0.000001    -0.013365   107.874290
	   34 *D(1,2,3,6)     =    110.000004     0.000000     0.000000   110.000004
	   35 D(1,2,3,7)      =   -120.987764     0.000001     0.034398  -120.953366
	   36 D(2,3,6,8)      =   -173.802843    -0.000001     0.005530  -173.797313
	   37 D(2,3,6,9)      =    -55.304335    -0.000001     0.008247   -55.296088
	   38 D(2,3,6,10)     =     65.439182    -0.000000     0.025066    65.464248
	   39 D(2,3,7,11)     =     56.249863     0.000000    -0.031041    56.218822
	   40 D(2,3,7,12)     =    174.669042     0.000000    -0.029838   174.639204
	   41 D(2,3,7,13)     =    -64.707786    -0.000000    -0.051384   -64.759169
	   42 D(4,2,3,6)      =    -11.137725    -0.000000     0.007330   -11.130395
	   43 D(4,2,3,7)      =    117.874507     0.000001     0.041728   117.916235
	   44 D(5,2,3,6)      =   -130.666875    -0.000000     0.012942  -130.653933
	   45 D(5,2,3,7)      =     -1.654643     0.000001     0.047339    -1.607303
	   46 D(6,3,7,11)     =   -174.281122     0.000000    -0.012924  -174.294046
	   47 D(6,3,7,12)     =    -55.861942     0.000000    -0.011721   -55.873664
	   48 D(6,3,7,13)     =     64.761230    -0.000001    -0.033267    64.727963
	   49 D(7,3,6,8)      =     56.538177     0.000000    -0.004828    56.533350
	   50 D(7,3,6,9)      =    175.036686     0.000000    -0.002111   175.034574
	   51 D(7,3,6,10)     =    -64.219798     0.000001     0.014709   -64.205089
	 ---------------------------------------------------------------------------

  ==> Convergence Check <==

  Measures of convergence in internal coordinates in au.
  Criteria marked as inactive (o), active & met (*), and active & unmet ( ).
  ---------------------------------------------------------------------------------------------
   Step     Total Energy     Delta E     MAX Force     RMS Force      MAX Disp      RMS Disp   
  ---------------------------------------------------------------------------------------------
    Convergence Criteria    1.00e-06 *    3.00e-04 *             o    1.20e-03 *             o
  ---------------------------------------------------------------------------------------------
      4    -173.32770593   -2.16e-06      1.15e-04 *    4.50e-05 o    8.97e-04 *    3.22e-04 o  ~
  ---------------------------------------------------------------------------------------------


  **** Optimization is complete! (in 4 steps) ****

  ==> Optimization Summary <==

  Measures of convergence in internal coordinates in au.
  --------------------------------------------------------------------------------------------------------------- ~
   Step         Total Energy             Delta E       MAX Force       RMS Force        MAX Disp        RMS Disp  ~
  --------------------------------------------------------------------------------------------------------------- ~
      1    -173.326917240546   -173.326917240546      0.01362818      0.00283620      0.04922232      0.02283324  ~
      2    -173.327577591483     -0.000660350936      0.00605763      0.00123076      0.01505323      0.00615345  ~
      3    -173.327703769292     -0.000126177809      0.00044714      0.00014245      0.00301411      0.00110939  ~
      4    -173.327705932754     -0.000002163462      0.00011476      0.00004501      0.00089681      0.00032178  ~
  --------------------------------------------------------------------------------------------------------------- ~

	Writing optimization data to binary file.
	Final energy is   -173.3277059327536
	Final (previous) structure:
	Cartesian Geometry (in Angstrom)
	    H    -0.6829611920   2.0870972766  -0.1170470323
	    C     0.0491760728   1.3792637515   0.2568541041
	    N    -0.2818309884   0.0197371577  -0.1431910495
	    H     1.0277415701   1.6811203687  -0.1038130019
	    H     0.0662376539   1.4755333848   1.3364373823
	    C     0.6292883355  -0.5172461583  -1.1241139495
	    C    -0.4689347138  -0.8761157096   0.9725186899
	    H     0.2779522226  -1.4827942959  -1.4662644095
	    H     0.6779479298   0.1390145730  -1.9840343728
	    H     1.6456117165  -0.6443797678  -0.7389490372
	    H    -1.2311868144  -0.4887414853   1.6362854781
	    H    -0.8031518786  -1.8425799204   0.6159543882
	    H     0.4428330856  -1.0306412595   1.5576781731
	Saving final (previous) structure.
			--------------------------
			 OPTKING Finished Execution 
			--------------------------

    Final optimized geometry and variables:
    Molecular point group: c1
    Full point group: C1

    Geometry (in Angstrom), charge = 0, multiplicity = 1:

    H           -0.682961139888     2.087097117172    -0.117047023345
    C            0.049176069005     1.379263646181     0.256854084486
    N           -0.281830966888     0.019737156198    -0.143191038566
    H            1.027741491657     1.681120240350    -0.103812993968
    H            0.066237648798     1.475533272153     1.336437280265
    C            0.629288287438    -0.517246118823    -1.124113863619
    C           -0.468934677989    -0.876115642670     0.972518615597
    H            0.277952201367    -1.482794182656    -1.466264297540
    H            0.677947878011     0.139014562378    -1.984034221289
    H            1.645611590797    -0.644379718572    -0.738948980777
    H           -1.231186720412    -0.488741448018     1.636285353146
    H           -0.803151817241    -1.842579779718     0.615954341192
    H            0.442833051810    -1.030641180819     1.557678054196

	Cleaning optimization helper files.


Properties will be evaluated at   0.000000,   0.000000,   0.000000 Bohr

Properties computed using the  density matrix

  Nuclear Dipole Moment: (a.u.)
     X:     1.3330      Y:    -0.0998      Z:     0.6906

  Electronic Dipole Moment: (a.u.)
     X:    -1.0983      Y:     0.1010      Z:    -0.5591

  Dipole Moment: (a.u.)
     X:     0.2347      Y:     0.0012      Z:     0.1315     Total:     0.2690

  Dipole Moment: (Debye)
     X:     0.5965      Y:     0.0031      Z:     0.3342     Total:     0.6837

  Quadrupole Moment: (Debye Ang)
    XX:   -28.6938     YY:   -26.5141     ZZ:   -27.0315
    XY:     0.3343     XZ:    -1.0738     YZ:     0.2333

  Traceless Quadrupole Moment: (Debye Ang)
    XX:    -1.2806     YY:     0.8990     ZZ:     0.3816
    XY:     0.3343     XZ:    -1.0738     YZ:     0.2333

  Mulliken Charges: (a.u.)
   Center  Symbol    Alpha    Beta     Spin     Total
       1     H     0.45104  0.45104  0.00000  0.09792
       2     C     3.08502  3.08502  0.00000 -0.17004
       3     N     3.59955  3.59955  0.00000 -0.19909
       4     H     0.46363  0.46363  0.00000  0.07274
       5     H     0.46112  0.46112  0.00000  0.07776
       6     C     3.09084  3.09084  0.00000 -0.18168
       7     C     3.09040  3.09040  0.00000 -0.18081
       8     H     0.45364  0.45364  0.00000  0.09272
       9     H     0.45202  0.45202  0.00000  0.09595
      10     H     0.47351  0.47351  0.00000  0.05298
      11     H     0.45215  0.45215  0.00000  0.09569
      12     H     0.45357  0.45357  0.00000  0.09285
      13     H     0.47350  0.47350  0.00000  0.05299

   Total alpha = 17.00000, Total beta = 17.00000, Total charge =  0.00000


*** PSI4 exiting successfully. Buy a developer a beer!
